Title
82260
    1SAPS     N    1   0.975   3.665  11.173 -0.8134  1.1033  0.3432
    1SAPS   HN1    2   0.990   3.664  11.070  1.4077  3.4347  0.5281
    1SAPS   HN2    3   1.037   3.594  11.218  2.4660  1.1373 -3.5948
    1SAPS   HN3    4   0.877   3.634  11.186 -0.7412  1.5221  2.1789
    1SAPS   C12    5   1.005   3.796  11.232 -0.1192  0.1334  0.5724
    1SAPS  H12A    6   0.956   3.800  11.328 -1.2426 -0.0513  0.0213
    1SAPS   C13    7   1.152   3.824  11.256  0.8609  0.1915 -0.7265
    1SAPS  O13A    8   1.244   3.736  11.251 -0.6807  0.0767  0.7938
    1SAPS  O13B    9   1.182   3.950  11.271  0.2892  0.1727  0.0027
    1SAPS   C11   10   0.935   3.907  11.150  0.4536 -0.1412  0.3220
    1SAPS  H11A   11   0.985   3.922  11.052 -1.6083  0.5078 -0.6884
    1SAPS  H11B   12   0.949   4.006  11.199  0.5548  0.6250 -1.1943
    1SAPS     P   13   0.720   3.812  11.016 -0.0943 -0.3605 -0.2681
    1SAPS   O13   14   0.711   3.666  11.036 -0.5125  0.1040  0.4410
    1SAPS   O14   15   0.590   3.884  10.997 -0.0082 -0.1279  0.5099
    1SAPS   O12   16   0.794   3.888  11.130  0.3688 -0.1415 -0.1829
    1SAPS   O11   17   0.830   3.835  10.902  0.5071 -0.2238  0.0167
    1SAPS    C1   18   0.783   3.876  10.767 -0.0475  0.1298  0.3155
    1SAPS    HA   19   0.727   3.971  10.753  0.3523  0.1217 -1.4926
    1SAPS    HB   20   0.880   3.898  10.717  0.5632 -0.4567  1.2088
    1SAPS    C2   21   0.711   3.759  10.689 -0.1421 -0.4527  0.8703
    1SAPS    HS   22   0.622   3.743  10.754 -0.2173  0.0827  0.9072
    1SAPS   O21   23   0.799   3.651  10.679  0.4327 -0.5676 -0.1022
    1SAPS   C21   24   0.748   3.536  10.703  0.1871 -0.1736 -0.4824
    1SAPS   O22   25   0.633   3.506  10.739 -0.0114  0.1986 -0.7236
    1SAPS   C22   26   0.859   3.441  10.672 -0.4401  0.1527 -0.3085
    1SAPS   H2R   27   0.945   3.500  10.634  1.6500 -2.1651  0.5261
    1SAPS   H2S   28   0.893   3.397  10.768 -0.2376 -0.9214 -0.8560
    1SAPS    C3   29   0.684   3.831  10.554  0.8608 -0.0354 -0.8353
    1SAPS    HX   30   0.774   3.879  10.510  2.1278  0.4582  2.0414
    1SAPS    HY   31   0.618   3.914  10.590  0.9520  0.0459 -0.8544
    1SAPS   O31   32   0.630   3.743  10.455  0.0181 -0.3356  0.0527
    1SAPS   C31   33   0.523   3.796  10.391 -0.0578  0.6874  0.2547
    1SAPS   O32   34   0.484   3.910  10.391 -0.8416  0.1243  0.5027
    1SAPS   C32   35   0.441   3.676  10.330 -0.4411 -0.0129 -0.0384
    1SAPS   H2X   36   0.340   3.682  10.376 -0.5056  0.9743 -0.3014
    1SAPS   H2Y   37   0.482   3.580  10.368 -1.3645 -0.3960  0.0364
    1SAPS   C23   38   0.805   3.327  10.585  0.1540 -0.3584  0.0691
    1SAPS   H3R   39   0.788   3.354  10.478  2.4958 -1.0772 -0.5457
    1SAPS   H3S   40   0.719   3.270  10.626 -1.7812  0.0703 -3.0789
    1SAPS   C24   41   0.903   3.209  10.573 -0.3899 -0.0490 -0.0361
    1SAPS   H4R   42   0.853   3.113  10.548 -1.5693  0.5266  0.0855
    1SAPS   H4S   43   0.956   3.195  10.669  0.7975 -1.2837 -0.8287
    1SAPS   C25   44   1.021   3.253  10.485 -0.2901  0.4814  0.6860
    1SAPS   H5R   45   1.097   3.306  10.544 -0.7535  0.9520  0.8664
    1SAPS   C26   46   1.048   3.219  10.359 -0.4649  0.1043  0.8629
    1SAPS   H6R   47   1.142   3.257  10.317 -1.2396 -0.5526 -1.6373
    1SAPS   C27   48   0.971   3.137  10.264  0.4921 -0.1258 -0.3941
    1SAPS   H7R   49   0.906   3.204  10.203  0.7824  0.6694  0.1441
    1SAPS   H7S   50   0.890   3.078  10.311  1.2571 -2.1708 -1.5170
    1SAPS   C28   51   1.058   3.052  10.174 -0.1407  0.2059 -0.3768
    1SAPS   H8R   52   1.087   2.958  10.225  0.2535  0.2136 -0.5858
    1SAPS   C29   53   1.105   3.075  10.049 -0.1166  0.2026  0.0544
    1SAPS   H9R   54   1.181   3.010  10.004  0.7965  2.3169 -1.6408
    1SAPS  C210   55   1.076   3.189   9.958 -0.4719 -0.0487 -0.2500
    1SAPS  H10R   56   1.122   3.273  10.015 -2.1918  0.1868  0.8797
    1SAPS  H10S   57   0.967   3.209   9.960 -0.3395  0.6675  0.2734
    1SAPS  C211   58   1.134   3.178   9.819 -0.1589 -1.0841  0.4206
    1SAPS  H11R   59   1.130   3.072   9.790 -0.5246 -1.2638  1.1128
    1SAPS  C212   60   1.164   3.280   9.737 -0.0956  0.0457 -0.8466
    1SAPS  H12R   61   1.209   3.264   9.638  0.9296  3.6355 -1.1153
    1SAPS  C213   62   1.145   3.428   9.767  0.6062 -0.2552 -0.4388
    1SAPS  H13R   63   1.248   3.470   9.765 -0.0935  1.5753  0.2775
    1SAPS  H13S   64   1.097   3.439   9.866  0.5974 -2.5192 -0.1286
    1SAPS  C214   65   1.060   3.497   9.664 -0.1036  0.1384  0.2292
    1SAPS  H14R   66   0.956   3.521   9.690 -1.3198 -0.8911 -3.1433
    1SAPS  C215   67   1.101   3.529   9.536  0.2522 -0.4085 -0.3510
    1SAPS  H15R   68   1.022   3.584   9.483  0.3245  0.6324  0.5854
    1SAPS  C216   69   1.243   3.514   9.482 -0.6012 -0.3592  0.5099
    1SAPS  H16R   70   1.299   3.447   9.550  0.2550 -0.6401 -0.4420
    1SAPS  H16S   71   1.302   3.608   9.484  0.7547 -1.1941  2.0106
    1SAPS  C217   72   1.235   3.468   9.334 -0.1788  0.5393 -0.0123
    1SAPS  H17R   73   1.170   3.378   9.332  2.0715 -1.2254  1.4737
    1SAPS  H17S   74   1.330   3.430   9.291 -1.4405 -3.2931  0.1595
    1SAPS  C218   75   1.167   3.572   9.243 -0.6081 -0.4171  0.2821
    1SAPS  H18R   76   1.203   3.676   9.259  0.2007 -0.1030 -2.9754
    1SAPS  H18S   77   1.059   3.577   9.265 -1.4658  0.6043 -3.4497
    1SAPS  C219   78   1.200   3.541   9.092 -0.4683  0.7572 -0.1650
    1SAPS  H19R   79   1.157   3.441   9.068  1.4498 -0.3510  0.7489
    1SAPS  H19S   80   1.311   3.540   9.088 -0.2035  4.4274  2.1292
    1SAPS  C220   81   1.139   3.644   9.003  0.1119  0.3353  0.2915
    1SAPS  H20R   82   1.146   3.624   8.894  1.1831  0.1380  0.3898
    1SAPS  H20S   83   1.183   3.745   9.016  1.1225 -0.0581 -0.0217
    1SAPS  H20T   84   1.034   3.660   9.035 -0.5921 -1.9795 -0.6685
    1SAPS   C33   85   0.429   3.693  10.172  1.1331 -1.0309  0.5512
    1SAPS   H3X   86   0.394   3.796  10.150 -0.4316 -1.1758  2.1165
    1SAPS   H3Y   87   0.345   3.638  10.126 -1.2864  2.7952 -0.0104
    1SAPS   C34   88   0.555   3.668  10.098  0.4399  0.7062  0.2410
    1SAPS   H4X   89   0.602   3.575  10.138 -2.3169 -0.3336  1.3736
    1SAPS   H4Y   90   0.633   3.747  10.099  2.2136 -0.8701 -2.1589
    1SAPS   C35   91   0.524   3.661   9.949 -0.2283  1.0015  0.0517
    1SAPS   H5X   92   0.467   3.752   9.921  2.0106  2.0055 -1.5529
    1SAPS   H5Y   93   0.459   3.572   9.938  0.3045  0.7083 -0.8607
    1SAPS   C36   94   0.638   3.669   9.861 -0.6025 -0.2778 -0.3988
    1SAPS   H6X   95   0.704   3.583   9.884 -1.0467 -0.3665  0.6068
    1SAPS   H6Y   96   0.702   3.759   9.877 -1.0064  0.4768 -2.6255
    1SAPS   C37   97   0.601   3.671   9.707  0.5002  0.5007 -0.4749
    1SAPS   H7X   98   0.538   3.759   9.682 -1.3134 -1.3293 -2.9975
    1SAPS   H7Y   99   0.539   3.581   9.683  0.1005  1.1101 -1.8269
    1SAPS   C38  100   0.721   3.663   9.617 -0.0206 -0.0706  0.1531
    1SAPS   H8X  101   0.761   3.560   9.624  0.1461  0.0987  2.3572
    1SAPS   H8Y  102   0.806   3.728   9.647 -1.6564  2.4443 -0.3214
    1SAPS   C39  103   0.677   3.691   9.468 -0.1896  0.0287 -0.2529
    1SAPS   H9X  104   0.588   3.631   9.439  0.3625 -1.2367  0.5589
    1SAPS   H9Y  105   0.751   3.638   9.403  0.7183 -2.2393  2.4302
    1SAPS  C310  106   0.653   3.838   9.427  0.3916 -0.2057 -0.0141
    1SAPS  H10X  107   0.749   3.894   9.426  0.4620 -0.2795  1.4635
    1SAPS  H10Y  108   0.584   3.890   9.496 -0.7310  0.4509 -1.5650
    1SAPS  C311  109   0.588   3.848   9.289 -0.0729  0.1030 -0.2742
    1SAPS  H11X  110   0.492   3.792   9.285  0.2823 -0.5910  0.4832
    1SAPS  H11Y  111   0.657   3.786   9.229  1.8273  1.8755 -0.0030
    1SAPS  C312  112   0.578   3.989   9.238 -0.3784 -0.6734 -0.4369
    1SAPS  H12X  113   0.678   4.037   9.242 -0.4830 -0.4352 -0.6490
    1SAPS  H12Y  114   0.509   4.047   9.303  0.5517  0.8663 -0.7794
    1SAPS  C313  115   0.551   3.994   9.085 -0.4099 -0.0845  0.4899
    1SAPS  H13X  116   0.557   4.099   9.052 -1.9123  0.4216  1.6888
    1SAPS  H13Y  117   0.450   3.948   9.073  0.3009 -1.2844 -1.2114
    1SAPS  C314  118   0.642   3.907   9.000 -0.3714 -0.0724  0.4952
    1SAPS  H14X  119   0.611   3.802   9.015 -1.2887 -0.0008 -0.7590
    1SAPS  H14Y  120   0.750   3.925   9.015  0.3583  0.4358 -3.9391
    1SAPS  C315  121   0.614   3.949   8.856  0.1498  0.5533  0.3377
    1SAPS  H15X  122   0.509   3.925   8.829  0.7313 -1.4598 -0.3489
    1SAPS  H15Y  123   0.676   3.880   8.795 -1.3781 -0.2177 -0.4096
    1SAPS  C316  124   0.648   4.089   8.806  0.3201 -0.2735 -0.2828
    1SAPS  H16X  125   0.730   4.130   8.869 -1.1637 -0.0823  1.6239
    1SAPS  H16Y  126   0.555   4.150   8.809  0.9967  0.7530  1.5232
    1SAPS  C317  127   0.688   4.093   8.660  0.5658  0.1381  0.5846
    1SAPS  H17X  128   0.602   4.042   8.611  0.9786 -1.2968  1.2946
    1SAPS  H17Y  129   0.782   4.038   8.641  1.3242  1.2452  1.0656
    1SAPS  C318  130   0.705   4.234   8.598 -0.4893 -0.2621 -0.3667
    1SAPS  H18X  131   0.805   4.273   8.628 -1.1580  0.3750  1.1574
    1SAPS  H18Y  132   0.634   4.311   8.637  0.8248  0.5655  0.4959
    1SAPS  H18Z  133   0.698   4.231   8.488  1.0014 -1.5633 -0.4537
    2SAPS     N  134   0.490   4.860  10.575  0.4155  0.0817 -0.9898
    2SAPS   HN1  135   0.505   4.757  10.584  2.2496  0.4656  1.6310
    2SAPS   HN2  136   0.442   4.882  10.486  0.9832  0.6342 -1.1630
    2SAPS   HN3  137   0.583   4.903  10.563  0.1907  0.6347 -0.7961
    2SAPS   C12  138   0.404   4.913  10.691  0.7430  0.7176 -0.0458
    2SAPS  H12A  139   0.464   4.905  10.780  2.7972  0.6558 -1.3726
    2SAPS   C13  140   0.369   5.060  10.675  0.0250  0.9829  0.0831
    2SAPS  O13A  141   0.416   5.117  10.580 -0.3461  0.1781  0.0501
    2SAPS  O13B  142   0.296   5.116  10.765  0.1240  0.1086  0.1708
    2SAPS   C11  143   0.276   4.824  10.712 -0.4656  0.1286  0.0887
    2SAPS  H11A  144   0.214   4.832  10.621  1.1709  1.9463 -0.9444
    2SAPS  H11B  145   0.226   4.871  10.799 -1.5455 -0.0123 -0.4521
    2SAPS     P  146   0.204   4.582  10.740 -0.1001  0.2598 -0.4196
    2SAPS   O13  147   0.253   4.474  10.828  0.4651 -0.1243 -0.2960
    2SAPS   O14  148   0.068   4.647  10.762  0.1447 -0.4089 -0.3766
    2SAPS   O12  149   0.323   4.690  10.744 -0.4030  0.2913  0.0975
    2SAPS   O11  150   0.205   4.523  10.593 -0.0234  0.4640  1.1310
    2SAPS    C1  151   0.145   4.592  10.489  0.5274  0.2011  0.0587
    2SAPS    HA  152   0.039   4.618  10.510  1.3075  1.8904  2.3338
    2SAPS    HB  153   0.196   4.689  10.468 -0.7749  0.7583 -0.6690
    2SAPS    C2  154   0.147   4.504  10.366  0.6182 -0.0195  0.8732
    2SAPS    HS  155   0.121   4.576  10.285  0.7141 -0.3393  0.5542
    2SAPS   O21  156   0.063   4.382  10.368 -0.5271  0.0454  0.6869
    2SAPS   C21  157  -0.063   4.406  10.334  0.3241  0.3515 -0.0360
    2SAPS   O22  158  -0.113   4.513  10.301 -0.0612  0.5328 -0.0573
    2SAPS   C22  159  -0.141   4.272  10.348  0.4972  0.1172 -0.3154
    2SAPS   H2R  160  -0.080   4.182  10.326 -0.9834 -0.5726 -1.7592
    2SAPS   H2S  161  -0.179   4.269  10.452 -0.5812  3.1886 -0.5014
    2SAPS    C3  162   0.293   4.465  10.326 -0.6722  0.3251  0.3568
    2SAPS    HX  163   0.306   4.365  10.373 -1.4693 -0.4869 -1.0616
    2SAPS    HY  164   0.350   4.550  10.368 -0.9396  1.1012 -0.8088
    2SAPS   O31  165   0.315   4.451  10.181 -0.5437  0.2448 -0.5331
    2SAPS   C31  166   0.288   4.333  10.127 -0.5505 -1.0049 -0.2138
    2SAPS   O32  167   0.273   4.227  10.184  0.6287 -0.0344 -0.5828
    2SAPS   C32  168   0.263   4.356   9.974 -0.7861 -0.3900 -0.8219
    2SAPS   H2X  169   0.361   4.388   9.933  0.3723 -0.2289  1.8463
    2SAPS   H2Y  170   0.193   4.442   9.970 -1.9096 -1.1711  0.9984
    2SAPS   C23  171  -0.266   4.264  10.252  0.5292 -0.3178 -0.5009
    2SAPS   H3R  172  -0.332   4.353  10.257  2.2244  0.9844 -0.0955
    2SAPS   H3S  173  -0.331   4.188  10.300 -0.5464  0.2840 -0.9837
    2SAPS   C24  174  -0.233   4.206  10.118 -0.1394  0.4136  0.0013
    2SAPS   H4R  175  -0.325   4.161  10.077 -0.7601  1.0459  0.6802
    2SAPS   H4S  176  -0.165   4.120  10.139 -1.7362 -0.4679  1.8604
    2SAPS   C25  177  -0.171   4.310  10.028 -0.5484  0.8947  0.0186
    2SAPS   H5R  178  -0.107   4.386  10.076  1.1038  0.2853 -1.1416
    2SAPS   C26  179  -0.198   4.343   9.899  0.4911 -0.0525  0.1930
    2SAPS   H6R  180  -0.141   4.414   9.838 -0.0908 -1.2349 -1.7825
    2SAPS   C27  181  -0.298   4.257   9.820  0.4444 -0.3480  0.0096
    2SAPS   H7R  182  -0.350   4.322   9.746  0.7317  0.2114  0.2906
    2SAPS   H7S  183  -0.376   4.215   9.887  0.6394  1.3596  1.3747
    2SAPS   C28  184  -0.213   4.145   9.751  1.1501  0.3325  1.2713
    2SAPS   H8R  185  -0.163   4.076   9.821  1.7629  2.1088  2.6795
    2SAPS   C29  186  -0.203   4.124   9.616  0.0440 -0.4564  0.6835
    2SAPS   H9R  187  -0.139   4.040   9.585 -0.2228 -0.1852 -0.6687
    2SAPS  C210  188  -0.260   4.210   9.502  0.1186  0.1197  0.3009
    2SAPS  H10R  189  -0.340   4.279   9.534  1.1144  1.6541 -0.3969
    2SAPS  H10S  190  -0.294   4.139   9.423 -0.2190 -0.0302  0.5753
    2SAPS  C211  191  -0.155   4.304   9.460 -0.2595 -0.3824 -0.7075
    2SAPS  H11R  192  -0.089   4.343   9.539 -1.0961  1.0138 -0.6553
    2SAPS  C212  193  -0.126   4.345   9.331 -0.3430 -0.0298  0.3291
    2SAPS  H12R  194  -0.044   4.416   9.314  0.8078 -1.3189  0.3199
    2SAPS  C213  195  -0.191   4.290   9.204  0.1982 -0.5098  0.5824
    2SAPS  H13R  196  -0.258   4.202   9.216  0.0140 -0.6423 -1.1914
    2SAPS  H13S  197  -0.108   4.248   9.144  0.1911  0.5431 -0.2004
    2SAPS  C214  198  -0.268   4.391   9.128  0.3987 -0.2137 -0.5516
    2SAPS  H14R  199  -0.362   4.424   9.173  0.3843 -1.3179  0.2673
    2SAPS  C215  200  -0.232   4.435   9.005  0.4765 -0.6035  0.5267
    2SAPS  H15R  201  -0.298   4.504   8.950  0.2125 -1.0418  0.2796
    2SAPS  C216  202  -0.114   4.402   8.919  0.1920 -0.3930 -0.2159
    2SAPS  H16R  203  -0.028   4.387   8.988 -0.8938  1.4223  1.6881
    2SAPS  H16S  204  -0.079   4.491   8.863 -0.5774 -0.4557 -0.8191
    2SAPS  C217  205  -0.137   4.282   8.833  0.0806  1.4159  0.4930
    2SAPS  H17R  206  -0.173   4.193   8.888 -0.2240 -0.0805 -1.9654
    2SAPS  H17S  207  -0.038   4.251   8.794  0.1402 -0.4465  1.9915
    2SAPS  C218  208  -0.237   4.309   8.720  0.0274 -0.3381  0.0506
    2SAPS  H18R  209  -0.209   4.405   8.673  1.0992 -0.1144  1.0922
    2SAPS  H18S  210  -0.333   4.314   8.775  1.4394  1.3518  2.5507
    2SAPS  C219  211  -0.235   4.193   8.618  0.5051  0.0759  0.3338
    2SAPS  H19R  212  -0.247   4.104   8.683  1.0307 -0.6462 -0.5241
    2SAPS  H19S  213  -0.133   4.186   8.575  1.2262  0.5062  1.9124
    2SAPS  C220  214  -0.338   4.214   8.515  0.0484  0.1062  0.0612
    2SAPS  H20R  215  -0.446   4.220   8.538 -0.5960  1.0536 -2.7429
    2SAPS  H20S  216  -0.337   4.138   8.434 -1.9707 -0.2954  0.3670
    2SAPS  H20T  217  -0.309   4.311   8.469 -0.3161 -0.5854 -1.7409
    2SAPS   C33  218   0.202   4.225   9.915 -0.1674  0.0332 -0.3446
    2SAPS   H3X  219   0.125   4.192   9.988  1.1607  0.4062  1.2670
    2SAPS   H3Y  220   0.277   4.144   9.928 -1.3157 -1.7945 -3.6901
    2SAPS   C34  221   0.144   4.242   9.772 -0.0831  0.5031  0.0834
    2SAPS   H4X  222   0.084   4.335   9.770 -0.9232 -0.0269  0.3197
    2SAPS   H4Y  223   0.083   4.152   9.750  1.4251 -0.8864  1.2487
    2SAPS   C35  224   0.257   4.256   9.658 -0.0201  0.2058 -0.7287
    2SAPS   H5X  225   0.333   4.178   9.683 -0.1269  0.0062 -1.0151
    2SAPS   H5Y  226   0.305   4.356   9.662  1.2659 -0.4189  0.6750
    2SAPS   C36  227   0.205   4.249   9.513  0.0916 -0.5958 -0.0059
    2SAPS   H6X  228   0.139   4.337   9.498  1.6165  0.3990 -1.0938
    2SAPS   H6Y  229   0.152   4.154   9.493 -0.5929 -1.5005  4.7840
    2SAPS   C37  230   0.321   4.268   9.413  0.4630 -0.5685 -0.4451
    2SAPS   H7X  231   0.375   4.171   9.424  1.1111 -0.0435  1.4640
    2SAPS   H7Y  232   0.386   4.346   9.459 -1.7643 -0.1883  2.2999
    2SAPS   C38  233   0.288   4.311   9.278  0.3185  0.3488 -0.0572
    2SAPS   H8X  234   0.208   4.389   9.279 -0.3654 -0.1658 -3.4635
    2SAPS   H8Y  235   0.251   4.233   9.209  1.1915 -1.2714  1.2447
    2SAPS   C39  236   0.408   4.375   9.205 -0.2035  0.2005 -0.2000
    2SAPS   H9X  237   0.495   4.306   9.204  1.6225  2.3918  0.8847
    2SAPS   H9Y  238   0.450   4.465   9.254  0.2435  1.8566 -3.3723
    2SAPS  C310  239   0.373   4.419   9.068 -0.2513  0.2731 -0.0128
    2SAPS  H10X  240   0.268   4.455   9.067  0.2188  1.6792 -0.5604
    2SAPS  H10Y  241   0.382   4.339   8.991  1.8851 -0.4040  0.8616
    2SAPS  C311  242   0.474   4.518   9.018  0.5311 -0.5317  0.2997
    2SAPS  H11X  243   0.571   4.464   9.019 -0.2227 -1.9140  1.9010
    2SAPS  H11Y  244   0.485   4.606   9.085 -0.8613 -0.7324  0.8112
    2SAPS  C312  245   0.448   4.579   8.879 -0.6380  0.9278  0.3450
    2SAPS  H12X  246   0.514   4.668   8.873  0.0137  0.3905 -0.8278
    2SAPS  H12Y  247   0.347   4.625   8.865 -1.1193  0.0065  0.6949
    2SAPS  C313  248   0.492   4.496   8.758 -0.7820  0.3205  0.3324
    2SAPS  H13X  249   0.437   4.399   8.752 -1.4450  0.5945  1.5648
    2SAPS  H13Y  250   0.600   4.480   8.779 -0.1706  2.5097 -0.9040
    2SAPS  C314  251   0.476   4.571   8.624 -0.4262 -0.0342  0.3730
    2SAPS  H14X  252   0.535   4.515   8.549  0.8828  0.5924  0.9056
    2SAPS  H14Y  253   0.533   4.666   8.634  1.0102 -0.7130 -0.8317
    2SAPS  C315  254   0.334   4.594   8.580  0.0315  0.4929 -0.0388
    2SAPS  H15X  255   0.343   4.645   8.482 -1.2413 -1.3006 -1.1504
    2SAPS  H15Y  256   0.262   4.651   8.643 -0.8490  3.0200 -3.0690
    2SAPS  C316  257   0.254   4.463   8.544 -0.4033  0.2701 -0.2955
    2SAPS  H16X  258   0.232   4.402   8.635  0.5076 -1.5541 -1.2428
    2SAPS  H16Y  259   0.328   4.400   8.491 -0.6426 -0.5846  0.3574
    2SAPS  C317  260   0.130   4.478   8.454  0.1382  0.2559  0.3425
    2SAPS  H17X  261   0.087   4.377   8.435 -0.0317  0.1516  1.2151
    2SAPS  H17Y  262   0.160   4.522   8.357 -1.7994 -0.6323 -0.7275
    2SAPS  C318  263   0.018   4.565   8.517  0.3027  0.1624 -0.0910
    2SAPS  H18X  264   0.066   4.663   8.538  0.2850  0.2597 -0.4891
    2SAPS  H18Y  265  -0.007   4.526   8.618 -1.6841  0.6384 -0.3616
    2SAPS  H18Z  266  -0.067   4.564   8.445  0.5536 -0.2633 -0.3865
    3SAPS     N  267   5.925   5.763  10.693  0.8674  0.2184  0.1474
    3SAPS   HN1  268   5.974   5.706  10.622  1.0352  1.5168 -0.8076
    3SAPS   HN2  269   5.825   5.780  10.668  1.8777  1.8923 -3.2826
    3SAPS   HN3  270   5.982   5.847  10.712  2.6784 -1.2388  1.5616
    3SAPS   C12  271   5.930   5.681  10.817 -0.1479 -0.9364  0.0021
    3SAPS  H12A  272   6.034   5.662  10.838  0.3961 -0.3973 -2.0024
    3SAPS   C13  273   5.879   5.760  10.938  0.4473 -0.1883  0.5794
    3SAPS  O13A  274   5.828   5.874  10.930  0.2932 -0.1828  0.3580
    3SAPS  O13B  275   5.861   5.688  11.037  0.1397 -0.2375 -0.7952
    3SAPS   C11  276   5.869   5.548  10.787  0.5948  0.2288  0.0312
    3SAPS  H11A  277   5.761   5.553  10.759  0.5838  0.0518  0.0404
    3SAPS  H11B  278   5.869   5.483  10.877 -0.7248 -0.6447 -0.5666
    3SAPS     P  279   6.079   5.395  10.715 -0.1302 -0.2981  0.0820
    3SAPS   O13  280   6.203   5.474  10.688  0.3080 -0.5044  0.2364
    3SAPS   O14  281   6.058   5.329  10.849 -0.0974  0.0360  0.4140
    3SAPS   O12  282   5.948   5.482  10.687  0.4438 -0.0581 -0.4007
    3SAPS   O11  283   6.082   5.276  10.610  0.4343  0.2208 -0.4671
    3SAPS    C1  284   5.956   5.229  10.551 -1.1554  0.0431 -0.6555
    3SAPS    HA  285   5.959   5.119  10.540  1.2298 -0.0821  0.6574
    3SAPS    HB  286   5.868   5.242  10.617 -0.1982  1.0167  0.4617
    3SAPS    C2  287   5.939   5.280  10.411 -0.2880  0.4558 -0.1141
    3SAPS    HS  288   5.898   5.201  10.345  0.2121  0.1895 -0.1132
    3SAPS   O21  289   6.068   5.320  10.355 -0.1170  0.3704  0.0535
    3SAPS   C21  290   6.148   5.210  10.323  0.1990 -0.4904  0.0417
    3SAPS   O22  291   6.105   5.095  10.312 -0.3846  0.3200 -0.1728
    3SAPS   C22  292   6.290   5.260  10.300 -0.3946  1.2096 -0.2176
    3SAPS   H2R  293   6.299   5.352  10.238  0.8094 -1.1458 -3.8196
    3SAPS   H2S  294   6.318   5.290  10.403  0.4713 -0.8680  0.1935
    3SAPS    C3  295   5.848   5.403  10.405 -0.0538  0.1951  1.1099
    3SAPS    HX  296   5.898   5.494  10.445 -1.1330  1.7371 -0.8099
    3SAPS    HY  297   5.762   5.397  10.475 -0.4784  0.5082  0.6234
    3SAPS   O31  298   5.789   5.427  10.279 -0.0043 -0.0230 -0.0207
    3SAPS   C31  299   5.864   5.501  10.190 -0.0263 -0.3300 -0.2397
    3SAPS   O32  300   5.969   5.559  10.218 -0.7256 -0.2571  0.1123
    3SAPS   C32  301   5.792   5.504  10.053  0.0642  0.7527  0.2154
    3SAPS   H2X  302   5.743   5.603  10.038 -1.5465  0.2068  1.5419
    3SAPS   H2Y  303   5.718   5.423  10.067  0.4834 -0.0365 -1.7787
    3SAPS   C23  304   6.375   5.139  10.250 -0.4082 -0.5946 -0.3413
    3SAPS   H3R  305   6.353   5.032  10.271  0.2431 -0.9351 -1.3333
    3SAPS   H3S  306   6.471   5.148  10.305 -0.1299 -2.0049 -0.5672
    3SAPS   C24  307   6.388   5.143  10.099 -0.5328 -0.0140  0.5318
    3SAPS   H4R  308   6.474   5.083  10.061 -0.2856  1.3494 -1.1892
    3SAPS   H4S  309   6.427   5.246  10.082 -0.2252  0.0752  1.6779
    3SAPS   C25  310   6.262   5.113  10.038 -0.1482  0.5362 -0.2499
    3SAPS   H5R  311   6.221   5.015  10.066 -2.1092  1.5290  0.5520
    3SAPS   C26  312   6.190   5.193   9.962 -0.1357 -0.2588 -0.2208
    3SAPS   H6R  313   6.098   5.152   9.918  1.1488 -1.9080 -1.5339
    3SAPS   C27  314   6.225   5.337   9.913  0.0386  0.0335  0.2490
    3SAPS   H7R  315   6.218   5.400  10.004 -0.5924  0.7160 -0.2610
    3SAPS   H7S  316   6.142   5.376   9.849  0.4979  3.4761  1.5461
    3SAPS   C28  317   6.354   5.351   9.836 -0.1558  0.2255 -0.3489
    3SAPS   H8R  318   6.446   5.354   9.897 -0.6315 -2.0563  0.5524
    3SAPS   C29  319   6.366   5.336   9.703  0.5345 -0.5027 -0.5672
    3SAPS   H9R  320   6.462   5.358   9.653  0.9677  0.9417  0.8096
    3SAPS  C210  321   6.258   5.305   9.609  0.5897 -0.3090  0.8338
    3SAPS  H10R  322   6.164   5.274   9.659 -0.4864 -1.1544 -1.5872
    3SAPS  H10S  323   6.283   5.207   9.564  1.9186  1.0301 -1.5993
    3SAPS  C211  324   6.217   5.402   9.499  0.0865  0.2744  0.4858
    3SAPS  H11R  325   6.150   5.484   9.529 -2.9275 -1.5931 -0.6861
    3SAPS  C212  326   6.247   5.392   9.372  0.5556 -0.3360 -0.0299
    3SAPS  H12R  327   6.212   5.471   9.304 -0.2689 -0.8868 -0.2588
    3SAPS  C213  328   6.324   5.284   9.302 -0.1713 -0.5072  0.9531
    3SAPS  H13R  329   6.310   5.297   9.193  0.9220 -0.6592  0.7840
    3SAPS  H13S  330   6.282   5.182   9.308  1.6052 -1.2845  0.7828
    3SAPS  C214  331   6.469   5.294   9.344 -0.1708 -0.3318  0.4184
    3SAPS  H14R  332   6.502   5.397   9.367 -0.7612 -0.1746  0.5639
    3SAPS  C215  333   6.551   5.188   9.363 -0.4687 -0.1855 -0.4493
    3SAPS  H15R  334   6.647   5.203   9.415 -0.4244 -1.4054 -0.1478
    3SAPS  C216  335   6.531   5.043   9.331 -0.4662  0.7171  0.1303
    3SAPS  H16R  336   6.422   5.026   9.345 -0.7450  1.2492 -1.2466
    3SAPS  H16S  337   6.596   4.980   9.396  0.6410  3.6051  2.0544
    3SAPS  C217  338   6.558   5.013   9.184 -0.5057 -0.4423  0.0694
    3SAPS  H17R  339   6.665   5.037   9.170 -1.3985  2.6304 -2.6785
    3SAPS  H17S  340   6.499   5.086   9.124 -0.6530  1.2118  2.1044
    3SAPS  C218  341   6.526   4.869   9.137  0.0090 -0.0189  0.2491
    3SAPS  H18R  342   6.505   4.812   9.230 -0.2071 -3.5963 -1.8047
    3SAPS  H18S  343   6.614   4.813   9.098  1.4903  1.1567  1.7255
    3SAPS  C219  344   6.409   4.865   9.039 -0.0364 -0.4324  0.0606
    3SAPS  H19R  345   6.323   4.919   9.082  0.6026  1.3859 -0.8709
    3SAPS  H19S  346   6.393   4.758   9.012  2.6337 -0.5638 -1.3623
    3SAPS  C220  347   6.461   4.930   8.914  0.1327 -0.0850  0.4189
    3SAPS  H20R  348   6.374   4.946   8.846 -0.0289  0.5870  0.7797
    3SAPS  H20S  349   6.539   4.876   8.855 -1.2658 -0.3638 -1.2789
    3SAPS  H20T  350   6.507   5.027   8.942 -0.8161 -0.1192  2.2144
    3SAPS   C33  351   5.879   5.468   9.929  0.3831 -0.2350 -0.0198
    3SAPS   H3X  352   5.940   5.377   9.951 -1.8758 -1.7163  0.5257
    3SAPS   H3Y  353   5.953   5.550   9.915 -0.3371  0.5048  0.4749
    3SAPS   C34  354   5.791   5.456   9.804 -0.5127 -0.1880 -0.7740
    3SAPS   H4X  355   5.735   5.550   9.789 -0.8011 -0.6441 -2.8141
    3SAPS   H4Y  356   5.721   5.373   9.829 -1.3117  0.4721 -0.7920
    3SAPS   C35  357   5.875   5.425   9.684  0.5563  0.1363 -0.3562
    3SAPS   H5X  358   5.886   5.317   9.664  0.7575  0.2405 -0.8167
    3SAPS   H5Y  359   5.976   5.470   9.696  1.7237 -2.8518  2.4285
    3SAPS   C36  360   5.799   5.473   9.562  0.0421  0.0467  0.9113
    3SAPS   H6X  361   5.761   5.578   9.563  0.7992  0.3318  2.8460
    3SAPS   H6Y  362   5.711   5.407   9.548  0.6952 -0.6956  0.1908
    3SAPS   C37  363   5.884   5.482   9.435 -0.1985 -0.0468  0.4093
    3SAPS   H7X  364   5.943   5.388   9.432 -2.1211 -1.2892 -0.6868
    3SAPS   H7Y  365   5.967   5.556   9.448  1.1483 -1.7291  1.8389
    3SAPS   C38  366   5.808   5.501   9.303 -0.2016 -0.6927 -0.1149
    3SAPS   H8X  367   5.746   5.592   9.321  0.5156 -0.6664  2.6493
    3SAPS   H8Y  368   5.745   5.412   9.284  2.2920 -2.6265  0.2012
    3SAPS   C39  369   5.900   5.522   9.180 -0.1393 -0.6995  0.4137
    3SAPS   H9X  370   5.945   5.425   9.150  1.6709  0.5624 -1.2307
    3SAPS   H9Y  371   5.975   5.600   9.207 -1.4196  1.3983 -1.7203
    3SAPS  C310  372   5.814   5.591   9.071  0.3768  0.5537 -0.1763
    3SAPS  H10X  373   5.756   5.680   9.106  0.8936 -0.1076  2.5534
    3SAPS  H10Y  374   5.739   5.518   9.034 -0.8841  2.6087 -1.9272
    3SAPS  C311  375   5.881   5.623   8.938 -0.2384 -0.5001 -0.1982
    3SAPS  H11X  376   5.937   5.718   8.950  0.1342 -0.7248 -0.1503
    3SAPS  H11Y  377   5.797   5.634   8.865  0.4960  1.1494 -0.8360
    3SAPS  C312  378   5.974   5.513   8.885 -0.3377 -0.4221  0.9770
    3SAPS  H12X  379   5.926   5.415   8.905  0.3763 -1.1324 -0.6691
    3SAPS  H12Y  380   6.065   5.529   8.946 -0.0639 -0.1945  0.5124
    3SAPS  C313  381   6.004   5.520   8.733 -0.4719  0.5234 -0.1924
    3SAPS  H13X  382   6.072   5.435   8.712 -0.3646  0.1879  1.3896
    3SAPS  H13Y  383   6.060   5.614   8.714  1.8800 -0.7549 -0.0374
    3SAPS  C314  384   5.877   5.500   8.646  0.3302  0.0078 -0.0211
    3SAPS  H14X  385   5.794   5.572   8.660 -0.8782 -1.1068 -1.3036
    3SAPS  H14Y  386   5.828   5.402   8.660 -0.2469  0.4499  1.1950
    3SAPS  C315  387   5.924   5.509   8.502  0.6358 -0.1703  0.0333
    3SAPS  H15X  388   6.017   5.450   8.486 -0.0148 -1.2050 -0.0560
    3SAPS  H15Y  389   5.955   5.614   8.484 -0.5839 -0.2489 -3.2299
    3SAPS  C316  390   5.808   5.472   8.411  0.2887 -0.1794 -0.0420
    3SAPS  H16X  391   5.725   5.545   8.423  0.5779  0.3377 -1.1060
    3SAPS  H16Y  392   5.765   5.376   8.446 -4.2142  1.2914 -0.9091
    3SAPS  C317  393   5.841   5.473   8.260  0.3813 -0.5434  0.6941
    3SAPS  H17X  394   5.745   5.445   8.212  1.0865 -0.6746 -0.6766
    3SAPS  H17Y  395   5.911   5.391   8.237 -0.6019 -0.8762 -1.3016
    3SAPS  C318  396   5.890   5.608   8.211  0.9288  0.7549  0.1192
    3SAPS  H18X  397   5.994   5.627   8.247  1.2470 -2.8362  1.4960
    3SAPS  H18Y  398   5.825   5.690   8.247  0.2336 -0.0384  0.7061
    3SAPS  H18Z  399   5.911   5.598   8.103  2.8017 -0.4303  0.5391
    4SAPS     N  400   2.816   0.167  10.795 -0.3447 -0.4407 -0.6203
    4SAPS   HN1  401   2.908   0.212  10.779  0.2432 -0.7562  1.5658
    4SAPS   HN2  402   2.737   0.204  10.738 -1.1482  0.7363  1.1570
    4SAPS   HN3  403   2.795   0.205  10.890 -1.5494  0.4196 -1.2076
    4SAPS   C12  404   2.832   0.025  10.812  0.5809  0.5015  0.5365
    4SAPS  H12A  405   2.853  -0.015  10.714 -3.2881 -1.8605  0.4630
    4SAPS   C13  406   2.962  -0.035  10.889  0.1798 -0.0002 -0.3410
    4SAPS  O13A  407   3.042   0.050  10.938  0.4166  0.6863  0.5012
    4SAPS  O13B  408   2.982  -0.159  10.900  0.3061  0.0461 -0.8474
    4SAPS   C11  409   2.702  -0.037  10.869 -0.0559  0.6538  0.3189
    4SAPS  H11A  410   2.666  -0.007  10.969 -1.2831 -1.8545  0.7111
    4SAPS  H11B  411   2.728  -0.145  10.880 -0.2236  0.6943  1.1451
    4SAPS     P  412   2.591  -0.092  10.634 -0.0597 -0.4529  0.2138
    4SAPS   O13  413   2.657  -0.001  10.535 -0.0747  0.0895  0.2421
    4SAPS   O14  414   2.645  -0.234  10.641 -0.3746 -0.6312  0.1450
    4SAPS   O12  415   2.589  -0.025  10.777 -0.0528 -0.0829  0.0681
    4SAPS   O11  416   2.437  -0.106  10.608  0.0311  0.3051 -0.0816
    4SAPS    C1  417   2.355   0.013  10.584 -0.1155  0.7813 -0.5147
    4SAPS    HA  418   2.278   0.018  10.664  0.6649 -0.1953  0.3158
    4SAPS    HB  419   2.418   0.104  10.593  1.4024 -0.2480 -0.5030
    4SAPS    C2  420   2.283   0.012  10.453 -0.3669 -0.4476 -0.2020
    4SAPS    HS  421   2.197   0.081  10.465 -0.8724 -1.2794  1.1941
    4SAPS   O21  422   2.224  -0.116  10.419  0.6068 -0.4860 -0.5318
    4SAPS   C21  423   2.126  -0.161  10.489 -0.7492 -0.5540  0.2254
    4SAPS   O22  424   2.084  -0.098  10.588 -0.0955 -0.1103 -0.2371
    4SAPS   C22  425   2.085  -0.303  10.454 -0.2181  0.3902 -0.0150
    4SAPS   H2R  426   2.168  -0.366  10.415  0.7408  0.8246  1.2539
    4SAPS   H2S  427   2.059  -0.349  10.552 -0.7175 -2.1396 -1.2666
    4SAPS    C3  428   2.387   0.059  10.340  0.2056  0.0382  0.2199
    4SAPS    HX  429   2.481  -0.001  10.339  0.4858  0.4447 -1.3122
    4SAPS    HY  430   2.422   0.162  10.364  2.2424 -1.0686  2.3785
    4SAPS   O31  431   2.334   0.061  10.201 -0.5837 -0.4871 -0.3359
    4SAPS   C31  432   2.327  -0.058  10.143  0.6530 -0.5807  0.5871
    4SAPS   O32  433   2.362  -0.162  10.191 -0.4883  0.4671  0.0045
    4SAPS   C32  434   2.252  -0.038  10.010  0.6483  0.0396 -0.0268
    4SAPS   H2X  435   2.236   0.070   9.986  1.0432 -0.0794 -0.8422
    4SAPS   H2Y  436   2.150  -0.080  10.022  0.8453 -0.1309  1.1886
    4SAPS   C23  437   1.960  -0.284  10.364  0.2235  0.2002  0.4963
    4SAPS   H3R  438   1.882  -0.224  10.417  2.7632  2.1327  2.3003
    4SAPS   H3S  439   1.920  -0.388  10.367  2.0575 -0.6510 -1.9995
    4SAPS   C24  440   1.974  -0.260  10.215  0.0640  0.2752 -0.5908
    4SAPS   H4R  441   2.028  -0.163  10.206 -0.1560  0.7558  2.3640
    4SAPS   H4S  442   1.878  -0.232  10.168 -0.3683 -2.2670 -1.3839
    4SAPS   C25  443   2.049  -0.369  10.145 -0.8735  0.9398  0.4757
    4SAPS   H5R  444   2.158  -0.354  10.150 -0.4058 -2.2556  2.8662
    4SAPS   C26  445   1.993  -0.481  10.083  0.3313 -0.6693 -0.3870
    4SAPS   H6R  446   2.057  -0.556  10.034 -0.9387 -0.5238 -2.4028
    4SAPS   C27  447   1.844  -0.499  10.080  0.1311  0.4487 -0.4166
    4SAPS   H7R  448   1.808  -0.488  10.185  0.0153  0.1570 -0.4269
    4SAPS   H7S  449   1.824  -0.607  10.074  1.1638  0.2004  0.2108
    4SAPS   C28  450   1.760  -0.404   9.989  0.9408 -0.6164  0.6974
    4SAPS   H8R  451   1.706  -0.327  10.046  1.7262 -0.5511  1.3702
    4SAPS   C29  452   1.737  -0.416   9.856  0.1981  0.0875  0.5886
    4SAPS   H9R  453   1.674  -0.349   9.796  0.6321 -2.5632 -3.2180
    4SAPS  C210  454   1.792  -0.536   9.775  1.1358 -0.3416  0.1374
    4SAPS  H10R  455   1.708  -0.596   9.735  1.6365  0.0705 -1.6246
    4SAPS  H10S  456   1.818  -0.615   9.849 -2.3384 -2.5837 -0.8104
    4SAPS  C211  457   1.901  -0.488   9.676  0.2377 -0.2731 -0.3781
    4SAPS  H11R  458   1.998  -0.461   9.720  0.9394 -0.7778 -1.5616
    4SAPS  C212  459   1.890  -0.482   9.540  0.1509 -0.6236 -0.2364
    4SAPS  H12R  460   1.973  -0.440   9.480  0.4641  0.7619  1.1234
    4SAPS  C213  461   1.768  -0.501   9.450  0.7460 -0.5301  0.3667
    4SAPS  H13R  462   1.750  -0.414   9.384 -0.1955 -1.0872 -0.1271
    4SAPS  H13S  463   1.674  -0.503   9.510  0.0176  1.0562 -0.6768
    4SAPS  C214  464   1.783  -0.617   9.362 -0.4914 -0.1201  0.8927
    4SAPS  H14R  465   1.773  -0.717   9.408  2.7291 -1.1441 -0.3205
    4SAPS  C215  466   1.794  -0.615   9.229  0.1686  0.7559 -0.0359
    4SAPS  H15R  467   1.805  -0.711   9.177  0.5133  0.4877  0.5230
    4SAPS  C216  468   1.802  -0.495   9.139  0.2451 -0.7090  0.0080
    4SAPS  H16R  469   1.906  -0.464   9.115  1.2842 -1.6167  2.9083
    4SAPS  H16S  470   1.754  -0.406   9.183  1.8829  0.4004 -0.3723
    4SAPS  C217  471   1.715  -0.522   9.011 -0.1243  0.1577  0.5430
    4SAPS  H17R  472   1.648  -0.435   8.997 -0.8945 -0.4127  0.6554
    4SAPS  H17S  473   1.643  -0.602   9.036  1.1031 -0.7196  1.4492
    4SAPS  C218  474   1.791  -0.564   8.894 -0.4595  0.2059  0.7087
    4SAPS  H18R  475   1.867  -0.630   8.943  1.4018  1.7534  0.0344
    4SAPS  H18S  476   1.848  -0.485   8.841 -2.0765  1.7567  1.2327
    4SAPS  C219  477   1.713  -0.651   8.793  0.9143 -0.2758  0.7721
    4SAPS  H19R  478   1.658  -0.725   8.855 -0.4375  0.7430  0.8352
    4SAPS  H19S  479   1.768  -0.704   8.712 -1.7604 -0.6439 -0.9574
    4SAPS  C220  480   1.602  -0.563   8.721  0.0771 -0.0149  0.2467
    4SAPS  H20R  481   1.524  -0.527   8.792 -3.2212 -3.5140 -1.2506
    4SAPS  H20S  482   1.542  -0.627   8.653  0.6532  0.5239 -0.7945
    4SAPS  H20T  483   1.642  -0.473   8.669 -3.1683  1.1652 -0.4400
    4SAPS   C33  484   2.320  -0.122   9.892 -0.3239 -0.0715 -0.1723
    4SAPS   H3X  485   2.309  -0.231   9.906 -1.4833 -0.1411 -1.3694
    4SAPS   H3Y  486   2.430  -0.109   9.902 -0.4570  0.2736  0.9371
    4SAPS   C34  487   2.286  -0.085   9.747 -0.0532  0.1182  0.1903
    4SAPS   H4X  488   2.371  -0.097   9.676 -1.6977 -4.1713 -1.3654
    4SAPS   H4Y  489   2.242   0.017   9.742 -1.3573 -0.4506 -0.9325
    4SAPS   C35  490   2.167  -0.174   9.690 -0.4712  0.7970  0.2012
    4SAPS   H5X  491   2.088  -0.185   9.767  2.3442  1.0153  3.4024
    4SAPS   H5Y  492   2.212  -0.275   9.681  0.9100  1.4590 -0.7547
    4SAPS   C36  493   2.115  -0.142   9.554  0.0589 -0.4721  0.3640
    4SAPS   H6X  494   2.085  -0.036   9.546 -1.6616 -0.8560  1.2092
    4SAPS   H6Y  495   2.027  -0.208   9.534 -0.0271  0.2015 -1.6996
    4SAPS   C37  496   2.222  -0.164   9.448 -0.7081 -0.4066  0.0906
    4SAPS   H7X  497   2.296  -0.239   9.485  1.3422  1.3386 -0.2875
    4SAPS   H7Y  498   2.278  -0.069   9.438  2.2299 -2.1128 -1.0082
    4SAPS   C38  499   2.159  -0.210   9.316  0.3707 -0.1570  0.0171
    4SAPS   H8X  500   2.088  -0.133   9.277  0.5443 -1.0734 -2.2617
    4SAPS   H8Y  501   2.114  -0.310   9.335  2.1353 -1.3491 -1.6846
    4SAPS   C39  502   2.271  -0.233   9.209  0.3026  0.1448 -0.8322
    4SAPS   H9X  503   2.353  -0.305   9.230  1.9540  1.8742 -1.1023
    4SAPS   H9Y  504   2.325  -0.136   9.205  3.1598 -1.0317  3.2849
    4SAPS  C310  505   2.217  -0.266   9.073  0.0117  0.0397  0.1893
    4SAPS  H10X  506   2.152  -0.184   9.035  1.6423  1.0488 -0.5812
    4SAPS  H10Y  507   2.169  -0.366   9.072 -0.5387  0.3003 -0.6310
    4SAPS  C311  508   2.327  -0.283   8.964  0.3448  0.0339  0.0370
    4SAPS  H11X  509   2.400  -0.356   9.006  0.5062  0.3819  0.3678
    4SAPS  H11Y  510   2.387  -0.190   8.958  0.6423 -0.2449 -2.0137
    4SAPS  C312  511   2.281  -0.310   8.820  0.6154 -0.3995 -0.3116
    4SAPS  H12X  512   2.371  -0.342   8.763  0.4527 -1.5791  0.0609
    4SAPS  H12Y  513   2.252  -0.210   8.780  0.4353 -0.3485 -0.0579
    4SAPS  C313  514   2.168  -0.417   8.807 -0.2250  0.1494  0.8218
    4SAPS  H13X  515   2.084  -0.363   8.856 -0.2874  0.4366  0.4034
    4SAPS  H13Y  516   2.187  -0.505   8.872 -1.0092  0.1394  1.0498
    4SAPS  C314  517   2.142  -0.471   8.666  0.8452  0.3123 -0.1912
    4SAPS  H14X  518   2.080  -0.563   8.668  1.0797  0.1432  1.7951
    4SAPS  H14Y  519   2.242  -0.487   8.620 -0.0745 -0.5158 -2.0234
    4SAPS  C315  520   2.071  -0.377   8.562  0.7719 -0.0774 -0.1221
    4SAPS  H15X  521   2.107  -0.275   8.585 -1.7142  0.4369  2.0150
    4SAPS  H15Y  522   1.965  -0.377   8.596  0.7589 -1.1433 -0.1351
    4SAPS  C316  523   2.090  -0.426   8.419 -0.0205 -0.3587  0.0559
    4SAPS  H16X  524   2.075  -0.536   8.413  0.7802 -0.7577  3.3797
    4SAPS  H16Y  525   2.191  -0.394   8.386 -0.1667 -0.6271 -0.6591
    4SAPS  C317  526   1.996  -0.362   8.323 -0.1641  0.0041 -0.1413
    4SAPS  H17X  527   1.996  -0.253   8.347  0.9393  0.1534 -0.7436
    4SAPS  H17Y  528   1.893  -0.396   8.347 -0.2031  1.5045  2.1612
    4SAPS  C318  529   2.037  -0.397   8.181  0.2723 -0.4165  1.1158
    4SAPS  H18X  530   1.982  -0.331   8.111  1.2519 -0.3461  0.3874
    4SAPS  H18Y  531   2.028  -0.508   8.174  2.0607 -0.5254 -0.3335
    4SAPS  H18Z  532   2.144  -0.379   8.156  0.0143 -1.8838 -1.4178
    5SAPS     N  533   0.135   5.472  10.994  0.1586  0.1626  0.7667
    5SAPS   HN1  534   0.216   5.408  10.997  2.0804  2.4360  0.6998
    5SAPS   HN2  535   0.173   5.550  10.936  0.7962 -1.3565 -0.9383
    5SAPS   HN3  536   0.111   5.509  11.088 -2.2488 -0.6682  0.5523
    5SAPS   C12  537   0.029   5.401  10.921  0.5980 -0.1044 -0.2663
    5SAPS  H12A  538   0.073   5.357  10.833 -2.9258  1.0745 -2.8409
    5SAPS   C13  539  -0.045   5.295  11.009 -0.3330 -0.4643 -0.3032
    5SAPS  O13A  540  -0.012   5.292  11.136 -0.5845  0.7581  0.1734
    5SAPS  O13B  541  -0.128   5.210  10.967 -0.2323  0.3083  0.3567
    5SAPS   C11  542  -0.070   5.506  10.847  0.4671  0.3522 -0.0749
    5SAPS  H11A  543  -0.104   5.577  10.926  1.4852  0.4073  0.3328
    5SAPS  H11B  544  -0.155   5.448  10.806  1.7529  0.3243 -2.9159
    5SAPS     P  545   0.040   5.537  10.603 -0.0921  0.0176  0.2374
    5SAPS   O13  546   0.099   5.665  10.545 -1.2421 -0.2057 -0.4473
    5SAPS   O14  547   0.135   5.426  10.621 -0.4459  0.5262  0.0184
    5SAPS   O12  548  -0.005   5.587  10.745  0.5352  0.5819  0.1026
    5SAPS   O11  549  -0.081   5.483  10.510 -0.4330  0.7876  0.3350
    5SAPS    C1  550  -0.216   5.533  10.522  0.2537  0.5371  0.2665
    5SAPS    HA  551  -0.275   5.449  10.564  0.7583 -0.4166 -0.8570
    5SAPS    HB  552  -0.226   5.621  10.588  2.1786  0.5962  0.5404
    5SAPS    C2  553  -0.282   5.569  10.386  0.3498 -0.3374 -0.6614
    5SAPS    HS  554  -0.311   5.475  10.333 -1.9337 -0.6086  0.9394
    5SAPS   O21  555  -0.188   5.645  10.316  0.6106 -0.4230  0.1811
    5SAPS   C21  556  -0.136   5.599  10.206 -0.4530 -0.6046  0.4057
    5SAPS   O22  557  -0.143   5.488  10.160  0.8722 -0.1214 -0.3072
    5SAPS   C22  558  -0.072   5.713  10.132 -0.6075  0.0298  0.1336
    5SAPS   H2R  559  -0.116   5.804  10.178 -2.2032 -1.1449  1.0506
    5SAPS   H2S  560   0.039   5.706  10.139 -0.4566  0.2829 -1.5877
    5SAPS    C3  561  -0.427   5.641  10.409 -0.4496  0.4314 -0.8685
    5SAPS    HX  562  -0.414   5.740  10.459 -2.6149  0.1842  0.2771
    5SAPS    HY  563  -0.477   5.575  10.483  0.9552  1.0813  0.7329
    5SAPS   O31  564  -0.505   5.645  10.292 -0.4546 -0.8898  0.3652
    5SAPS   C31  565  -0.483   5.746  10.215 -0.6505 -0.0353 -0.7509
    5SAPS   O32  566  -0.405   5.843  10.237  0.1292  0.5396  0.1951
    5SAPS   C32  567  -0.572   5.730  10.098  0.9860  0.2291  0.0842
    5SAPS   H2X  568  -0.676   5.720  10.136  0.9722  2.1881  0.7049
    5SAPS   H2Y  569  -0.546   5.638  10.043  1.3863 -0.1508  0.8851
    5SAPS   C23  570  -0.100   5.721   9.987 -0.6640  0.2938  0.0409
    5SAPS   H3R  571  -0.209   5.741   9.978 -0.7635 -0.7953 -1.4302
    5SAPS   H3S  572  -0.073   5.628   9.934  0.6693  0.9363 -0.4588
    5SAPS   C24  573  -0.033   5.844   9.921 -0.0274  0.3191  0.6205
    5SAPS   H4R  574   0.070   5.846   9.962  1.0831 -0.1611 -1.9789
    5SAPS   H4S  575  -0.081   5.938   9.953 -0.7546  0.0015  0.4884
    5SAPS   C25  576  -0.002   5.817   9.773 -0.0305 -0.0142 -0.5848
    5SAPS   H5R  577   0.043   5.717   9.768  1.7306  0.6530  0.7686
    5SAPS   C26  578  -0.027   5.893   9.666 -0.7280 -0.0259 -0.0329
    5SAPS   H6R  579   0.015   5.864   9.568  2.2997 -2.1949  1.7325
    5SAPS   C27  580  -0.079   6.033   9.675  0.2445 -0.0355 -0.2414
    5SAPS   H7R  581  -0.165   6.034   9.745 -1.6004 -1.1600 -2.3785
    5SAPS   H7S  582  -0.132   6.043   9.579  3.3428 -0.7759 -2.1769
    5SAPS   C28  583   0.018   6.139   9.725 -0.1200  0.3529  0.2151
    5SAPS   H8R  584   0.037   6.123   9.832 -1.4124 -2.3594  0.1313
    5SAPS   C29  585   0.055   6.246   9.656  0.4684 -0.4027  0.7599
    5SAPS   H9R  586   0.135   6.309   9.698  1.8664 -0.4895 -1.6240
    5SAPS  C210  587   0.020   6.283   9.517  0.1984 -0.3187 -0.9010
    5SAPS  H10R  588  -0.038   6.376   9.533  2.1493  0.5564  1.7474
    5SAPS  H10S  589  -0.040   6.206   9.464  0.1685  0.0123 -1.3592
    5SAPS  C211  590   0.121   6.330   9.418 -0.0024 -0.1796  0.4697
    5SAPS  H11R  591   0.213   6.372   9.462  0.3323  1.0281 -1.2662
    5SAPS  C212  592   0.117   6.339   9.286 -0.5660 -0.1439  0.0492
    5SAPS  H12R  593   0.208   6.376   9.236 -0.9960 -0.2198 -0.7887
    5SAPS  C213  594   0.010   6.298   9.192  0.5401  0.3708 -0.8099
    5SAPS  H13R  595  -0.059   6.385   9.185 -0.3715 -0.1873  0.8040
    5SAPS  H13S  596  -0.053   6.224   9.244 -0.4010  1.3078 -0.5862
    5SAPS  C214  597   0.055   6.253   9.054 -0.1050  0.1325 -0.5747
    5SAPS  H14R  598   0.150   6.198   9.059  0.7187  1.5715  0.7097
    5SAPS  C215  599  -0.009   6.272   8.935 -0.0901 -0.2347  0.4004
    5SAPS  H15R  600   0.041   6.237   8.843 -1.0726  0.0935 -0.2761
    5SAPS  C216  601  -0.136   6.350   8.912  0.0045 -0.0873  0.4484
    5SAPS  H16R  602  -0.117   6.459   8.923 -1.7423  0.2329  0.5788
    5SAPS  H16S  603  -0.202   6.319   8.995 -0.0126  2.0356  1.2913
    5SAPS  C217  604  -0.204   6.326   8.772  0.7768  0.5268 -0.0069
    5SAPS  H17R  605  -0.305   6.371   8.776 -0.3382 -1.7637 -1.0725
    5SAPS  H17S  606  -0.224   6.219   8.752 -0.4623  0.6793  0.3124
    5SAPS  C218  607  -0.132   6.381   8.647 -0.1073  0.1578  0.2221
    5SAPS  H18R  608  -0.022   6.392   8.652 -0.1534  0.1796  1.4296
    5SAPS  H18S  609  -0.163   6.315   8.562 -1.7945 -0.7758  1.4991
    5SAPS  C219  610  -0.181   6.516   8.609  0.0380 -0.3031 -0.1703
    5SAPS  H19R  611  -0.207   6.571   8.702  0.5481  1.9143 -1.2831
    5SAPS  H19S  612  -0.276   6.506   8.552  0.4389  2.2040 -1.4091
    5SAPS  C220  613  -0.078   6.578   8.517  0.5661 -0.4175 -0.6468
    5SAPS  H20R  614  -0.101   6.682   8.484 -2.1469 -0.9849 -0.7393
    5SAPS  H20S  615  -0.071   6.511   8.428 -0.9855 -1.3206 -0.1206
    5SAPS  H20T  616   0.023   6.583   8.563  0.8225 -0.0732 -1.2282
    5SAPS   C33  617  -0.568   5.847   9.991  1.3980 -0.1391 -0.5477
    5SAPS   H3X  618  -0.464   5.886   9.978  1.7521 -1.0474 -0.5207
    5SAPS   H3Y  619  -0.623   5.935  10.030 -0.3410 -0.0007 -3.0937
    5SAPS   C34  620  -0.629   5.812   9.857 -0.2449  0.5596  0.2022
    5SAPS   H4X  621  -0.666   5.907   9.813 -1.5577  0.9972  2.1263
    5SAPS   H4Y  622  -0.716   5.744   9.874  1.1684 -2.0114 -2.0732
    5SAPS   C35  623  -0.529   5.749   9.754 -0.2285 -0.8205  0.4881
    5SAPS   H5X  624  -0.503   5.643   9.776 -2.0061 -1.2671  0.5622
    5SAPS   H5Y  625  -0.435   5.807   9.743 -0.5469 -0.5295 -0.8233
    5SAPS   C36  626  -0.588   5.731   9.615  0.5832 -0.2862  0.4311
    5SAPS   H6X  627  -0.691   5.689   9.622  0.5598 -1.1204 -3.1365
    5SAPS   H6Y  628  -0.526   5.653   9.565  0.7070 -0.4355  0.8148
    5SAPS   C37  629  -0.594   5.857   9.535 -0.3290 -0.2656  0.3828
    5SAPS   H7X  630  -0.491   5.897   9.525 -0.3644 -0.0957  0.7092
    5SAPS   H7Y  631  -0.654   5.934   9.588  1.0959  0.5593  0.8186
    5SAPS   C38  632  -0.651   5.840   9.395 -0.2831  0.0222 -0.1597
    5SAPS   H8X  633  -0.672   5.939   9.350 -0.3484 -0.8357 -2.0932
    5SAPS   H8Y  634  -0.748   5.787   9.407  0.3624 -0.7070  2.7809
    5SAPS   C39  635  -0.560   5.752   9.299 -0.6327  1.1022 -0.6924
    5SAPS   H9X  636  -0.557   5.653   9.349 -0.7195  1.3995 -0.0838
    5SAPS   H9Y  637  -0.461   5.801   9.293 -0.0028 -0.0017  0.2955
    5SAPS  C310  638  -0.615   5.745   9.155 -0.6053  0.3282  0.1940
    5SAPS  H10X  639  -0.667   5.842   9.137 -2.7010 -0.7587  0.0129
    5SAPS  H10Y  640  -0.703   5.677   9.159 -1.2117  1.1342  1.0129
    5SAPS  C311  641  -0.510   5.698   9.059  0.3899  0.5704  0.8803
    5SAPS  H11X  642  -0.431   5.777   9.063  0.5969  0.4703 -0.7481
    5SAPS  H11Y  643  -0.553   5.694   8.957 -0.7440 -1.7378  1.3967
    5SAPS  C312  644  -0.473   5.551   9.084 -0.2864  0.0903 -0.7513
    5SAPS  H12X  645  -0.570   5.499   9.068 -0.5704 -0.0909  1.2811
    5SAPS  H12Y  646  -0.439   5.541   9.189 -1.4815  2.2180 -0.1135
    5SAPS  C313  647  -0.368   5.486   8.986 -0.6142  0.0277 -0.1673
    5SAPS  H13X  648  -0.342   5.383   9.017  1.8600  0.0802 -1.7751
    5SAPS  H13Y  649  -0.275   5.547   8.999  0.7039 -1.6718 -1.2059
    5SAPS  C314  650  -0.406   5.480   8.839 -0.1249 -0.0887  0.3671
    5SAPS  H14X  651  -0.416   5.581   8.794 -0.6560 -0.0245  0.6297
    5SAPS  H14Y  652  -0.505   5.430   8.838 -1.1213  1.7823  0.0212
    5SAPS  C315  653  -0.301   5.399   8.759  0.2322  0.1396  0.2669
    5SAPS  H15X  654  -0.307   5.296   8.799 -1.2971 -0.0209 -0.2793
    5SAPS  H15Y  655  -0.196   5.428   8.776  1.6686 -3.7540 -0.9165
    5SAPS  C316  656  -0.318   5.394   8.607 -0.8867 -0.2034  0.2276
    5SAPS  H16X  657  -0.264   5.310   8.558 -0.8845 -0.0363 -0.0582
    5SAPS  H16Y  658  -0.283   5.490   8.564  0.6634 -0.9195 -0.2105
    5SAPS  C317  659  -0.456   5.364   8.558  0.4050  0.4531  0.7934
    5SAPS  H17X  660  -0.446   5.361   8.447 -0.3509  1.9499  0.6634
    5SAPS  H17Y  661  -0.521   5.452   8.575 -3.1904 -1.2454 -2.4876
    5SAPS  C318  662  -0.513   5.244   8.623  0.4570  0.8761 -0.3309
    5SAPS  H18X  663  -0.600   5.196   8.574  1.2764 -0.5074 -0.4553
    5SAPS  H18Y  664  -0.545   5.258   8.729 -0.5000  1.5592 -0.7001
    5SAPS  H18Z  665  -0.439   5.161   8.621  0.0635  0.5059  0.0731
    6SAPS     N  666   5.587   5.809  11.072  0.4782 -0.0671 -0.4055
    6SAPS   HN1  667   5.570   5.707  11.060  2.2065 -0.7132  1.8129
    6SAPS   HN2  668   5.665   5.837  11.009  2.5458 -2.6784  0.7825
    6SAPS   HN3  669   5.613   5.826  11.171  0.5959 -0.2085 -0.4100
    6SAPS   C12  670   5.464   5.877  11.034  0.4092 -0.0769 -0.1149
    6SAPS  H12A  671   5.378   5.816  11.056 -1.1742  2.1203  0.0975
    6SAPS   C13  672   5.436   6.010  11.108 -0.0560  0.8774  0.0570
    6SAPS  O13A  673   5.508   6.045  11.204 -0.1224  0.4760 -0.2840
    6SAPS  O13B  674   5.354   6.090  11.057  0.0419  0.1166  0.0528
    6SAPS   C11  675   5.461   5.899  10.878 -1.1437  1.1206 -0.1626
    6SAPS  H11A  676   5.542   5.972  10.860  2.1187 -1.9712  0.8333
    6SAPS  H11B  677   5.366   5.949  10.848 -1.3428  1.9490  1.6818
    6SAPS     P  678   5.500   5.771  10.642 -0.2538 -0.0172  0.4355
    6SAPS   O13  679   5.650   5.757  10.606  0.1868 -0.2443  0.6999
    6SAPS   O14  680   5.410   5.672  10.589 -0.7343  0.4914 -0.2446
    6SAPS   O12  681   5.485   5.780  10.800 -0.0799 -0.2971 -0.2355
    6SAPS   O11  682   5.447   5.911  10.592  0.1258 -0.4088  0.3782
    6SAPS    C1  683   5.530   6.019  10.553 -0.0641  0.0912  0.1158
    6SAPS    HA  684   5.557   6.078  10.643 -1.7430  2.0909 -0.6206
    6SAPS    HB  685   5.623   5.985  10.502 -1.1678  0.1101 -2.0295
    6SAPS    C2  686   5.449   6.100  10.454  0.1389 -0.1094  0.4139
    6SAPS    HS  687   5.350   6.115  10.502  1.2895  0.6828  2.6705
    6SAPS   O21  688   5.447   6.026  10.330  0.0551  0.0913 -0.5588
    6SAPS   C21  689   5.325   5.992  10.289 -0.3214 -0.4789 -0.5338
    6SAPS   O22  690   5.223   6.004  10.352 -0.0556 -0.4072  0.3585
    6SAPS   C22  691   5.330   5.933  10.145 -0.1388  0.1389  0.4805
    6SAPS   H2R  692   5.271   6.004  10.084  0.1388 -0.2665 -0.2732
    6SAPS   H2S  693   5.437   5.949  10.117 -0.4761  0.6233 -0.5737
    6SAPS    C3  694   5.521   6.240  10.429 -0.1625  0.0180  0.0354
    6SAPS    HX  695   5.625   6.219  10.395 -0.7144 -1.3138 -0.9332
    6SAPS    HY  696   5.522   6.298  10.523 -1.7170 -1.2492  0.8988
    6SAPS   O31  697   5.455   6.307  10.318  0.2097 -0.4480  0.0593
    6SAPS   C31  698   5.355   6.385  10.357  0.0855  0.2683 -0.0487
    6SAPS   O32  699   5.316   6.400  10.470  0.0649 -0.2561  0.6927
    6SAPS   C32  700   5.306   6.470  10.240  0.0392  0.1207  0.0774
    6SAPS   H2X  701   5.358   6.444  10.145  0.0090  1.8559 -0.4488
    6SAPS   H2Y  702   5.337   6.573  10.267  0.9785 -0.3941  1.0948
    6SAPS   C23  703   5.270   5.788  10.143 -0.3548 -0.2297 -0.3780
    6SAPS   H3R  704   5.163   5.788  10.173 -0.5926 -0.2417 -1.1892
    6SAPS   H3S  705   5.322   5.713  10.206 -3.4481 -1.3978  0.9728
    6SAPS   C24  706   5.272   5.728  10.006 -0.1100 -0.5084 -0.1123
    6SAPS   H4R  707   5.205   5.787   9.940  0.8171 -1.1762 -1.7203
    6SAPS   H4S  708   5.217   5.632   9.998 -0.9323  0.0965 -2.4622
    6SAPS   C25  709   5.412   5.709   9.952 -0.6693 -0.4702 -0.3139
    6SAPS   H5R  710   5.487   5.683  10.027 -0.6608  0.6119  0.0617
    6SAPS   C26  711   5.455   5.734   9.823 -0.1771 -0.1519 -0.7188
    6SAPS   H6R  712   5.564   5.732   9.804 -0.3306  0.2918 -1.7008
    6SAPS   C27  713   5.364   5.781   9.708 -0.3389  0.6171 -0.0802
    6SAPS   H7R  714   5.437   5.852   9.663  2.1436 -0.8012  1.4427
    6SAPS   H7S  715   5.274   5.836   9.743 -0.1556  0.0752  1.3055
    6SAPS   C28  716   5.321   5.658   9.628 -0.4571  0.0682 -0.4430
    6SAPS   H8R  717   5.268   5.580   9.686 -1.1383  0.3092 -0.7339
    6SAPS   C29  718   5.356   5.624   9.502  0.4493  0.4975  0.0139
    6SAPS   H9R  719   5.302   5.543   9.450 -1.5422  0.7997  1.4804
    6SAPS  C210  720   5.440   5.718   9.423 -1.0112 -0.1790  0.1487
    6SAPS  H10R  721   5.522   5.755   9.489 -1.1421 -0.3107  0.3848
    6SAPS  H10S  722   5.382   5.809   9.399  0.0100  0.3576 -0.3716
    6SAPS  C211  723   5.485   5.654   9.293  0.3327 -0.1492 -0.3035
    6SAPS  H11R  724   5.541   5.561   9.313 -0.0598 -1.4450 -4.3492
    6SAPS  C212  725   5.471   5.694   9.165  0.9199  0.9727  0.7035
    6SAPS  H12R  726   5.516   5.626   9.091 -1.1256 -0.7134  0.9068
    6SAPS  C213  727   5.399   5.814   9.115 -0.1228  0.1169  0.0356
    6SAPS  H13R  728   5.292   5.807   9.142 -0.0033 -0.9292  0.2691
    6SAPS  H13S  729   5.405   5.821   9.004 -4.0970 -0.1057 -0.3264
    6SAPS  C214  730   5.455   5.949   9.159  0.0314  0.2650 -0.6187
    6SAPS  H14R  731   5.494   5.951   9.262  0.8574 -2.4455 -0.8146
    6SAPS  C215  732   5.443   6.061   9.085 -0.5443  0.6791 -0.0633
    6SAPS  H15R  733   5.492   6.154   9.118  1.7862 -0.4465 -0.1535
    6SAPS  C216  734   5.376   6.070   8.952  0.2470  0.0940 -0.7060
    6SAPS  H16R  735   5.267   6.089   8.956  0.2555 -0.0624  0.8487
    6SAPS  H16S  736   5.397   5.982   8.889  0.8010  0.0849 -0.5137
    6SAPS  C217  737   5.439   6.179   8.880 -0.2332 -0.8350  0.3677
    6SAPS  H17R  738   5.542   6.151   8.850  0.7341  1.3918  1.3486
    6SAPS  H17S  739   5.442   6.270   8.944 -1.9927  0.3424 -1.1149
    6SAPS  C218  740   5.377   6.217   8.742 -0.1763 -0.1789 -0.2039
    6SAPS  H18R  741   5.291   6.284   8.764  0.8191  0.4027  2.2584
    6SAPS  H18S  742   5.342   6.125   8.692 -0.7722 -0.0729  0.0086
    6SAPS  C219  743   5.477   6.303   8.659 -0.2337 -0.6681 -0.7402
    6SAPS  H19R  744   5.568   6.247   8.628  0.7573 -0.2491  1.2277
    6SAPS  H19S  745   5.507   6.385   8.728  0.5552 -0.2808 -1.5203
    6SAPS  C220  746   5.421   6.356   8.529 -0.2219  0.1708 -0.4936
    6SAPS  H20R  747   5.493   6.422   8.478  0.1459 -0.1264 -0.3591
    6SAPS  H20S  748   5.329   6.413   8.557  1.6167  2.4340  1.4208
    6SAPS  H20T  749   5.385   6.276   8.462 -1.6713  0.2905  0.0993
    6SAPS   C33  750   5.150   6.460  10.229 -0.2088  0.4723 -0.0400
    6SAPS   H3X  751   5.111   6.550  10.176 -1.7198 -0.2851 -0.2708
    6SAPS   H3Y  752   5.089   6.475  10.320 -0.7127  2.6038 -0.6907
    6SAPS   C34  753   5.102   6.327  10.156 -0.1490 -0.4609  0.8860
    6SAPS   H4X  754   4.998   6.302  10.188  0.3466 -2.1835  1.2523
    6SAPS   H4Y  755   5.159   6.238  10.190  0.3027 -0.2315  0.7380
    6SAPS   C35  756   5.112   6.338  10.006  0.0064 -0.6987  0.4747
    6SAPS   H5X  757   5.088   6.440   9.971  0.8401 -1.1208 -1.4402
    6SAPS   H5Y  758   5.034   6.267   9.970 -0.3592 -1.8525  3.2878
    6SAPS   C36  759   5.238   6.285   9.936  0.3832 -0.1052  0.3695
    6SAPS   H6X  760   5.231   6.175   9.926 -0.4592 -0.0449  0.2158
    6SAPS   H6Y  761   5.325   6.295  10.004 -0.6377  0.7745  1.6029
    6SAPS   C37  762   5.258   6.370   9.811 -0.4246  0.4645  0.5745
    6SAPS   H7X  763   5.366   6.354   9.788 -0.5372 -2.5528  1.7007
    6SAPS   H7Y  764   5.243   6.478   9.833 -0.1606  0.9657 -1.5138
    6SAPS   C38  765   5.181   6.312   9.692  0.0942 -0.7366 -0.0172
    6SAPS   H8X  766   5.201   6.376   9.603  1.9995 -0.5168  0.5261
    6SAPS   H8Y  767   5.072   6.308   9.710  0.1720  0.2305  0.6992
    6SAPS   C39  768   5.225   6.172   9.656 -0.3865 -0.5268  0.7099
    6SAPS   H9X  769   5.201   6.104   9.740 -2.8364 -0.4108  0.1583
    6SAPS   H9Y  770   5.335   6.158   9.641 -0.3582 -0.4814  0.8800
    6SAPS  C310  771   5.159   6.123   9.525  0.1991 -0.1419 -0.3191
    6SAPS  H10X  772   5.194   6.177   9.435 -4.6486 -0.3087 -2.6305
    6SAPS  H10Y  773   5.049   6.142   9.524 -0.1969 -1.8477 -3.5559
    6SAPS  C311  774   5.163   5.969   9.499 -0.5086 -0.4972 -0.5011
    6SAPS  H11X  775   5.161   5.936   9.606  0.6221  0.8025 -0.0569
    6SAPS  H11Y  776   5.261   5.956   9.448  0.7194  0.9077  1.3648
    6SAPS  C312  777   5.040   5.910   9.423 -0.7757 -0.1335  0.5269
    6SAPS  H12X  778   5.045   5.966   9.327 -2.1704 -0.5011  0.2228
    6SAPS  H12Y  779   4.942   5.948   9.459 -0.9283  1.2953 -1.2354
    6SAPS  C313  780   5.036   5.764   9.396 -0.4028 -0.7896 -0.1584
    6SAPS  H13X  781   5.000   5.706   9.484 -3.2180 -1.1421 -1.4118
    6SAPS  H13Y  782   5.136   5.734   9.361 -0.1810  0.9366 -1.1009
    6SAPS  C314  783   4.929   5.743   9.282  0.1410 -0.4986  0.0364
    6SAPS  H14X  784   4.837   5.804   9.296  0.9932  0.5676  1.2296
    6SAPS  H14Y  785   4.888   5.640   9.282 -1.0269 -0.0643  0.8330
    6SAPS  C315  786   4.981   5.784   9.138  0.0548 -0.2151 -0.5971
    6SAPS  H15X  787   5.089   5.757   9.141  0.4269  1.2084 -0.8947
    6SAPS  H15Y  788   4.972   5.894   9.128 -4.5741 -0.0619  2.3014
    6SAPS  C316  789   4.918   5.715   9.020  0.4758  0.5823  0.1063
    6SAPS  H16X  790   4.951   5.756   8.923  0.5583 -3.9768 -2.0667
    6SAPS  H16Y  791   4.807   5.722   9.024  0.4548  0.1622  0.3065
    6SAPS  C317  792   4.936   5.562   9.003 -0.6057  0.1969 -0.5693
    6SAPS  H17X  793   4.876   5.512   9.082 -1.4010  0.8711 -0.7395
    6SAPS  H17Y  794   5.045   5.541   9.010 -0.3480  0.8908 -2.0550
    6SAPS  C318  795   4.876   5.518   8.867 -0.1647 -0.1182 -0.5444
    6SAPS  H18X  796   4.766   5.518   8.883  0.1806  1.7806  2.7825
    6SAPS  H18Y  797   4.905   5.413   8.846  0.5321 -0.2539  0.9633
    6SAPS  H18Z  798   4.906   5.586   8.784 -0.2193  0.0352 -0.4377
    7SAPS     N  799   0.264   6.275  10.477  0.2540 -0.0962 -0.5369
    7SAPS   HN1  800   0.275   6.361  10.535 -1.2463  0.8237 -1.5408
    7SAPS   HN2  801   0.344   6.208  10.478  1.5836  1.4226  0.3118
    7SAPS   HN3  802   0.240   6.308  10.382 -3.4084 -1.4511 -0.2281
    7SAPS   C12  803   0.135   6.211  10.532 -0.3094  0.3490 -0.7175
    7SAPS  H12A  804   0.112   6.144  10.451 -0.6439  3.0062 -2.9563
    7SAPS   C13  805   0.158   6.134  10.667 -0.6544  0.0660  0.2179
    7SAPS  O13A  806   0.272   6.129  10.716  0.1425 -0.2659  0.1400
    7SAPS  O13B  807   0.061   6.065  10.702 -0.3354  0.1884  0.1135
    7SAPS   C11  808   0.027   6.315  10.556 -0.3002  0.0215  0.0278
    7SAPS  H11A  809   0.041   6.372  10.651 -1.4919  1.8607 -0.8377
    7SAPS  H11B  810  -0.057   6.243  10.567  0.6673 -0.8644  2.1596
    7SAPS     P  811  -0.109   6.450  10.384  0.1889  0.0664 -0.0165
    7SAPS   O13  812  -0.201   6.488  10.493  0.3082 -0.4382  0.0894
    7SAPS   O14  813  -0.079   6.552  10.279 -0.3182  0.2722  0.5664
    7SAPS   O12  814   0.025   6.403  10.448 -0.1470 -0.4827  0.7274
    7SAPS   O11  815  -0.176   6.325  10.310  0.0536  0.2850 -0.0930
    7SAPS    C1  816  -0.091   6.255  10.220  0.3392  0.7598  0.4544
    7SAPS    HA  817   0.019   6.267  10.231  0.4940 -2.1222  4.5656
    7SAPS    HB  818  -0.101   6.148  10.250 -0.1359  0.9378  0.9411
    7SAPS    C2  819  -0.140   6.269  10.074 -0.3142 -0.2637  0.0473
    7SAPS    HS  820  -0.092   6.192  10.011  2.1625 -1.5968  3.2847
    7SAPS   O21  821  -0.120   6.409  10.033 -0.2081  0.6546  0.7049
    7SAPS   C21  822   0.010   6.439  10.004  0.8424  0.1879 -0.0877
    7SAPS   O22  823   0.105   6.365  10.005 -0.5408  0.3968 -0.4257
    7SAPS   C22  824   0.012   6.600   9.992  0.6826 -0.3060  0.3061
    7SAPS   H2R  825  -0.089   6.636  10.022  0.1757  0.8371 -2.4990
    7SAPS   H2S  826   0.099   6.628  10.056  0.3903  1.2513  0.0571
    7SAPS    C3  827  -0.286   6.229  10.054  0.3661 -1.1829  0.3016
    7SAPS    HX  828  -0.354   6.299  10.107 -0.8120 -0.7150 -1.7206
    7SAPS    HY  829  -0.309   6.124  10.084 -2.6537 -0.3707  1.1382
    7SAPS   O31  830  -0.322   6.242   9.908  1.2065 -0.5958 -0.3204
    7SAPS   C31  831  -0.456   6.225   9.895 -0.4853  0.3079 -0.2117
    7SAPS   O32  832  -0.532   6.195   9.988 -0.6364 -0.2675  0.1651
    7SAPS   C32  833  -0.504   6.259   9.755 -0.2768  0.0218  0.2970
    7SAPS   H2X  834  -0.515   6.369   9.746  0.7802  0.0741 -0.4911
    7SAPS   H2Y  835  -0.603   6.208   9.753 -0.0349 -0.8098  3.5586
    7SAPS   C23  836   0.024   6.633   9.843 -0.7843 -1.0281 -0.3183
    7SAPS   H3R  837   0.010   6.545   9.777  0.9550 -1.2106 -0.5038
    7SAPS   H3S  838   0.133   6.655   9.836 -0.8503  0.2357  1.6786
    7SAPS   C24  839  -0.050   6.753   9.791  0.2376 -0.2523 -0.0605
    7SAPS   H4R  840   0.002   6.802   9.706 -0.0056  0.5037  0.2169
    7SAPS   H4S  841  -0.042   6.833   9.868  2.4411  0.6638 -1.1617
    7SAPS   C25  842  -0.196   6.720   9.766 -0.1602  0.0103  0.0186
    7SAPS   H5R  843  -0.264   6.713   9.853  1.2892  0.5001  1.2406
    7SAPS   C26  844  -0.252   6.710   9.640  0.0097 -0.0563  0.4999
    7SAPS   H6R  845  -0.358   6.697   9.613 -0.0480  1.6427 -0.2514
    7SAPS   C27  846  -0.163   6.724   9.520  0.3076  0.7588  0.2686
    7SAPS   H7R  847  -0.059   6.696   9.545  0.1892  0.7418  0.7576
    7SAPS   H7S  848  -0.157   6.831   9.490 -1.7894  0.4548 -1.5409
    7SAPS   C28  849  -0.202   6.647   9.398 -0.1565 -0.4259 -0.1143
    7SAPS   H8R  850  -0.214   6.539   9.414  2.9063 -0.6760  1.1584
    7SAPS   C29  851  -0.186   6.681   9.268 -0.9161 -0.3562  0.2334
    7SAPS   H9R  852  -0.229   6.619   9.188 -1.0275 -1.1439  0.8827
    7SAPS  C210  853  -0.150   6.810   9.200  0.1316  0.5032  0.4397
    7SAPS  H10R  854  -0.052   6.848   9.235  0.2540  0.8093 -0.2098
    7SAPS  H10S  855  -0.229   6.882   9.232 -0.7197 -0.1371 -0.1630
    7SAPS  C211  856  -0.135   6.811   9.056 -0.0701 -0.4182  0.3998
    7SAPS  H11R  857  -0.032   6.837   9.027  0.0696 -0.1980  1.0864
    7SAPS  C212  858  -0.229   6.797   8.962  0.1976  0.0402 -0.0586
    7SAPS  H12R  859  -0.213   6.792   8.853 -0.5193  0.5706 -0.1956
    7SAPS  C213  860  -0.368   6.762   8.991  0.2021  0.1343  0.7071
    7SAPS  H13R  861  -0.437   6.842   8.958 -0.9206 -1.0508  0.0925
    7SAPS  H13S  862  -0.382   6.761   9.101 -1.5185  0.8886  0.5179
    7SAPS  C214  863  -0.425   6.627   8.935  0.7081  0.3588 -0.5993
    7SAPS  H14R  864  -0.360   6.539   8.939  0.0365 -0.1335 -0.4513
    7SAPS  C215  865  -0.544   6.606   8.877 -0.1051 -0.9377 -0.2059
    7SAPS  H15R  866  -0.579   6.505   8.849  1.3050 -1.1794 -1.2170
    7SAPS  C216  867  -0.648   6.708   8.833 -0.4806 -0.1425 -0.1186
    7SAPS  H16R  868  -0.662   6.802   8.892 -2.0465 -0.2436 -0.2714
    7SAPS  H16S  869  -0.745   6.654   8.826  0.1856 -1.2970 -0.5628
    7SAPS  C217  870  -0.621   6.747   8.680  0.2879  0.7418 -0.1942
    7SAPS  H17R  871  -0.615   6.653   8.621 -2.3857  2.0359 -2.8476
    7SAPS  H17S  872  -0.522   6.797   8.680  1.4123 -1.3732 -0.9297
    7SAPS  C218  873  -0.728   6.837   8.617 -0.0409 -0.6776  0.3189
    7SAPS  H18R  874  -0.811   6.766   8.599 -0.8173 -0.0548  1.3259
    7SAPS  H18S  875  -0.697   6.873   8.516 -1.9308  0.0038 -0.0506
    7SAPS  C219  876  -0.759   6.969   8.701  0.1167 -0.3679  0.6586
    7SAPS  H19R  877  -0.654   7.003   8.717  1.4968 -2.6512 -2.3990
    7SAPS  H19S  878  -0.808   6.939   8.796  1.0202  0.9521  1.5774
    7SAPS  C220  879  -0.845   7.077   8.636  0.3640  0.3033  0.3838
    7SAPS  H20R  880  -0.941   7.031   8.603  0.7985 -2.1176  2.1868
    7SAPS  H20S  881  -0.791   7.132   8.556  1.8602  0.6710  1.6063
    7SAPS  H20T  882  -0.860   7.157   8.711  2.4047  0.6758  0.4625
    7SAPS   C33  883  -0.423   6.205   9.637  0.0268  0.1263 -0.9731
    7SAPS   H3X  884  -0.403   6.096   9.644  1.9702  0.5341  0.6672
    7SAPS   H3Y  885  -0.329   6.263   9.631  0.2100  0.1859  1.5060
    7SAPS   C34  886  -0.498   6.230   9.506 -0.1837 -0.3173 -0.2063
    7SAPS   H4X  887  -0.525   6.337   9.495 -1.4717 -0.8564 -3.5856
    7SAPS   H4Y  888  -0.599   6.184   9.509 -0.6594  0.7500  1.7627
    7SAPS   C35  889  -0.422   6.193   9.378 -0.6182  0.4812 -0.0328
    7SAPS   H5X  890  -0.394   6.087   9.394  1.8999  0.7731 -1.9226
    7SAPS   H5Y  891  -0.330   6.256   9.373 -1.9052  2.3775 -1.1099
    7SAPS   C36  892  -0.501   6.200   9.244 -0.9208  0.0502  0.1195
    7SAPS   H6X  893  -0.514   6.305   9.213 -0.4270  0.8684  2.5043
    7SAPS   H6Y  894  -0.599   6.151   9.265 -1.0603  0.2794  0.0106
    7SAPS   C37  895  -0.436   6.117   9.132  0.3597 -0.7217 -0.4517
    7SAPS   H7X  896  -0.441   6.012   9.167 -1.3985 -0.4414  0.2286
    7SAPS   H7Y  897  -0.332   6.143   9.102 -0.1035 -0.4238 -1.8414
    7SAPS   C38  898  -0.528   6.138   9.015 -0.2682  0.2361 -0.2431
    7SAPS   H8X  899  -0.521   6.242   8.978  0.1754 -0.0845 -1.0887
    7SAPS   H8Y  900  -0.632   6.111   9.045 -0.0623  0.5942  0.8263
    7SAPS   C39  901  -0.500   6.053   8.894 -1.0197  0.0309 -0.0023
    7SAPS   H9X  902  -0.460   5.951   8.915  1.9942  1.1229 -0.0758
    7SAPS   H9Y  903  -0.417   6.095   8.834 -0.3816 -0.9497  0.1671
    7SAPS  C310  904  -0.618   6.046   8.798  0.0294  0.5472 -0.1550
    7SAPS  H10X  905  -0.590   6.004   8.700  1.9080 -1.9662  1.3431
    7SAPS  H10Y  906  -0.663   6.145   8.773  0.4689  0.9820  0.7196
    7SAPS  C311  907  -0.732   5.949   8.843  0.2296 -0.3979 -0.3525
    7SAPS  H11X  908  -0.782   6.001   8.927  0.8222 -0.0506 -0.2091
    7SAPS  H11Y  909  -0.676   5.861   8.881  1.2548  0.7191  0.8424
    7SAPS  C312  910  -0.816   5.902   8.731 -0.3926 -0.2554  0.0411
    7SAPS  H12X  911  -0.887   5.825   8.769  1.9044 -2.8902 -0.6163
    7SAPS  H12Y  912  -0.761   5.848   8.651  1.1381  0.8932  0.2731
    7SAPS  C313  913  -0.890   6.005   8.655 -1.0415 -0.5548 -0.0236
    7SAPS  H13X  914  -0.821   6.086   8.624  0.3740 -1.0399  1.6771
    7SAPS  H13Y  915  -0.953   6.043   8.738 -0.2066  0.0149  0.3697
    7SAPS  C314  916  -0.968   5.957   8.531 -0.0526 -0.0752 -0.5521
    7SAPS  H14X  917  -1.034   5.881   8.578 -0.1052  0.1500 -0.2587
    7SAPS  H14Y  918  -0.893   5.909   8.465 -0.2665 -1.4368  0.1517
    7SAPS  C315  919  -1.060   6.052   8.459  1.1584  0.1059  0.3071
    7SAPS  H15X  920  -1.002   6.142   8.428 -1.4133  1.7238 -0.0807
    7SAPS  H15Y  921  -1.140   6.093   8.524  0.0242  0.6195 -1.3674
    7SAPS  C316  922  -1.127   5.986   8.335  0.9268 -0.1213 -0.0705
    7SAPS  H16X  923  -1.044   5.965   8.264  1.8045  2.4628  0.1086
    7SAPS  H16Y  924  -1.189   6.067   8.291  1.0442  0.4262  0.7481
    7SAPS  C317  925  -1.223   5.869   8.345  0.2833  0.0097  0.1354
    7SAPS  H17X  926  -1.297   5.902   8.421  1.2569  0.4868  0.8894
    7SAPS  H17Y  927  -1.179   5.775   8.384  1.2186  0.7496  0.8823
    7SAPS  C318  928  -1.295   5.839   8.209 -0.0025 -0.3520  0.5640
    7SAPS  H18X  929  -1.360   5.926   8.186 -1.0516 -1.0412  0.8756
    7SAPS  H18Y  930  -1.368   5.756   8.222 -0.4904  0.2875  2.2140
    7SAPS  H18Z  931  -1.229   5.836   8.120  1.5234 -0.3198  1.6366
    8SAPS     N  932   4.823   2.464  11.275 -0.6030 -0.7434  0.0996
    8SAPS   HN1  933   4.771   2.463  11.365 -1.1474 -0.3432 -0.2024
    8SAPS   HN2  934   4.870   2.556  11.265 -2.4119  0.2650  0.3793
    8SAPS   HN3  935   4.749   2.457  11.202 -3.6166 -2.2114  3.0184
    8SAPS   C12  936   4.918   2.345  11.283  0.3329  0.3830  0.3004
    8SAPS  H12A  937   5.009   2.382  11.328 -0.6127  1.0186  1.7681
    8SAPS   C13  938   4.882   2.233  11.380  0.0872 -0.1196  0.4525
    8SAPS  O13A  939   4.787   2.241  11.460  0.0803  0.2077  0.4456
    8SAPS  O13B  940   4.974   2.154  11.411  0.2200 -0.5415  0.1817
    8SAPS   C11  941   4.934   2.294  11.137  0.0808  0.7448 -0.0904
    8SAPS  H11A  942   4.837   2.252  11.102  0.6336  0.7041 -1.6508
    8SAPS  H11B  943   5.002   2.206  11.135  0.1646  0.8235 -0.8119
    8SAPS     P  944   5.118   2.400  10.971 -0.2167 -0.6136 -0.0292
    8SAPS   O13  945   5.125   2.506  10.866 -0.2939 -0.1896  0.1243
    8SAPS   O14  946   5.219   2.398  11.077 -0.6452 -0.2401 -0.3825
    8SAPS   O12  947   4.973   2.402  11.046 -0.5837 -0.0070  0.2172
    8SAPS   O11  948   5.110   2.264  10.903  0.4398  0.4960 -0.1053
    8SAPS    C1  949   5.062   2.241  10.770 -0.3578  0.8039  0.2108
    8SAPS    HA  950   4.972   2.305  10.761  0.4202  2.5224  3.2043
    8SAPS    HB  951   5.139   2.273  10.696  0.1728  0.3106  0.5394
    8SAPS    C2  952   5.010   2.100  10.756 -0.6375 -0.1356  0.3696
    8SAPS    HS  953   4.931   2.081  10.831 -0.4397 -1.3949  0.2984
    8SAPS   O21  954   5.115   1.999  10.766 -1.0009 -0.2237 -0.3804
    8SAPS   C21  955   5.083   1.881  10.818  0.0257 -0.2006 -0.4274
    8SAPS   O22  956   4.977   1.851  10.863 -0.0363 -0.0064 -0.5574
    8SAPS   C22  957   5.197   1.778  10.810  0.2794  0.3371  0.1246
    8SAPS   H2R  958   5.279   1.809  10.741  1.1834 -1.5677  0.2783
    8SAPS   H2S  959   5.239   1.761  10.911 -0.3707 -0.5303  0.2562
    8SAPS    C3  960   4.957   2.088  10.612 -0.5636 -0.0875  0.4390
    8SAPS    HX  961   5.033   2.118  10.537 -0.6203  2.1251  1.1900
    8SAPS    HY  962   4.884   2.171  10.602 -0.0918  0.8057  3.5220
    8SAPS   O31  963   4.902   1.960  10.581  0.4944 -0.1406 -0.5338
    8SAPS   C31  964   4.777   1.946  10.636 -0.2405  0.2584 -0.2758
    8SAPS   O32  965   4.733   2.016  10.724  0.4650 -0.1125 -0.7371
    8SAPS   C32  966   4.707   1.826  10.577  0.5427  0.1096  0.3218
    8SAPS   H2X  967   4.668   1.782  10.671 -1.0694  2.6625  0.9146
    8SAPS   H2Y  968   4.780   1.752  10.536  0.9051  1.1180 -0.9100
    8SAPS   C23  969   5.145   1.640  10.766  0.6796  0.3558  0.0006
    8SAPS   H3R  970   5.081   1.602  10.849 -0.6389  1.0199 -0.6873
    8SAPS   H3S  971   5.236   1.578  10.751  0.2306  0.4405 -4.1437
    8SAPS   C24  972   5.075   1.646  10.631 -0.0506 -0.0383 -0.1085
    8SAPS   H4R  973   5.137   1.674  10.544 -1.2733  0.4030 -0.8727
    8SAPS   H4S  974   4.988   1.716  10.631  0.1785  0.2513 -0.6490
    8SAPS   C25  975   5.016   1.508  10.597 -0.1043 -0.2966  0.7047
    8SAPS   H5R  976   4.937   1.472  10.665  1.6609 -1.9227  1.9867
    8SAPS   C26  977   5.051   1.433  10.487 -0.7628 -0.1337  0.8803
    8SAPS   H6R  978   5.000   1.337  10.473 -1.4371  0.2167  0.9224
    8SAPS   C27  979   5.160   1.456  10.384 -0.5031 -0.0289  0.2503
    8SAPS   H7R  980   5.192   1.369  10.323 -0.3942  1.1826 -1.4947
    8SAPS   H7S  981   5.250   1.491  10.438 -0.5140 -1.0334  0.9447
    8SAPS   C28  982   5.110   1.567  10.284  0.5621 -0.7912 -0.1124
    8SAPS   H8R  983   5.023   1.625  10.319  0.1211 -0.8460 -1.0850
    8SAPS   C29  984   5.155   1.589  10.164 -0.9303  0.2073 -0.3704
    8SAPS   H9R  985   5.099   1.663  10.105 -2.5730 -0.3116  0.4583
    8SAPS  C210  986   5.268   1.526  10.086  0.0631 -0.8501 -0.4402
    8SAPS  H10R  987   5.305   1.440  10.147  2.7854 -0.0397 -0.7833
    8SAPS  H10S  988   5.356   1.593  10.079  1.4125 -2.4072  0.5747
    8SAPS  C211  989   5.236   1.475   9.952  0.4535  0.8424  0.1640
    8SAPS  H11R  990   5.140   1.425   9.935  1.3609 -0.4177 -1.5158
    8SAPS  C212  991   5.309   1.491   9.841  0.5277 -0.0874  0.5142
    8SAPS  H12R  992   5.268   1.435   9.756 -0.9093  0.4732  0.8119
    8SAPS  C213  993   5.432   1.570   9.817 -0.0023  0.2380 -0.7550
    8SAPS  H13R  994   5.489   1.591   9.910 -1.9398 -1.2765  0.8670
    8SAPS  H13S  995   5.413   1.667   9.768 -1.7511  0.2393 -0.1434
    8SAPS  C214  996   5.523   1.493   9.733 -0.0364  0.5130  0.0152
    8SAPS  H14R  997   5.585   1.428   9.797  0.7082  0.6174 -0.5811
    8SAPS  C215  998   5.541   1.491   9.596 -0.1135 -0.2465  1.3105
    8SAPS  H15R  999   5.618   1.429   9.549 -1.2711 -0.2548 -0.6807
    8SAPS  C216 1000   5.465   1.574   9.490 -0.4770  0.6121 -0.4449
    8SAPS  H16R 1001   5.393   1.646   9.535 -0.9895 -0.3080  0.2589
    8SAPS  H16S 1002   5.391   1.503   9.447  0.6396 -0.8564 -0.0006
    8SAPS  C217 1003   5.549   1.663   9.398 -0.3996 -0.1336 -0.0135
    8SAPS  H17R 1004   5.634   1.604   9.357  1.9489  3.0569 -0.0522
    8SAPS  H17S 1005   5.599   1.738   9.463 -0.5839  0.9766 -1.1173
    8SAPS  C218 1006   5.463   1.732   9.299 -0.4087  0.9855 -0.2697
    8SAPS  H18R 1007   5.387   1.788   9.358  0.0137  0.8973  0.3642
    8SAPS  H18S 1008   5.411   1.655   9.238  0.0080  0.2556  0.2887
    8SAPS  C219 1009   5.540   1.833   9.212 -0.1317  0.0141  0.6332
    8SAPS  H19R 1010   5.623   1.882   9.266 -1.0144  2.5937 -0.1844
    8SAPS  H19S 1011   5.468   1.908   9.170  1.2230  1.0308  0.0628
    8SAPS  C220 1012   5.591   1.757   9.092  0.5434 -0.2130  0.3855
    8SAPS  H20R 1013   5.661   1.678   9.127 -1.3073 -1.9711  0.3068
    8SAPS  H20S 1014   5.656   1.822   9.030  1.2649 -1.2575  0.0121
    8SAPS  H20T 1015   5.505   1.723   9.030  0.8548  0.7376 -0.5891
    8SAPS   C33 1016   4.598   1.861  10.476 -0.2854 -0.4500  0.3197
    8SAPS   H3X 1017   4.523   1.922  10.531 -1.5400 -2.0792  0.5031
    8SAPS   H3Y 1018   4.544   1.767  10.451  1.5586 -1.5468  0.3185
    8SAPS   C34 1019   4.642   1.947  10.356  0.2723 -0.2296 -0.5609
    8SAPS   H4X 1020   4.681   2.046  10.389  1.2175 -0.3043 -1.4203
    8SAPS   H4Y 1021   4.548   1.951  10.298  0.0456  0.6222 -0.1453
    8SAPS   C35 1022   4.748   1.885  10.263  0.2521 -0.2286 -0.1487
    8SAPS   H5X 1023   4.708   1.801  10.203 -0.5986  0.6920 -0.9089
    8SAPS   H5Y 1024   4.837   1.848  10.319  0.4446 -0.2916 -0.4917
    8SAPS   C36 1025   4.792   2.001  10.175 -0.2631 -0.5446  0.0227
    8SAPS   H6X 1026   4.880   1.967  10.118  0.1873 -0.7462  0.8189
    8SAPS   H6Y 1027   4.830   2.079  10.244  0.1352 -0.2921 -0.4849
    8SAPS   C37 1028   4.688   2.049  10.073  0.4088 -0.6012 -0.3077
    8SAPS   H7X 1029   4.733   2.144  10.038 -0.5279 -0.6575 -1.7308
    8SAPS   H7Y 1030   4.591   2.076  10.120  0.6821  0.0583 -0.1157
    8SAPS   C38 1031   4.673   1.959   9.953 -0.1302 -0.6514 -0.3359
    8SAPS   H8X 1032   4.620   1.863   9.973  1.8882 -1.4169  1.7345
    8SAPS   H8Y 1033   4.776   1.926   9.926  1.2707  2.4401  0.7538
    8SAPS   C39 1034   4.608   2.030   9.831  0.1046 -0.5641 -0.2697
    8SAPS   H9X 1035   4.505   2.063   9.859 -0.4868 -0.5212 -2.2846
    8SAPS   H9Y 1036   4.596   1.966   9.740 -2.2370 -0.7468  0.1048
    8SAPS  C310 1037   4.672   2.154   9.777 -0.9806  0.1067  0.0936
    8SAPS  H10X 1038   4.778   2.129   9.756 -0.9032  0.8524 -0.4783
    8SAPS  H10Y 1039   4.654   2.224   9.861  0.2424 -1.9104  2.1460
    8SAPS  C311 1040   4.597   2.211   9.651  0.1674 -0.0550  0.0897
    8SAPS  H11X 1041   4.501   2.254   9.687 -0.0900  0.2355 -0.9013
    8SAPS  H11Y 1042   4.563   2.127   9.588 -0.0775 -0.1770  0.3851
    8SAPS  C312 1043   4.670   2.326   9.585  0.1570 -0.2853  0.6900
    8SAPS  H12X 1044   4.689   2.399   9.666 -4.1158 -0.3074  1.9524
    8SAPS  H12Y 1045   4.609   2.378   9.508  1.7636 -1.2464 -1.3354
    8SAPS  C313 1046   4.804   2.310   9.514 -0.1400 -0.0861  0.5384
    8SAPS  H13X 1047   4.888   2.285   9.581  0.3970 -0.5633 -0.2982
    8SAPS  H13Y 1048   4.834   2.393   9.447 -0.4464  1.1491  1.8814
    8SAPS  C314 1049   4.808   2.192   9.415 -0.0430 -0.3665  0.5560
    8SAPS  H14X 1050   4.779   2.107   9.481 -2.7325 -0.1435 -0.2086
    8SAPS  H14Y 1051   4.909   2.175   9.371  0.4384  0.1966  1.4145
    8SAPS  C315 1052   4.700   2.201   9.314  0.3839 -0.6655  0.3507
    8SAPS  H15X 1053   4.711   2.292   9.252 -2.6370  0.2103  0.9228
    8SAPS  H15Y 1054   4.597   2.207   9.357 -0.1467 -1.1001 -0.8242
    8SAPS  C316 1055   4.712   2.094   9.203  0.0258  0.4526  0.1602
    8SAPS  H16X 1056   4.820   2.093   9.177  0.8084  1.1429  3.0660
    8SAPS  H16Y 1057   4.648   2.119   9.115 -1.4339 -2.7018  0.2033
    8SAPS  C317 1058   4.671   1.957   9.256  0.0686 -0.4526 -0.8739
    8SAPS  H17X 1059   4.576   1.971   9.312  1.2620 -0.2505  1.1911
    8SAPS  H17Y 1060   4.750   1.928   9.329 -2.4169 -4.0390  0.6963
    8SAPS  C318 1061   4.655   1.841   9.156  0.2822 -1.3948 -0.3704
    8SAPS  H18X 1062   4.555   1.848   9.108  0.4707 -0.0754 -0.5853
    8SAPS  H18Y 1063   4.669   1.744   9.210 -2.7449 -1.4218  0.5827
    8SAPS  H18Z 1064   4.731   1.850   9.076  0.7113  0.3076  0.1912
    9SAPS     N 1065   0.552   5.554   6.217  0.4204  0.6112  0.7113
    9SAPS   HN1 1066   0.509   5.608   6.295  0.3943  0.8389  0.5438
    9SAPS   HN2 1067   0.474   5.499   6.178  1.2257 -0.7357  0.9461
    9SAPS   HN3 1068   0.624   5.487   6.249  0.9871  0.5502 -0.6074
    9SAPS   C12 1069   0.619   5.638   6.127 -0.0119  0.1779  0.1596
    9SAPS  H12A 1070   0.684   5.578   6.064  0.7675  0.6370  0.5144
    9SAPS   C13 1071   0.522   5.723   6.032 -0.2376  0.6084  0.2713
    9SAPS  O13A 1072   0.400   5.701   6.031 -0.1134  0.2173  0.0358
    9SAPS  O13B 1073   0.585   5.764   5.928  0.2945 -0.4773  0.1946
    9SAPS   C11 1074   0.711   5.736   6.202 -0.0511 -0.3561  0.0033
    9SAPS  H11A 1075   0.653   5.818   6.250  1.1927 -0.6128  2.1250
    9SAPS  H11B 1076   0.774   5.796   6.133 -0.5886  1.6307  1.1611
    9SAPS     P 1077   0.868   5.744   6.402  0.6135 -0.0143 -0.0507
    9SAPS   O13 1078   0.956   5.648   6.472 -0.7286 -0.4201 -0.8223
    9SAPS   O14 1079   0.931   5.864   6.349 -0.1189  0.2853  0.1314
    9SAPS   O12 1080   0.797   5.659   6.288  0.1122 -0.1436  0.6161
    9SAPS   O11 1081   0.745   5.781   6.492 -0.1586 -0.3009 -0.0493
    9SAPS    C1 1082   0.727   5.915   6.535 -0.1689  0.0169  0.5945
    9SAPS    HA 1083   0.768   5.999   6.475  4.7424 -1.6969  1.1234
    9SAPS    HB 1084   0.622   5.950   6.525  0.6235  2.1339 -1.0170
    9SAPS    C2 1085   0.773   5.934   6.686 -0.7896 -0.6286  0.4347
    9SAPS    HS 1086   0.727   6.025   6.729  0.8705  1.3703 -1.7813
    9SAPS   O21 1087   0.922   5.945   6.688  0.5937  0.3716  0.4223
    9SAPS   C21 1088   0.973   6.067   6.704  0.7733  0.6305  0.3665
    9SAPS   O22 1089   0.902   6.166   6.724 -0.3355 -0.1944 -0.8533
    9SAPS   C22 1090   1.123   6.062   6.699 -0.6799 -0.2915  0.2174
    9SAPS   H2R 1091   1.166   5.966   6.665 -0.1561  0.5375 -1.5600
    9SAPS   H2S 1092   1.154   6.142   6.629 -0.3323 -0.1702  0.5067
    9SAPS    C3 1093   0.725   5.809   6.775  0.0420  0.2324  0.5260
    9SAPS    HX 1094   0.795   5.727   6.748  0.3103  0.2802  1.0596
    9SAPS    HY 1095   0.621   5.786   6.744 -0.4797  1.3265  1.3784
    9SAPS   O31 1096   0.720   5.845   6.911  0.3405  0.5661 -0.8205
    9SAPS   C31 1097   0.821   5.809   6.987 -0.1949 -0.8125 -0.6666
    9SAPS   O32 1098   0.921   5.748   6.949 -0.2524 -0.2849  0.1996
    9SAPS   C32 1099   0.806   5.862   7.127 -0.1057  0.5356 -0.1711
    9SAPS   H2X 1100   0.702   5.852   7.165  0.1027  0.9808  0.5302
    9SAPS   H2Y 1101   0.840   5.967   7.131  0.6625  0.2473  2.4915
    9SAPS   C23 1102   1.179   6.119   6.833 -0.7519  0.6561  0.1849
    9SAPS   H3R 1103   1.134   6.218   6.856 -0.9629 -0.0955  3.5358
    9SAPS   H3S 1104   1.288   6.133   6.816 -0.1707 -0.4976  2.5617
    9SAPS   C24 1105   1.177   6.021   6.951 -0.3398  0.1336  0.6816
    9SAPS   H4R 1106   1.068   6.006   6.962 -0.5814  0.4301 -1.0462
    9SAPS   H4S 1107   1.217   6.078   7.038 -1.8805  1.7083  0.4014
    9SAPS   C25 1108   1.249   5.894   6.929  0.5183  0.2353  0.2962
    9SAPS   H5R 1109   1.189   5.810   6.891 -0.6562  1.3054 -0.2999
    9SAPS   C26 1110   1.381   5.884   6.936  0.0797  0.1555 -0.8556
    9SAPS   H6R 1111   1.432   5.789   6.913 -0.5209 -0.4514  0.2244
    9SAPS   C27 1112   1.471   5.997   6.980  0.6125  0.1817  0.3900
    9SAPS   H7R 1113   1.534   5.961   7.064  1.0392 -1.7161 -0.6874
    9SAPS   H7S 1114   1.426   6.091   7.018  1.1546  0.5982  0.0145
    9SAPS   C28 1115   1.564   6.042   6.868 -0.4244  0.7249  0.5443
    9SAPS   H8R 1116   1.525   6.038   6.765 -0.5713 -1.7536  0.6443
    9SAPS   C29 1117   1.689   6.075   6.875 -0.1648 -0.0075  0.1706
    9SAPS   H9R 1118   1.738   6.119   6.787  1.7440 -2.9548 -0.3877
    9SAPS  C210 1119   1.779   6.067   6.996 -0.4701 -0.2217  0.6270
    9SAPS  H10R 1120   1.768   5.972   7.052 -0.1154  1.3208  3.4877
    9SAPS  H10S 1121   1.752   6.151   7.064 -0.7016 -0.9088  1.3934
    9SAPS  C211 1122   1.926   6.072   6.976 -0.2427 -0.1698 -0.4090
    9SAPS  H11R 1123   1.965   6.047   6.876 -0.1233  0.7835 -0.6183
    9SAPS  C212 1124   2.016   6.092   7.075  0.1600  0.4906 -0.9823
    9SAPS  H12R 1125   2.122   6.100   7.049  0.7814  1.0584  1.5593
    9SAPS  C213 1126   1.989   6.104   7.221  0.1748 -0.4735 -0.4457
    9SAPS  H13R 1127   1.882   6.116   7.248  1.1958  1.3578  3.5202
    9SAPS  H13S 1128   2.024   6.207   7.243 -0.9191 -0.3928  1.0817
    9SAPS  C214 1129   2.045   5.994   7.308  0.1566 -0.0035 -0.3590
    9SAPS  H14R 1130   2.000   5.899   7.275  0.4258 -0.3373  0.2256
    9SAPS  C215 1131   2.137   5.992   7.409  0.2848 -0.5957 -0.0555
    9SAPS  H15R 1132   2.153   5.896   7.460 -2.2652 -0.4621  1.1418
    9SAPS  C216 1133   2.203   6.113   7.472  0.2893  0.2856 -0.1169
    9SAPS  H16R 1134   2.167   6.213   7.440 -0.3019  0.6200  1.4843
    9SAPS  H16S 1135   2.306   6.115   7.433 -0.6255 -2.3667 -3.0711
    9SAPS  C217 1136   2.187   6.100   7.622 -0.5208 -0.4232 -0.1813
    9SAPS  H17R 1137   2.087   6.071   7.659 -0.9905  1.5721  0.2208
    9SAPS  H17S 1138   2.201   6.198   7.671  0.8834 -1.4595  1.6011
    9SAPS  C218 1139   2.295   6.009   7.682  0.0416  0.2166 -0.6503
    9SAPS  H18R 1140   2.395   6.023   7.634  0.1133  1.6955 -0.1216
    9SAPS  H18S 1141   2.284   5.904   7.647 -1.1388 -0.2480  1.0021
    9SAPS  C219 1142   2.312   6.027   7.838  0.1683 -0.5750 -0.0779
    9SAPS  H19R 1143   2.312   6.137   7.857  1.8268 -0.2732 -1.5475
    9SAPS  H19S 1144   2.415   5.995   7.860  1.1386  1.5285 -1.2118
    9SAPS  C220 1145   2.213   5.963   7.937 -0.0834 -0.4987  0.5705
    9SAPS  H20R 1146   2.197   5.855   7.916  0.4214 -0.2518 -1.2570
    9SAPS  H20S 1147   2.116   6.017   7.931  1.2675  1.9934 -0.1786
    9SAPS  H20T 1148   2.246   5.983   8.041 -1.6290  0.4904  0.9008
    9SAPS   C33 1149   0.896   5.785   7.232  0.4340  0.5308 -1.0979
    9SAPS   H3X 1150   1.001   5.766   7.202  1.2282 -0.2158  1.7962
    9SAPS   H3Y 1151   0.847   5.689   7.261  2.6807 -0.2349  0.4067
    9SAPS   C34 1152   0.919   5.870   7.360 -0.6593  0.6654  0.2016
    9SAPS   H4X 1153   0.819   5.885   7.405  0.5263  1.1279  2.8323
    9SAPS   H4Y 1154   0.980   5.962   7.355  1.6165 -0.8307 -3.0659
    9SAPS   C35 1155   0.999   5.778   7.461  0.0685 -0.7501  0.1982
    9SAPS   H5X 1156   1.093   5.747   7.410 -0.2570 -0.1403 -0.7958
    9SAPS   H5Y 1157   0.937   5.688   7.478 -0.4605 -0.9536 -2.4110
    9SAPS   C36 1158   1.026   5.838   7.599  0.7005  0.2315  0.5642
    9SAPS   H6X 1159   1.052   5.752   7.664  1.9584 -0.2438 -0.5342
    9SAPS   H6Y 1160   0.928   5.880   7.632 -0.7630 -0.9887 -1.8677
    9SAPS   C37 1161   1.130   5.950   7.592 -0.3484  0.1257 -0.3201
    9SAPS   H7X 1162   1.090   6.033   7.530 -1.2539 -1.7154 -2.3293
    9SAPS   H7Y 1163   1.212   5.914   7.526 -1.1799  0.0733 -1.3540
    9SAPS   C38 1164   1.164   6.022   7.722  0.8100 -0.9159 -0.3390
    9SAPS   H8X 1165   1.206   5.946   7.792 -0.5822 -0.3902  1.1195
    9SAPS   H8Y 1166   1.068   6.051   7.769  0.8473 -1.4975  0.1117
    9SAPS   C39 1167   1.262   6.135   7.714 -0.6852  0.5036  0.0117
    9SAPS   H9X 1168   1.203   6.213   7.662 -0.1813 -0.4517 -2.0857
    9SAPS   H9Y 1169   1.334   6.087   7.645  0.9643  2.9986 -0.1115
    9SAPS  C310 1170   1.331   6.186   7.839  0.3815  0.0961 -0.1664
    9SAPS  H10X 1171   1.394   6.275   7.816  0.8858  0.7581  3.2979
    9SAPS  H10Y 1172   1.385   6.106   7.895 -1.0080 -0.6359  0.1598
    9SAPS  C311 1173   1.227   6.248   7.941  0.8011 -0.0096  0.2845
    9SAPS  H11X 1174   1.132   6.191   7.948  0.1885  1.0115  0.5585
    9SAPS  H11Y 1175   1.203   6.352   7.910  0.7527 -0.0288  0.2567
    9SAPS  C312 1176   1.294   6.262   8.081 -0.2896 -0.4448  0.1404
    9SAPS  H12X 1177   1.358   6.175   8.106 -0.8532 -1.1205 -0.7319
    9SAPS  H12Y 1178   1.222   6.269   8.166  0.1066 -1.3432  0.5572
    9SAPS  C313 1179   1.359   6.396   8.096 -0.0003  0.3812 -0.1733
    9SAPS  H13X 1180   1.285   6.478   8.107  0.5326  0.9020 -0.4031
    9SAPS  H13Y 1181   1.420   6.429   8.009 -0.2039  1.0344 -0.0769
    9SAPS  C314 1182   1.450   6.401   8.219  0.4855 -0.3863 -0.5606
    9SAPS  H14X 1183   1.518   6.314   8.225  0.1404 -0.6482 -0.3599
    9SAPS  H14Y 1184   1.391   6.411   8.313  2.5764  1.9311  0.6253
    9SAPS  C315 1185   1.546   6.519   8.220 -0.0953 -0.2081  0.1109
    9SAPS  H15X 1186   1.608   6.535   8.129 -0.5680  1.3073  0.0277
    9SAPS  H15Y 1187   1.635   6.495   8.283  0.9898  2.1542 -0.4028
    9SAPS  C316 1188   1.489   6.655   8.274 -0.6607 -1.0559  0.0754
    9SAPS  H16X 1189   1.486   6.648   8.385 -2.0700 -1.0875  0.0516
    9SAPS  H16Y 1190   1.395   6.664   8.215 -1.1428  1.6323  1.0996
    9SAPS  C317 1191   1.568   6.782   8.233 -0.8634 -0.1780 -0.0644
    9SAPS  H17X 1192   1.664   6.779   8.290 -0.9264 -1.7448  0.0078
    9SAPS  H17Y 1193   1.503   6.866   8.266 -1.7298 -1.3132  1.2622
    9SAPS  C318 1194   1.587   6.810   8.080 -0.4513 -0.0775 -0.3079
    9SAPS  H18X 1195   1.494   6.797   8.021 -1.1073  2.0667  0.1659
    9SAPS  H18Y 1196   1.670   6.744   8.046  0.0031 -1.1330  2.5021
    9SAPS  H18Z 1197   1.633   6.911   8.071 -1.3402  0.2826 -0.8436
   10SAPS     N 1198   1.914   3.885   6.164 -0.2528 -0.6265  0.5804
   10SAPS   HN1 1199   1.824   3.844   6.196 -1.2392  1.1614  0.2437
   10SAPS   HN2 1200   1.971   3.804   6.134  0.1068  0.2409 -1.2372
   10SAPS   HN3 1201   1.963   3.936   6.240 -0.1532 -0.5354  0.4571
   10SAPS   C12 1202   1.887   3.968   6.045 -0.1607  0.7249 -0.2458
   10SAPS  H12A 1203   1.983   3.973   5.995  0.4549 -0.0651  0.8066
   10SAPS   C13 1204   1.784   3.897   5.961  0.8515 -0.4956  0.0590
   10SAPS  O13A 1205   1.762   3.776   5.955  0.3421 -0.0416  0.1830
   10SAPS  O13B 1206   1.754   3.967   5.859 -0.2808  0.2636 -0.1792
   10SAPS   C11 1207   1.836   4.106   6.096  0.0024  0.1628  0.8315
   10SAPS  H11A 1208   1.734   4.089   6.136 -0.4823  1.2493  0.1205
   10SAPS  H11B 1209   1.820   4.169   6.006  0.4267  0.5067  0.9907
   10SAPS     P 1210   1.878   4.275   6.292 -0.1105 -0.0215 -0.0898
   10SAPS   O13 1211   1.988   4.364   6.332 -0.2910  0.6622  0.6867
   10SAPS   O14 1212   1.758   4.346   6.243  0.5095 -0.1320  0.2063
   10SAPS   O12 1213   1.929   4.181   6.172 -0.1776  0.0306 -0.0329
   10SAPS   O11 1214   1.836   4.185   6.419 -0.1608  0.5683 -0.5308
   10SAPS    C1 1215   1.936   4.117   6.491 -0.0582 -0.0285 -0.0981
   10SAPS    HA 1216   1.989   4.048   6.422 -0.0776 -1.1117  0.9263
   10SAPS    HB 1217   2.014   4.187   6.527 -0.1547  0.4158 -0.7438
   10SAPS    C2 1218   1.864   4.038   6.601 -0.3024 -0.2461 -0.8064
   10SAPS    HS 1219   1.779   3.997   6.542  0.0442  0.7866 -2.0780
   10SAPS   O21 1220   1.821   4.137   6.700 -0.3696  0.3381  0.3110
   10SAPS   C21 1221   1.761   4.086   6.808  0.2953 -0.0842 -0.0524
   10SAPS   O22 1222   1.708   3.971   6.817 -0.4106 -0.4210 -0.1017
   10SAPS   C22 1223   1.755   4.191   6.907 -0.5010 -0.7870  0.0694
   10SAPS   H2R 1224   1.857   4.230   6.930 -0.5783 -0.4470 -0.1555
   10SAPS   H2S 1225   1.717   4.277   6.848 -3.5453 -1.2105  1.2293
   10SAPS    C3 1226   1.956   3.924   6.656  0.4533 -0.3193  0.2275
   10SAPS    HX 1227   1.988   3.868   6.566 -2.7276 -1.0249 -0.5957
   10SAPS    HY 1228   1.895   3.855   6.718 -1.2481  1.0206  0.1339
   10SAPS   O31 1229   2.073   3.984   6.728 -0.0639  0.7242 -0.1102
   10SAPS   C31 1230   2.168   3.886   6.744  0.1523  0.0564 -0.7137
   10SAPS   O32 1231   2.168   3.779   6.682 -0.8026 -0.0822 -0.8626
   10SAPS   C32 1232   2.267   3.926   6.854 -0.0243  0.5794 -0.5675
   10SAPS   H2X 1233   2.270   4.035   6.876 -0.0802  0.0148  2.7991
   10SAPS   H2Y 1234   2.364   3.891   6.813  0.2027 -0.3810  0.7263
   10SAPS   C23 1235   1.651   4.176   7.018 -0.3877  0.7541 -0.2293
   10SAPS   H3R 1236   1.667   4.086   7.080 -2.2334  1.0255  0.6903
   10SAPS   H3S 1237   1.549   4.164   6.976 -0.2015 -0.4242 -0.3624
   10SAPS   C24 1238   1.638   4.300   7.110 -0.1036 -0.2539 -0.4559
   10SAPS   H4R 1239   1.578   4.373   7.051  2.0492  1.2080 -0.9545
   10SAPS   H4S 1240   1.738   4.348   7.114 -0.7011  1.3733 -3.0961
   10SAPS   C25 1241   1.585   4.276   7.246  0.0606  0.3452 -0.2371
   10SAPS   H5R 1242   1.475   4.277   7.253 -0.1771  2.1417 -2.7963
   10SAPS   C26 1243   1.652   4.239   7.355 -0.0252  0.3637  0.2870
   10SAPS   H6R 1244   1.597   4.214   7.447  0.5758  1.5792  1.0064
   10SAPS   C27 1245   1.801   4.213   7.364 -0.3047 -0.8953 -0.0760
   10SAPS   H7R 1246   1.844   4.275   7.445 -0.0050 -0.4750 -0.5466
   10SAPS   H7S 1247   1.855   4.259   7.278 -0.8895  0.1319  0.0906
   10SAPS   C28 1248   1.834   4.064   7.378  0.1114 -0.4602 -0.4161
   10SAPS   H8R 1249   1.822   3.999   7.290 -2.0109  0.7046 -1.0469
   10SAPS   C29 1250   1.877   4.017   7.496  0.3814 -0.0067 -0.3312
   10SAPS   H9R 1251   1.885   3.908   7.506  1.3299  0.0343 -0.5583
   10SAPS  C210 1252   1.901   4.100   7.620 -0.3028  0.0193 -0.4946
   10SAPS  H10R 1253   1.838   4.191   7.633 -3.3561 -2.0597  0.3288
   10SAPS  H10S 1254   2.007   4.134   7.616 -0.1196 -0.5105 -0.1979
   10SAPS  C211 1255   1.884   4.018   7.750  0.3793 -0.9865  0.3317
   10SAPS  H11R 1256   1.876   3.909   7.738  1.9480 -1.3440  2.0110
   10SAPS  C212 1257   1.880   4.067   7.875 -0.3111 -0.6750 -0.3212
   10SAPS  H12R 1258   1.862   3.998   7.959  0.7769  1.2301  1.6108
   10SAPS  C213 1259   1.898   4.214   7.910  0.2540  0.1069 -0.0754
   10SAPS  H13R 1260   1.959   4.266   7.833 -1.3413  0.6152 -1.0430
   10SAPS  H13S 1261   1.954   4.221   8.006  2.1566 -0.7801 -1.0536
   10SAPS  C214 1262   1.764   4.279   7.934  0.5099 -0.3701  0.6368
   10SAPS  H14R 1263   1.674   4.216   7.941 -1.0475  1.3166 -2.2301
   10SAPS  C215 1264   1.743   4.417   7.943  0.6275  0.3819  0.3145
   10SAPS  H15R 1265   1.645   4.464   7.958 -0.0262  0.6057 -3.4946
   10SAPS  C216 1266   1.861   4.510   7.935 -0.3721  0.2062  0.4116
   10SAPS  H16R 1267   1.959   4.457   7.933 -0.7828 -0.5675 -0.0971
   10SAPS  H16S 1268   1.858   4.573   8.026  0.4880 -1.8702  1.9758
   10SAPS  C217 1269   1.862   4.599   7.808  0.5334  0.6209 -1.4051
   10SAPS  H17R 1270   1.931   4.683   7.830 -0.7988  1.3991  0.0196
   10SAPS  H17S 1271   1.758   4.632   7.790 -0.6477 -1.3299  1.1513
   10SAPS  C218 1272   1.916   4.521   7.685 -0.1743 -0.1038  0.0621
   10SAPS  H18R 1273   1.876   4.568   7.592  0.0891  0.7905  0.4006
   10SAPS  H18S 1274   1.878   4.416   7.681  0.8695 -0.4581 -1.0260
   10SAPS  C219 1275   2.068   4.538   7.677  0.4027  0.5544  0.3126
   10SAPS  H19R 1276   2.103   4.495   7.774  1.9457  1.7417  0.3175
   10SAPS  H19S 1277   2.109   4.641   7.677 -1.0009  1.1318 -0.1510
   10SAPS  C220 1278   2.139   4.464   7.563 -0.4287 -0.9492  0.1473
   10SAPS  H20R 1279   2.248   4.477   7.582 -0.3293  0.3017 -1.0891
   10SAPS  H20S 1280   2.120   4.512   7.464 -0.7692 -1.3068  0.0354
   10SAPS  H20T 1281   2.109   4.358   7.547  0.0084 -1.1810  0.8279
   10SAPS   C33 1282   2.244   3.852   6.989 -0.0268 -0.2165  0.1289
   10SAPS   H3X 1283   2.207   3.748   6.972 -1.6364  0.3890 -0.2868
   10SAPS   H3Y 1284   2.163   3.905   7.044  0.0764  0.2571 -0.1780
   10SAPS   C34 1285   2.375   3.835   7.072  0.3182 -0.4241  0.8920
   10SAPS   H4X 1286   2.436   3.927   7.082 -1.4908  0.7977  1.2389
   10SAPS   H4Y 1287   2.428   3.763   7.006  1.3736  1.4222 -0.3828
   10SAPS   C35 1288   2.348   3.784   7.206  0.0639  0.3437 -0.4713
   10SAPS   H5X 1289   2.272   3.704   7.217  0.9616 -0.2875  1.5947
   10SAPS   H5Y 1290   2.303   3.870   7.260 -1.9486 -0.2505 -1.0945
   10SAPS   C36 1291   2.479   3.746   7.272  0.6879 -0.7333 -0.3189
   10SAPS   H6X 1292   2.552   3.829   7.262  1.8423 -1.4816  1.3514
   10SAPS   H6Y 1293   2.528   3.656   7.229  0.8759 -1.2636  0.9489
   10SAPS   C37 1294   2.455   3.714   7.419  0.2202  0.4260 -0.6431
   10SAPS   H7X 1295   2.379   3.635   7.438 -0.7723  1.3853 -0.5509
   10SAPS   H7Y 1296   2.405   3.797   7.473  2.6265  2.3604 -1.2366
   10SAPS   C38 1297   2.585   3.678   7.494  0.3659 -0.4153  0.1242
   10SAPS   H8X 1298   2.662   3.756   7.478  0.0483 -0.2295 -0.5530
   10SAPS   H8Y 1299   2.615   3.582   7.446 -2.6281 -1.7889  0.7187
   10SAPS   C39 1300   2.565   3.647   7.642  0.1729 -0.7826  0.3867
   10SAPS   H9X 1301   2.646   3.587   7.687 -0.4618 -1.1031  1.1324
   10SAPS   H9Y 1302   2.483   3.572   7.652 -0.1387 -1.2825 -3.8828
   10SAPS  C310 1303   2.531   3.775   7.726  0.5419 -0.5069  0.5688
   10SAPS  H10X 1304   2.436   3.823   7.696  0.4277 -0.5011  0.9356
   10SAPS  H10Y 1305   2.613   3.850   7.717  3.1373 -3.2801 -0.6218
   10SAPS  C311 1306   2.511   3.755   7.874  0.0739  0.0953  0.3126
   10SAPS  H11X 1307   2.420   3.694   7.887  1.5887 -2.2809  0.5002
   10SAPS  H11Y 1308   2.498   3.854   7.922  0.8022 -0.2243  1.2101
   10SAPS  C312 1309   2.619   3.674   7.954 -0.4356 -0.3435 -0.3933
   10SAPS  H12X 1310   2.619   3.573   7.909 -1.6783  0.7468 -3.0816
   10SAPS  H12Y 1311   2.586   3.661   8.059 -0.8598  1.0772 -0.3291
   10SAPS  C313 1312   2.756   3.740   7.957 -0.3691 -0.3515 -0.3922
   10SAPS  H13X 1313   2.746   3.843   7.998  0.8027 -0.7936  1.0964
   10SAPS  H13Y 1314   2.806   3.752   7.859 -0.3531  1.0539 -0.2390
   10SAPS  C314 1315   2.854   3.669   8.051  0.5603 -0.2872 -1.4220
   10SAPS  H14X 1316   2.881   3.565   8.023  0.4524 -0.9005  0.5849
   10SAPS  H14Y 1317   2.801   3.665   8.149  0.5439  0.8338 -1.3724
   10SAPS  C315 1318   2.980   3.750   8.082  1.0577 -0.8727 -0.2490
   10SAPS  H15X 1319   2.948   3.855   8.101  0.2876 -1.0614 -0.4844
   10SAPS  H15Y 1320   3.048   3.757   7.994  1.0935  0.6050 -0.1434
   10SAPS  C316 1321   3.050   3.689   8.203  0.2211 -0.0123 -0.1815
   10SAPS  H16X 1322   3.066   3.583   8.173  0.2904 -1.0678  3.1553
   10SAPS  H16Y 1323   2.991   3.706   8.296 -0.3170 -0.1751 -0.4896
   10SAPS  C317 1324   3.184   3.750   8.239 -0.3015  0.4379  0.7487
   10SAPS  H17X 1325   3.248   3.713   8.157  0.9601  1.5592  1.1870
   10SAPS  H17Y 1326   3.219   3.693   8.328  0.7085 -2.2523 -1.2640
   10SAPS  C318 1327   3.191   3.901   8.246 -0.3644 -0.2288  0.4511
   10SAPS  H18X 1328   3.174   3.944   8.145  1.1370  0.1460  0.3464
   10SAPS  H18Y 1329   3.290   3.930   8.287  0.2669 -0.6592 -0.7222
   10SAPS  H18Z 1330   3.108   3.936   8.312  1.8829  0.6616  2.9757
   11SAPS     N 1331   2.557   0.510   6.034 -0.4078  0.0951 -0.4738
   11SAPS   HN1 1332   2.605   0.562   6.110  0.3429 -0.2919 -0.6817
   11SAPS   HN2 1333   2.471   0.555   5.996 -2.5075 -1.5348  1.9791
   11SAPS   HN3 1334   2.514   0.426   6.076 -0.7410  0.1209 -0.7543
   11SAPS   C12 1335   2.660   0.460   5.934  0.0688  0.3798 -0.2211
   11SAPS  H12A 1336   2.729   0.538   5.904 -0.0750  0.3494 -0.6385
   11SAPS   C13 1337   2.753   0.341   5.975  0.0987 -0.0632  0.4081
   11SAPS  O13A 1338   2.735   0.283   6.089  0.3153 -0.5282 -0.2331
   11SAPS  O13B 1339   2.843   0.309   5.891 -0.1964 -0.2703  1.0909
   11SAPS   C11 1340   2.589   0.410   5.803 -0.1483 -0.7066 -0.0873
   11SAPS  H11A 1341   2.671   0.383   5.732  1.9385  0.6368  1.6597
   11SAPS  H11B 1342   2.546   0.496   5.747  1.2374 -0.7666 -1.3061
   11SAPS     P 1343   2.462   0.184   5.741 -0.2731 -0.0247  0.0578
   11SAPS   O13 1344   2.350   0.212   5.646 -0.4771 -0.1913 -0.1008
   11SAPS   O14 1345   2.591   0.148   5.679  0.2724 -0.0856  0.2686
   11SAPS   O12 1346   2.496   0.305   5.834  0.4335 -0.2745 -0.0624
   11SAPS   O11 1347   2.412   0.070   5.841 -0.2215 -0.1771  0.2487
   11SAPS    C1 1348   2.291   0.088   5.912 -0.0358 -0.5383 -0.4409
   11SAPS    HA 1349   2.213   0.133   5.848  1.7332  2.6394 -0.5460
   11SAPS    HB 1350   2.248  -0.011   5.939 -1.2213 -0.3075 -1.4133
   11SAPS    C2 1351   2.298   0.173   6.041  0.4818 -0.1328  0.0699
   11SAPS    HS 1352   2.310   0.281   6.017 -2.6231  0.6041  1.3271
   11SAPS   O21 1353   2.412   0.115   6.110  0.5860 -0.2504  0.5330
   11SAPS   C21 1354   2.470   0.200   6.188 -0.3713  0.3214  0.2492
   11SAPS   O22 1355   2.452   0.318   6.196 -0.2817  0.9629  0.2579
   11SAPS   C22 1356   2.563   0.122   6.290 -0.9089 -0.4401  0.6416
   11SAPS   H2R 1357   2.622   0.045   6.237  0.7565  1.4192 -0.3485
   11SAPS   H2S 1358   2.646   0.191   6.318 -1.1854  0.3381 -0.3796
   11SAPS    C3 1359   2.162   0.163   6.115  0.1672  0.2993 -0.3092
   11SAPS    HX 1360   2.150   0.061   6.156  0.9946  1.1932  2.4198
   11SAPS    HY 1361   2.072   0.182   6.054  0.6373 -1.8473 -1.7970
   11SAPS   O31 1362   2.159   0.252   6.229  0.2381  1.0350  0.5244
   11SAPS   C31 1363   2.068   0.230   6.321 -1.0887  0.2011 -1.1205
   11SAPS   O32 1364   1.982   0.144   6.312  0.1377 -0.4777 -0.3019
   11SAPS   C32 1365   2.076   0.336   6.438 -0.0380 -0.5413  0.5939
   11SAPS   H2X 1366   2.013   0.425   6.414  2.4903  1.1736 -0.1552
   11SAPS   H2Y 1367   2.183   0.366   6.432 -0.1426 -0.3346 -0.5148
   11SAPS   C23 1368   2.480   0.051   6.405 -0.5781 -0.4248  0.2960
   11SAPS   H3R 1369   2.571  -0.002   6.439  0.3487 -0.4472 -2.0279
   11SAPS   H3S 1370   2.407  -0.024   6.367  3.7261 -2.7125 -4.8375
   11SAPS   C24 1371   2.437   0.151   6.510  0.5596  0.1655  0.2828
   11SAPS   H4R 1372   2.346   0.208   6.480  0.4434  0.2216  0.7336
   11SAPS   H4S 1373   2.512   0.232   6.514  0.1506  0.6845 -1.6400
   11SAPS   C25 1374   2.407   0.086   6.649 -0.3499  0.4071  0.7069
   11SAPS   H5R 1375   2.331   0.010   6.626  1.3121 -0.7757 -1.2359
   11SAPS   C26 1376   2.479   0.094   6.764  0.1159  0.1178 -0.1401
   11SAPS   H6R 1377   2.450   0.035   6.851  1.4424  0.0394  0.2788
   11SAPS   C27 1378   2.598   0.177   6.783 -0.4791 -0.0582 -0.6041
   11SAPS   H7R 1379   2.612   0.191   6.892  1.7401  0.4465 -0.9091
   11SAPS   H7S 1380   2.583   0.279   6.740  2.4418  0.9081  0.3955
   11SAPS   C28 1381   2.727   0.127   6.715  0.8417  0.0473 -0.0565
   11SAPS   H8R 1382   2.720   0.134   6.605  2.9137 -0.8409 -0.2800
   11SAPS   C29 1383   2.838   0.088   6.767 -0.2473  0.1373 -0.3061
   11SAPS   H9R 1384   2.919   0.052   6.703  0.0151  2.3736 -1.3064
   11SAPS  C210 1385   2.844   0.074   6.918 -0.3748 -0.3196  0.5966
   11SAPS  H10R 1386   2.826  -0.034   6.940 -0.8164 -0.1722  0.9684
   11SAPS  H10S 1387   2.769   0.132   6.975  0.4616 -0.0752  1.4778
   11SAPS  C211 1388   2.982   0.127   6.952  0.2317 -0.5244 -0.5144
   11SAPS  H11R 1389   3.069   0.092   6.895  0.1340 -1.2275 -0.2450
   11SAPS  C212 1390   3.015   0.207   7.056 -0.2197 -0.2199  0.4741
   11SAPS  H12R 1391   3.122   0.233   7.059  0.2745 -1.4965 -2.2920
   11SAPS  C213 1392   2.927   0.266   7.169 -0.0354 -0.2610  0.3819
   11SAPS  H13R 1393   2.865   0.186   7.216 -0.4370 -0.9855 -1.3082
   11SAPS  H13S 1394   2.851   0.341   7.138  1.9457  0.8026 -2.2392
   11SAPS  C214 1395   3.002   0.345   7.281  1.2619  0.6465  0.4732
   11SAPS  H14R 1396   3.084   0.407   7.243  1.0011 -0.2326 -1.6642
   11SAPS  C215 1397   2.973   0.353   7.410 -0.5189  0.6867 -0.1941
   11SAPS  H15R 1398   3.048   0.413   7.463 -0.6465  0.5448  0.1528
   11SAPS  C216 1399   2.870   0.294   7.503  0.4307  0.4051  0.4981
   11SAPS  H16R 1400   2.781   0.265   7.443 -0.7607  0.7591  2.0193
   11SAPS  H16S 1401   2.822   0.368   7.571 -0.5481 -0.8332  1.1837
   11SAPS  C217 1402   2.919   0.165   7.577  0.5429  0.2693  1.1147
   11SAPS  H17R 1403   3.025   0.180   7.607  0.3783  0.2371  1.7264
   11SAPS  H17S 1404   2.908   0.090   7.495  3.0245  1.1446 -0.1312
   11SAPS  C218 1405   2.845   0.125   7.701 -0.0008  0.0376  0.3536
   11SAPS  H18R 1406   2.749   0.101   7.649  0.3069  0.0749 -0.2375
   11SAPS  H18S 1407   2.839   0.216   7.764  0.4776 -0.3762  1.0076
   11SAPS  C219 1408   2.915   0.006   7.772 -0.7256 -0.1518  0.3932
   11SAPS  H19R 1409   3.012   0.043   7.811 -1.3282  0.9080  0.9396
   11SAPS  H19S 1410   2.927  -0.086   7.711 -2.1794  0.2385 -0.5291
   11SAPS  C220 1411   2.840  -0.030   7.900  1.5093 -0.1301 -0.1682
   11SAPS  H20R 1412   2.858   0.043   7.982 -2.0872  0.5270  0.2083
   11SAPS  H20S 1413   2.865  -0.128   7.946  0.0239  0.2257  1.5369
   11SAPS  H20T 1414   2.732  -0.040   7.875  0.9289 -0.0880  2.1207
   11SAPS   C33 1415   2.046   0.287   6.588  0.2048  0.1962  0.4470
   11SAPS   H3X 1416   2.104   0.196   6.613 -1.3775 -0.3969  2.1686
   11SAPS   H3Y 1417   1.937   0.272   6.580  0.5281 -1.8858 -0.8235
   11SAPS   C34 1418   2.072   0.387   6.702 -0.1614 -0.0985 -0.4949
   11SAPS   H4X 1419   2.154   0.454   6.667  0.9732 -1.3634 -0.3608
   11SAPS   H4Y 1420   2.122   0.337   6.789 -0.2899 -0.0480 -0.3907
   11SAPS   C35 1421   1.948   0.453   6.763 -0.0811 -0.3328  0.2667
   11SAPS   H5X 1422   1.894   0.382   6.829  1.3194 -1.1096  0.6225
   11SAPS   H5Y 1423   1.885   0.485   6.677 -0.0353 -1.3123 -0.1390
   11SAPS   C36 1424   1.967   0.583   6.843 -0.0616 -0.0635  0.3759
   11SAPS   H6X 1425   1.874   0.642   6.853  0.5109  1.0437 -0.5567
   11SAPS   H6Y 1426   2.025   0.652   6.778 -0.4583 -0.0338  0.0476
   11SAPS   C37 1427   2.036   0.564   6.977 -1.0881  0.1095 -0.0984
   11SAPS   H7X 1428   2.068   0.663   7.017  0.8362 -0.5345  0.0368
   11SAPS   H7Y 1429   2.136   0.517   6.967  0.6059  3.0327  1.6859
   11SAPS   C38 1430   1.966   0.482   7.082  0.5782  0.1064 -0.0555
   11SAPS   H8X 1431   1.921   0.388   7.045 -0.3485  0.8094 -0.7550
   11SAPS   H8Y 1432   1.885   0.548   7.118  0.1083 -0.3057 -0.3463
   11SAPS   C39 1433   2.062   0.439   7.196 -0.1906  0.2058  0.2811
   11SAPS   H9X 1434   2.138   0.374   7.147  0.1627 -1.2378  2.5944
   11SAPS   H9Y 1435   2.001   0.371   7.260 -0.4499  0.2551  0.0844
   11SAPS  C310 1436   2.116   0.553   7.278 -0.2709 -0.0213  0.3010
   11SAPS  H10X 1437   2.044   0.637   7.280 -0.2219  0.0251  0.1133
   11SAPS  H10Y 1438   2.200   0.584   7.213 -1.5725  0.7004 -1.1045
   11SAPS  C311 1439   2.168   0.518   7.414 -0.3946  0.7849  0.3025
   11SAPS  H11X 1440   2.223   0.422   7.405 -0.1597  1.0236 -0.9422
   11SAPS  H11Y 1441   2.096   0.508   7.498 -1.0260 -2.0828 -0.4791
   11SAPS  C312 1442   2.277   0.611   7.470  0.2408  0.4107 -0.1103
   11SAPS  H12X 1443   2.242   0.712   7.503 -1.4698 -0.2347  0.1605
   11SAPS  H12Y 1444   2.351   0.633   7.391  0.5314  1.9783  0.5398
   11SAPS  C313 1445   2.344   0.555   7.595 -0.2280  0.2330  0.0873
   11SAPS  H13X 1446   2.424   0.483   7.567 -1.2921 -0.5318 -1.1288
   11SAPS  H13Y 1447   2.270   0.498   7.655  1.8072 -1.8153  0.8089
   11SAPS  C314 1448   2.411   0.664   7.676 -0.3761  0.2996 -0.2117
   11SAPS  H14X 1449   2.346   0.751   7.701 -0.0879  0.8941 -1.4519
   11SAPS  H14Y 1450   2.491   0.708   7.612  0.4484 -1.9110 -0.7647
   11SAPS  C315 1451   2.482   0.617   7.804 -0.0091  0.4155 -0.1838
   11SAPS  H15X 1452   2.537   0.699   7.856  1.6155 -0.4379 -0.4800
   11SAPS  H15Y 1453   2.570   0.551   7.789 -0.6036 -0.0885 -1.5215
   11SAPS  C316 1454   2.394   0.544   7.905 -0.4593 -0.2269  0.0164
   11SAPS  H16X 1455   2.364   0.443   7.872  2.5154 -0.7862 -1.2684
   11SAPS  H16Y 1456   2.308   0.612   7.925  0.9985  1.2319  1.6583
   11SAPS  C317 1457   2.454   0.541   8.048 -0.3470 -1.5201  0.0391
   11SAPS  H17X 1458   2.553   0.492   8.035  0.2674 -0.4452  0.4126
   11SAPS  H17Y 1459   2.390   0.482   8.117 -0.0016  2.3182  4.1449
   11SAPS  C318 1460   2.484   0.681   8.107  0.3260  0.1787 -0.0788
   11SAPS  H18X 1461   2.555   0.737   8.042  0.1230  1.4030  0.7377
   11SAPS  H18Y 1462   2.520   0.658   8.209 -1.9940 -0.2000  0.7141
   11SAPS  H18Z 1463   2.389   0.737   8.120  0.4257  0.0359  1.3790
   12SAPS     N 1464   0.106   0.668   6.116 -0.4288 -0.2264  0.1705
   12SAPS   HN1 1465   0.078   0.767   6.109 -2.2416 -0.7633 -0.8598
   12SAPS   HN2 1466   0.014   0.619   6.110 -0.6829  0.4544 -3.2155
   12SAPS   HN3 1467   0.165   0.648   6.199 -1.4009  1.1451  1.2314
   12SAPS   C12 1468   0.181   0.630   5.995 -0.6953  0.2426 -0.0834
   12SAPS  H12A 1469   0.176   0.524   5.977 -2.6150  0.6097 -2.1167
   12SAPS   C13 1470   0.129   0.700   5.871  0.7175  0.7798  1.1440
   12SAPS  O13A 1471   0.023   0.774   5.867 -0.0440 -1.0412 -0.1501
   12SAPS  O13B 1472   0.165   0.646   5.763 -0.0394  0.1400  0.3558
   12SAPS   C11 1473   0.330   0.681   6.017  0.3040  0.2444 -0.1069
   12SAPS  H11A 1474   0.329   0.790   6.038  1.4059  0.5696 -1.5268
   12SAPS  H11B 1475   0.382   0.660   5.921  2.0686  2.4256  0.2861
   12SAPS     P 1476   0.477   0.487   6.088  0.1615  0.6882 -0.0609
   12SAPS   O13 1477   0.400   0.389   6.007  0.0176  0.3496 -0.6547
   12SAPS   O14 1478   0.605   0.536   6.040  0.6684  0.2648  0.1193
   12SAPS   O12 1479   0.382   0.599   6.124  0.3098  0.0868 -0.8438
   12SAPS   O11 1480   0.495   0.425   6.229  0.1843 -0.1746  0.3111
   12SAPS    C1 1481   0.535   0.515   6.331  0.1024  0.0643  0.2072
   12SAPS    HA 1482   0.642   0.542   6.323 -0.2891  1.6568 -0.0020
   12SAPS    HB 1483   0.478   0.611   6.331 -0.4705 -0.2556  1.2394
   12SAPS    C2 1484   0.515   0.441   6.478  0.0464  0.3424  0.0976
   12SAPS    HS 1485   0.525   0.512   6.563  1.3381 -0.4714  0.6597
   12SAPS   O21 1486   0.624   0.345   6.492  0.5228 -0.0294 -0.2147
   12SAPS   C21 1487   0.753   0.393   6.500  0.0039  0.1875  0.6550
   12SAPS   O22 1488   0.781   0.512   6.501  0.4338  0.1929 -0.3088
   12SAPS   C22 1489   0.847   0.271   6.493 -0.2666 -0.4027  0.0291
   12SAPS   H2R 1490   0.803   0.173   6.520  0.5669 -0.3952  1.5564
   12SAPS   H2S 1491   0.870   0.266   6.385 -0.7323  1.4526 -0.1962
   12SAPS    C3 1492   0.376   0.376   6.504 -0.0641  0.0688 -0.1093
   12SAPS    HX 1493   0.359   0.325   6.407  3.6996 -0.4113 -0.6642
   12SAPS    HY 1494   0.289   0.445   6.513 -0.1920 -0.2650  1.4425
   12SAPS   O31 1495   0.390   0.275   6.607  0.2836 -0.1024 -0.5740
   12SAPS   C31 1496   0.376   0.336   6.735  0.2817  0.4906  0.2836
   12SAPS   O32 1497   0.326   0.443   6.757  0.2426  0.0636 -0.4170
   12SAPS   C32 1498   0.431   0.240   6.848  0.4785  0.0910 -0.1326
   12SAPS   H2X 1499   0.501   0.172   6.794  0.1388  0.9601 -1.7318
   12SAPS   H2Y 1500   0.348   0.182   6.892  1.4615 -1.2858 -0.0317
   12SAPS   C23 1501   0.969   0.300   6.581  0.0446 -0.0514  0.5590
   12SAPS   H3R 1502   0.931   0.308   6.685 -2.4513 -0.6925 -0.2310
   12SAPS   H3S 1503   1.022   0.392   6.547  1.8544 -1.8277 -1.6969
   12SAPS   C24 1504   1.069   0.180   6.581 -0.1237 -0.2656  0.1102
   12SAPS   H4R 1505   1.103   0.165   6.477 -1.7345  0.7015 -0.5973
   12SAPS   H4S 1506   1.007   0.092   6.605  0.1869 -0.0707  1.7347
   12SAPS   C25 1507   1.184   0.217   6.669  0.4402 -0.5414  0.0882
   12SAPS   H5R 1508   1.275   0.261   6.626  0.8296 -0.3378  1.0914
   12SAPS   C26 1509   1.186   0.184   6.805  0.4515  0.7932 -0.0621
   12SAPS   H6R 1510   1.285   0.196   6.851  1.2589 -0.2665 -1.4692
   12SAPS   C27 1511   1.075   0.115   6.887 -0.4009 -0.3496 -0.2963
   12SAPS   H7R 1512   1.121   0.025   6.934  0.5294  0.8307  1.1546
   12SAPS   H7S 1513   0.997   0.072   6.820 -3.6167  1.8774  1.7397
   12SAPS   C28 1514   1.010   0.193   6.997  0.1118  0.0888  0.8634
   12SAPS   H8R 1515   0.911   0.231   6.969  0.6115  1.1705  0.4973
   12SAPS   C29 1516   1.062   0.227   7.115 -0.7133 -0.2821 -0.7910
   12SAPS   H9R 1517   0.997   0.290   7.178 -1.8975 -1.3965 -0.8694
   12SAPS  C210 1518   1.193   0.186   7.182  0.8042 -0.0668  0.4030
   12SAPS  H10R 1519   1.278   0.227   7.123 -0.8003 -0.0160 -2.0267
   12SAPS  H10S 1520   1.196   0.075   7.176 -0.3597 -0.0761 -0.2920
   12SAPS  C211 1521   1.203   0.222   7.321 -0.0354  0.5583 -0.0906
   12SAPS  H11R 1522   1.241   0.320   7.351  4.5784 -0.9805 -0.1400
   12SAPS  C212 1523   1.178   0.144   7.424 -0.9692  0.1658  0.4300
   12SAPS  H12R 1524   1.181   0.190   7.524 -0.3347  0.2332  0.3846
   12SAPS  C213 1525   1.146  -0.004   7.412 -0.1372 -0.4150  0.2909
   12SAPS  H13R 1526   1.241  -0.059   7.395 -0.9987 -1.9412  0.2615
   12SAPS  H13S 1527   1.080  -0.022   7.324 -1.1100 -0.8835  1.0916
   12SAPS  C214 1528   1.087  -0.074   7.533  0.0913 -0.0551 -0.7461
   12SAPS  H14R 1529   0.977  -0.069   7.520  0.2173 -1.7662 -3.3662
   12SAPS  C215 1530   1.152  -0.127   7.637 -0.0175  0.2709 -0.4630
   12SAPS  H15R 1531   1.086  -0.175   7.710 -2.0813  2.6976 -0.6069
   12SAPS  C216 1532   1.301  -0.116   7.652  0.5531 -0.2184  0.0686
   12SAPS  H16R 1533   1.340  -0.021   7.693 -0.4760  1.6855 -3.0015
   12SAPS  H16S 1534   1.346  -0.113   7.551  1.1701 -0.2121  0.3399
   12SAPS  C217 1535   1.363  -0.223   7.752 -0.5754 -0.1193  0.3788
   12SAPS  H17R 1536   1.329  -0.323   7.715  0.1132 -0.1144 -0.3042
   12SAPS  H17S 1537   1.312  -0.199   7.847 -0.5763  1.6431 -0.0380
   12SAPS  C218 1538   1.515  -0.214   7.767 -0.4804 -0.1801 -0.1293
   12SAPS  H18R 1539   1.555  -0.290   7.837 -0.1098 -0.6351 -0.8292
   12SAPS  H18S 1540   1.557  -0.122   7.813  0.0747 -0.6112  0.2411
   12SAPS  C219 1541   1.591  -0.241   7.638  0.2700 -0.4508  0.1420
   12SAPS  H19R 1542   1.585  -0.159   7.564 -2.8068 -0.4169  0.3172
   12SAPS  H19S 1543   1.544  -0.328   7.587  0.9903  0.3504 -2.0293
   12SAPS  C220 1544   1.739  -0.289   7.662  0.8368 -0.2861 -0.7281
   12SAPS  H20R 1545   1.775  -0.373   7.599  1.4873 -2.0973  1.8557
   12SAPS  H20S 1546   1.739  -0.343   7.759  0.5946 -0.4234 -0.8036
   12SAPS  H20T 1547   1.816  -0.210   7.653 -1.0084  1.6008 -0.8959
   12SAPS   C33 1548   0.500   0.320   6.958  0.0465  0.4689  0.6109
   12SAPS   H3X 1549   0.436   0.392   7.013 -1.3509  0.6926 -1.1901
   12SAPS   H3Y 1550   0.587   0.373   6.915 -0.4190  1.4502  0.8457
   12SAPS   C34 1551   0.560   0.221   7.065  0.1833  0.4067  0.3761
   12SAPS   H4X 1552   0.626   0.147   7.016  0.1079  0.0860  0.7498
   12SAPS   H4Y 1553   0.480   0.168   7.121  0.4947  0.3438  0.7732
   12SAPS   C35 1554   0.645   0.301   7.172  0.0903 -0.0349 -0.1942
   12SAPS   H5X 1555   0.582   0.382   7.213 -1.2232 -0.5684 -1.1010
   12SAPS   H5Y 1556   0.734   0.342   7.119 -0.6045  0.9547 -0.6218
   12SAPS   C36 1557   0.677   0.207   7.289  0.5709 -0.3979  0.6775
   12SAPS   H6X 1558   0.737   0.122   7.251  0.2941 -0.4765  0.4044
   12SAPS   H6Y 1559   0.585   0.161   7.332  1.2402  0.0956  2.7349
   12SAPS   C37 1560   0.761   0.268   7.398 -0.5580 -0.2737 -0.4356
   12SAPS   H7X 1561   0.716   0.366   7.424  0.3637  0.0720 -0.1224
   12SAPS   H7Y 1562   0.865   0.281   7.362 -1.0689 -1.3286 -2.4363
   12SAPS   C38 1563   0.767   0.173   7.521  0.5605 -0.2514 -0.4257
   12SAPS   H8X 1564   0.790   0.067   7.500  1.2284 -0.8805  2.8935
   12SAPS   H8Y 1565   0.664   0.177   7.561  0.0342 -2.1464 -1.4797
   12SAPS   C39 1566   0.862   0.250   7.620  0.8552 -0.6898 -0.0863
   12SAPS   H9X 1567   0.820   0.352   7.639 -1.3037 -1.3217 -1.1310
   12SAPS   H9Y 1568   0.960   0.281   7.577  0.6563  0.4429  0.2394
   12SAPS  C310 1569   0.890   0.171   7.750 -0.7577 -0.1904  0.0871
   12SAPS  H10X 1570   0.908   0.065   7.723  0.6194  0.4253 -1.5932
   12SAPS  H10Y 1571   0.792   0.174   7.802 -2.5626  2.1445 -3.0275
   12SAPS  C311 1572   1.004   0.231   7.827 -0.3588 -0.4615  0.4271
   12SAPS  H11X 1573   1.006   0.341   7.811  2.4186 -0.7174 -1.8323
   12SAPS  H11Y 1574   1.098   0.204   7.772 -1.6067  0.5362 -2.3999
   12SAPS  C312 1575   1.008   0.196   7.974 -0.2635  0.6024 -0.0968
   12SAPS  H12X 1576   0.990   0.087   7.989 -2.5490  0.7142 -1.4498
   12SAPS  H12Y 1577   0.929   0.248   8.032  1.9705  1.3850  2.4413
   12SAPS  C313 1578   1.148   0.228   8.032  1.0774  1.1043  0.0057
   12SAPS  H13X 1579   1.167   0.335   8.012 -2.6448  1.8581 -0.2729
   12SAPS  H13Y 1580   1.215   0.153   7.985 -0.2931  0.1392 -0.4649
   12SAPS  C314 1581   1.162   0.208   8.187  0.5677 -0.0197  0.3057
   12SAPS  H14X 1582   1.124   0.105   8.205 -0.9229  0.6874  1.4067
   12SAPS  H14Y 1583   1.081   0.269   8.231  0.9735  1.0381 -0.3610
   12SAPS  C315 1584   1.303   0.233   8.238 -0.0102 -0.6894 -0.5810
   12SAPS  H15X 1585   1.375   0.180   8.172  0.9014  1.7957 -1.7346
   12SAPS  H15Y 1586   1.315   0.195   8.341 -1.7712 -0.0345 -0.1053
   12SAPS  C316 1587   1.348   0.382   8.229  1.3906  0.4818  0.0145
   12SAPS  H16X 1588   1.271   0.438   8.287  2.3839  0.5636  1.2954
   12SAPS  H16Y 1589   1.349   0.423   8.125  0.5710  2.4959  0.7447
   12SAPS  C317 1590   1.479   0.410   8.297  0.0128  0.0898  0.5322
   12SAPS  H17X 1591   1.512   0.512   8.265  0.8768 -0.1831  0.5221
   12SAPS  H17Y 1592   1.562   0.343   8.267 -1.7321 -2.1186  0.3799
   12SAPS  C318 1593   1.464   0.408   8.455  0.1683  0.1907 -0.2585
   12SAPS  H18X 1594   1.378   0.472   8.485 -0.3156 -1.0303  1.1157
   12SAPS  H18Y 1595   1.561   0.447   8.493  0.7675  0.7366 -2.2227
   12SAPS  H18Z 1596   1.425   0.311   8.493 -0.0718  0.2018 -0.4724
   13SAPS     N 1597   4.671   4.250   5.953  0.0276 -0.6835 -0.6938
   13SAPS   HN1 1598   4.631   4.206   5.868 -0.9555 -2.3835  0.5693
   13SAPS   HN2 1599   4.704   4.172   6.013  0.0455 -2.2456 -2.6435
   13SAPS   HN3 1600   4.598   4.298   6.011  1.6351  0.4653  0.4689
   13SAPS   C12 1601   4.776   4.341   5.922 -0.0534  0.1908 -0.2291
   13SAPS  H12A 1602   4.840   4.298   5.846 -0.6803 -0.5204 -0.3732
   13SAPS   C13 1603   4.731   4.478   5.862 -0.1663  0.3901 -0.0214
   13SAPS  O13A 1604   4.608   4.492   5.846 -0.0102  0.8730 -0.6942
   13SAPS  O13B 1605   4.820   4.566   5.853  0.2349 -0.2754 -0.5189
   13SAPS   C11 1606   4.857   4.360   6.054  0.2937  0.0686 -0.3545
   13SAPS  H11A 1607   4.792   4.423   6.120 -0.5122 -0.9750 -0.1118
   13SAPS  H11B 1608   4.945   4.421   6.026  0.9620 -0.6193  0.2222
   13SAPS     P 1609   5.038   4.193   6.144  0.2137  0.8578 -0.0762
   13SAPS   O13 1610   5.052   4.096   6.260 -1.0911 -0.5973  0.0982
   13SAPS   O14 1611   5.089   4.147   6.016  0.0262  0.1643 -0.3463
   13SAPS   O12 1612   4.889   4.237   6.121  0.3476  0.2448  0.6739
   13SAPS   O11 1613   5.097   4.329   6.181  0.0494 -0.2759 -0.2869
   13SAPS    C1 1614   5.055   4.421   6.281  0.2502  1.0053 -0.1737
   13SAPS    HA 1615   5.036   4.523   6.241  1.7685  2.5709  2.7838
   13SAPS    HB 1616   4.959   4.392   6.329  0.0362  1.0241 -0.5813
   13SAPS    C2 1617   5.160   4.437   6.386  0.2296 -0.2653  0.2333
   13SAPS    HS 1618   5.256   4.440   6.331  0.0895  1.1636  0.0285
   13SAPS   O21 1619   5.147   4.332   6.494  0.1154 -0.4371 -0.2956
   13SAPS   C21 1620   5.260   4.274   6.519  0.0572  0.0046 -0.3387
   13SAPS   O22 1621   5.365   4.292   6.464 -0.3307 -0.1198  0.3210
   13SAPS   C22 1622   5.236   4.160   6.620  0.5459  0.4302  0.1129
   13SAPS   H2R 1623   5.179   4.084   6.563  0.8284  0.8207 -0.7021
   13SAPS   H2S 1624   5.328   4.113   6.660  0.1770 -0.0462  0.4150
   13SAPS    C3 1625   5.150   4.579   6.456  0.0559 -0.5472 -0.0653
   13SAPS    HX 1626   5.062   4.562   6.522 -0.8461 -2.9784 -1.7686
   13SAPS    HY 1627   5.114   4.658   6.388 -0.8099 -1.8850 -1.2032
   13SAPS   O31 1628   5.271   4.613   6.530  0.2485  0.8196  0.2284
   13SAPS   C31 1629   5.360   4.677   6.457 -0.4335  0.4411 -0.1502
   13SAPS   O32 1630   5.352   4.707   6.340 -0.7169 -0.2819  0.8489
   13SAPS   C32 1631   5.472   4.718   6.553 -0.3331 -0.6517 -0.1294
   13SAPS   H2X 1632   5.419   4.748   6.646 -1.9895  1.8321 -1.7543
   13SAPS   H2Y 1633   5.514   4.807   6.503  0.4131 -2.5245 -3.0890
   13SAPS   C23 1634   5.151   4.210   6.734 -0.7687 -0.3879 -0.1504
   13SAPS   H3R 1635   5.131   4.126   6.804  1.3297 -1.5315 -0.8423
   13SAPS   H3S 1636   5.049   4.251   6.716 -0.9922 -0.3183  1.1758
   13SAPS   C24 1637   5.233   4.314   6.820 -0.4305  0.1917  0.3584
   13SAPS   H4R 1638   5.263   4.399   6.755  1.3047 -0.7026 -0.0598
   13SAPS   H4S 1639   5.335   4.275   6.839  0.4841  1.4966 -1.5754
   13SAPS   C25 1640   5.173   4.366   6.947  0.5738 -0.0638  0.2611
   13SAPS   H5R 1641   5.113   4.295   7.006  0.5546 -0.5921 -0.3890
   13SAPS   C26 1642   5.167   4.493   6.988 -0.1442 -0.1491  0.0879
   13SAPS   H6R 1643   5.103   4.512   7.076  0.9235  0.2970  0.7859
   13SAPS   C27 1644   5.229   4.606   6.918  0.0152 -0.4059  0.0150
   13SAPS   H7R 1645   5.317   4.574   6.858  0.0934  0.4511 -0.3476
   13SAPS   H7S 1646   5.280   4.673   6.991  3.8273 -1.9666 -0.9438
   13SAPS   C28 1647   5.136   4.678   6.827 -0.0049  0.1776 -0.3726
   13SAPS   H8R 1648   5.176   4.677   6.725 -0.4022 -1.3755 -0.5444
   13SAPS   C29 1649   5.009   4.722   6.850 -0.6336  0.7484 -0.5204
   13SAPS   H9R 1650   4.960   4.781   6.771 -0.5398  0.1935 -1.0090
   13SAPS  C210 1651   4.934   4.728   6.979  0.4197  0.4995  0.0987
   13SAPS  H10R 1652   4.891   4.830   6.981  0.8799  0.8785 -3.2927
   13SAPS  H10S 1653   4.995   4.715   7.071  3.4384 -1.1762 -1.9486
   13SAPS  C211 1654   4.824   4.630   6.986 -0.3184 -0.4108  0.3499
   13SAPS  H11R 1655   4.802   4.594   6.884  1.8958 -0.6593 -0.0904
   13SAPS  C212 1656   4.763   4.581   7.092 -0.6686 -1.2908  0.4912
   13SAPS  H12R 1657   4.678   4.513   7.081 -0.4275 -1.5608  0.2460
   13SAPS  C213 1658   4.793   4.628   7.236 -0.3609  1.0467  0.0620
   13SAPS  H13R 1659   4.818   4.733   7.263  1.9067  0.7920 -0.8356
   13SAPS  H13S 1660   4.881   4.569   7.268  0.0595  1.6731  0.0859
   13SAPS  C214 1661   4.672   4.616   7.323 -0.0687  0.2197  0.5557
   13SAPS  H14R 1662   4.579   4.667   7.293  0.1484  0.4051  0.1939
   13SAPS  C215 1663   4.659   4.543   7.435  0.5597  0.4303  0.0441
   13SAPS  H15R 1664   4.564   4.532   7.490  1.3566 -0.5674  1.2992
   13SAPS  C216 1665   4.773   4.461   7.486  0.3243 -0.4171 -0.0542
   13SAPS  H16R 1666   4.828   4.431   7.394  0.5611 -0.9361  0.2574
   13SAPS  H16S 1667   4.743   4.364   7.531 -2.7361 -0.2545 -1.4641
   13SAPS  C217 1668   4.871   4.523   7.589 -0.2207  0.3606  0.1189
   13SAPS  H17R 1669   4.883   4.633   7.573  2.5154  0.5808  2.7971
   13SAPS  H17S 1670   4.953   4.453   7.561 -1.4078 -0.9147 -0.2844
   13SAPS  C218 1671   4.819   4.505   7.733 -0.4809  0.1635  0.5683
   13SAPS  H18R 1672   4.818   4.397   7.760  1.6623 -0.0614 -0.0468
   13SAPS  H18S 1673   4.715   4.543   7.741 -0.4742  0.9867 -2.3113
   13SAPS  C219 1674   4.894   4.592   7.840  0.1571  0.1441 -0.1255
   13SAPS  H19R 1675   4.856   4.694   7.818 -0.5374 -0.1159 -0.1574
   13SAPS  H19S 1676   5.003   4.589   7.818  0.3962 -1.9469  1.0564
   13SAPS  C220 1677   4.857   4.552   7.984 -0.4312 -0.2192 -0.4242
   13SAPS  H20R 1678   4.890   4.450   8.016 -1.2754 -0.6713 -0.9520
   13SAPS  H20S 1679   4.746   4.544   7.987 -0.3820 -0.6129  1.5702
   13SAPS  H20T 1680   4.883   4.643   8.040 -1.5077  2.1604 -3.4840
   13SAPS   C33 1681   5.581   4.613   6.562  0.4524 -0.7171 -0.5852
   13SAPS   H3X 1682   5.677   4.666   6.582  1.0062 -2.3220  1.3986
   13SAPS   H3Y 1683   5.597   4.567   6.462  0.2155  0.3669 -1.1398
   13SAPS   C34 1684   5.575   4.521   6.669  0.0357  0.4679 -0.0269
   13SAPS   H4X 1685   5.650   4.441   6.655  0.0359  0.5893 -0.7700
   13SAPS   H4Y 1686   5.478   4.466   6.667 -0.7059  1.7673 -0.8457
   13SAPS   C35 1687   5.592   4.579   6.812 -0.0112 -0.1450  0.3969
   13SAPS   H5X 1688   5.532   4.673   6.810  0.3053  0.0635  0.5359
   13SAPS   H5Y 1689   5.697   4.613   6.826 -0.2031  0.5929  0.1123
   13SAPS   C36 1690   5.564   4.474   6.924  0.2445  0.0514 -0.1320
   13SAPS   H6X 1691   5.645   4.399   6.915 -0.6813 -1.0524  0.5891
   13SAPS   H6Y 1692   5.463   4.428   6.914  1.3544 -2.9041  1.1298
   13SAPS   C37 1693   5.574   4.537   7.062 -0.3162 -0.1621 -0.1358
   13SAPS   H7X 1694   5.507   4.624   7.078  3.5826  3.2352 -0.3963
   13SAPS   H7Y 1695   5.674   4.586   7.062 -0.1700 -0.4620 -0.1909
   13SAPS   C38 1696   5.565   4.432   7.176  0.0790  0.0141 -0.3424
   13SAPS   H8X 1697   5.652   4.363   7.169 -0.8569 -1.5513  2.1823
   13SAPS   H8Y 1698   5.473   4.373   7.157  0.0386 -0.2793  0.7077
   13SAPS   C39 1699   5.570   4.497   7.319 -0.3760 -0.0627  0.1313
   13SAPS   H9X 1700   5.471   4.546   7.325  0.7478  2.9429 -2.5405
   13SAPS   H9Y 1701   5.649   4.575   7.314  0.8497 -1.2107  0.8837
   13SAPS  C310 1702   5.601   4.385   7.425 -0.0888  0.6473  0.1023
   13SAPS  H10X 1703   5.691   4.326   7.398  0.7631  2.5078 -1.3858
   13SAPS  H10Y 1704   5.513   4.317   7.422 -0.2711  0.8112  1.3924
   13SAPS  C311 1705   5.602   4.444   7.566  0.1880 -0.8947 -0.3631
   13SAPS  H11X 1706   5.498   4.452   7.607  0.6403  1.1958  0.5161
   13SAPS  H11Y 1707   5.644   4.547   7.568  1.4522 -1.3783 -1.1711
   13SAPS  C312 1708   5.687   4.377   7.678 -0.1194 -0.3556 -0.3764
   13SAPS  H12X 1709   5.795   4.367   7.652 -0.4038 -0.6787 -1.4723
   13SAPS  H12Y 1710   5.653   4.272   7.669 -1.4776  0.0690 -0.4891
   13SAPS  C313 1711   5.654   4.429   7.817  0.1088 -0.0208 -0.4756
   13SAPS  H13X 1712   5.550   4.466   7.829  0.8570  1.5809  1.4839
   13SAPS  H13Y 1713   5.714   4.521   7.825  1.7243 -1.0010 -0.8038
   13SAPS  C314 1714   5.693   4.343   7.932 -0.1088  0.0352  0.4298
   13SAPS  H14X 1715   5.714   4.397   8.027  2.1330  1.1215 -0.6112
   13SAPS  H14Y 1716   5.787   4.288   7.912 -1.2338 -1.8853  0.1214
   13SAPS  C315 1717   5.573   4.245   7.959  0.0891 -0.2242  0.7950
   13SAPS  H15X 1718   5.546   4.199   7.861 -0.7294  0.8404  0.4969
   13SAPS  H15Y 1719   5.479   4.298   7.986 -1.0095  0.7327 -3.9524
   13SAPS  C316 1720   5.603   4.137   8.060 -0.3688 -0.0515  0.0110
   13SAPS  H16X 1721   5.530   4.146   8.143 -1.5822  0.8236 -1.1238
   13SAPS  H16Y 1722   5.705   4.142   8.106 -0.7382 -1.0891  0.9776
   13SAPS  C317 1723   5.601   3.988   8.010 -0.0771 -0.5693  0.4540
   13SAPS  H17X 1724   5.678   3.972   7.932 -1.5478 -2.2367 -0.7433
   13SAPS  H17Y 1725   5.510   3.949   7.959  0.6592 -0.5073 -0.9516
   13SAPS  C318 1726   5.630   3.894   8.129 -0.6879 -0.6928  0.5340
   13SAPS  H18X 1727   5.730   3.913   8.173 -0.5892  1.8924 -0.6733
   13SAPS  H18Y 1728   5.639   3.790   8.089 -0.9028  0.3483 -2.4532
   13SAPS  H18Z 1729   5.541   3.913   8.193 -1.0952  1.4026 -0.5860
   14SAPS     N 1730   2.937   1.269   5.762  0.0955  0.1376  0.1899
   14SAPS   HN1 1731   2.923   1.312   5.669 -1.8612 -1.0535 -0.1120
   14SAPS   HN2 1732   2.911   1.334   5.840 -1.5922  0.4258 -0.5607
   14SAPS   HN3 1733   3.037   1.242   5.766 -0.5791 -2.5045  1.6751
   14SAPS   C12 1734   2.879   1.130   5.758  0.2725  0.1959 -0.8245
   14SAPS  H12A 1735   2.773   1.136   5.741  0.0084 -0.7759  0.3190
   14SAPS   C13 1736   2.944   1.041   5.653 -0.3380  0.5261  0.0457
   14SAPS  O13A 1737   3.036   1.094   5.581  0.1360 -0.2074 -0.1315
   14SAPS  O13B 1738   2.903   0.922   5.639  0.0704 -0.5305  0.0772
   14SAPS   C11 1739   2.877   1.066   5.907 -0.1276  0.0192  0.0370
   14SAPS  H11A 1740   2.980   1.062   5.948  0.1667 -0.0928 -0.7178
   14SAPS  H11B 1741   2.849   0.959   5.904 -0.3068  0.0880 -0.9153
   14SAPS     P 1742   2.639   1.086   6.029 -0.0491 -0.0572 -0.0220
   14SAPS   O13 1743   2.544   1.198   6.041  0.2650  0.3955 -0.3718
   14SAPS   O14 1744   2.589   0.965   5.952 -1.2290  0.3998 -0.2370
   14SAPS   O12 1745   2.791   1.139   5.984 -0.1147 -0.0515  1.0161
   14SAPS   O11 1746   2.663   1.044   6.174  0.2436  0.2968 -0.2849
   14SAPS    C1 1747   2.699   1.131   6.280 -0.5855 -0.9158  0.0922
   14SAPS    HA 1748   2.794   1.188   6.266 -0.0695 -1.4044  1.3982
   14SAPS    HB 1749   2.619   1.208   6.286 -0.8774 -1.2395  0.4184
   14SAPS    C2 1750   2.698   1.060   6.414  0.2452  0.2394  0.2273
   14SAPS    HS 1751   2.735   1.134   6.489 -0.4510 -1.8262  2.7762
   14SAPS   O21 1752   2.791   0.954   6.406  0.1078 -0.1399  0.6596
   14SAPS   C21 1753   2.842   0.926   6.527  0.0866  0.8720 -0.6712
   14SAPS   O22 1754   2.825   0.983   6.632  0.1216  0.0522 -0.3927
   14SAPS   C22 1755   2.926   0.801   6.510 -0.4862  0.4065 -0.0512
   14SAPS   H2R 1756   2.917   0.755   6.409  1.2551  2.7893 -1.3962
   14SAPS   H2S 1757   3.033   0.825   6.526 -0.4045  1.6221 -2.0702
   14SAPS    C3 1758   2.550   1.014   6.443 -0.5872 -0.1411 -0.1269
   14SAPS    HX 1759   2.517   0.948   6.360 -1.0213 -0.2334  0.1166
   14SAPS    HY 1760   2.483   1.102   6.431  0.2546  0.3761 -1.2173
   14SAPS   O31 1761   2.531   0.954   6.572 -0.1107 -0.4649  0.5472
   14SAPS   C31 1762   2.551   1.037   6.674 -0.2363 -1.0292 -0.0188
   14SAPS   O32 1763   2.565   1.160   6.675  0.7768  0.2883  0.4022
   14SAPS   C32 1764   2.560   0.937   6.793 -0.0755 -0.4264  0.4109
   14SAPS   H2X 1765   2.606   0.838   6.773 -0.1084  0.0652 -2.4675
   14SAPS   H2Y 1766   2.462   0.929   6.845  0.4668 -0.6104  1.4355
   14SAPS   C23 1767   2.883   0.702   6.622 -0.0406  0.0634 -1.1096
   14SAPS   H3R 1768   2.774   0.687   6.632 -0.1452  1.7591  1.3193
   14SAPS   H3S 1769   2.915   0.749   6.718 -0.8004 -1.2095 -0.2166
   14SAPS   C24 1770   2.968   0.569   6.618 -0.0602 -0.4162 -0.4712
   14SAPS   H4R 1771   3.067   0.594   6.662 -0.6996 -2.2144  2.2030
   14SAPS   H4S 1772   2.992   0.541   6.513 -0.6971 -1.5621 -0.3230
   14SAPS   C25 1773   2.914   0.461   6.703  0.6918 -0.1650 -0.7725
   14SAPS   H5R 1774   2.859   0.383   6.648 -0.0701  0.5970 -1.1037
   14SAPS   C26 1775   2.902   0.468   6.836 -0.3852  0.1551 -0.2781
   14SAPS   H6R 1776   2.852   0.385   6.887 -0.3127 -0.0896 -0.6042
   14SAPS   C27 1777   2.956   0.574   6.931 -0.8112  0.7274 -0.2009
   14SAPS   H7R 1778   2.920   0.555   7.034  0.6649  0.4096  0.2761
   14SAPS   H7S 1779   2.919   0.677   6.909  0.2581  0.8060 -1.8756
   14SAPS   C28 1780   3.105   0.569   6.927 -0.7513 -0.6085 -0.2116
   14SAPS   H8R 1781   3.154   0.551   6.829 -0.1857 -0.4117  0.0281
   14SAPS   C29 1782   3.188   0.615   7.025  0.1022  0.4266 -0.2042
   14SAPS   H9R 1783   3.298   0.624   7.019  0.1080  1.4261  1.1260
   14SAPS  C210 1784   3.142   0.674   7.155  0.1708  0.1891  0.3198
   14SAPS  H10R 1785   3.119   0.591   7.225 -0.1698 -0.1513 -0.1864
   14SAPS  H10S 1786   3.045   0.723   7.133 -0.5486 -0.8201  1.1623
   14SAPS  C211 1787   3.238   0.782   7.209 -0.3207  0.3720  0.4024
   14SAPS  H11R 1788   3.272   0.863   7.144  0.9851  0.9797  1.7864
   14SAPS  C212 1789   3.280   0.785   7.337  0.4159  0.2328 -0.5450
   14SAPS  H12R 1790   3.343   0.872   7.363  0.6583 -0.3900  1.0516
   14SAPS  C213 1791   3.251   0.687   7.448  0.8203  0.7548 -0.2328
   14SAPS  H13R 1792   3.335   0.692   7.520  1.6069  2.8092 -1.2130
   14SAPS  H13S 1793   3.252   0.585   7.404 -0.2640  1.1032 -1.1218
   14SAPS  C214 1794   3.132   0.717   7.523  0.1628  0.4277 -0.6955
   14SAPS  H14R 1795   3.056   0.787   7.484  1.7451  2.6629  0.0195
   14SAPS  C215 1796   3.084   0.652   7.629 -0.0058  0.4552 -0.9262
   14SAPS  H15R 1797   2.990   0.695   7.667  0.5190  0.9609 -0.1848
   14SAPS  C216 1798   3.140   0.532   7.705 -0.1540  0.1857 -0.1290
   14SAPS  H16R 1799   3.224   0.483   7.651  0.2476 -1.1751  1.6341
   14SAPS  H16S 1800   3.070   0.445   7.710 -0.0144 -0.0640 -1.9308
   14SAPS  C217 1801   3.178   0.579   7.856  0.0175 -0.9570  0.4595
   14SAPS  H17R 1802   3.231   0.677   7.847 -1.0679 -0.5386 -2.5445
   14SAPS  H17S 1803   3.254   0.509   7.895  0.2613 -0.7750  0.3162
   14SAPS  C218 1804   3.059   0.583   7.950  0.0383 -0.3806 -0.4714
   14SAPS  H18R 1805   2.976   0.653   7.929 -2.9356 -3.3712  0.4855
   14SAPS  H18S 1806   3.108   0.603   8.048  0.5488  1.3320 -1.0316
   14SAPS  C219 1807   2.984   0.452   7.954 -0.1662  0.3610 -0.3414
   14SAPS  H19R 1808   3.056   0.367   7.959  0.2215  0.7206  0.3178
   14SAPS  H19S 1809   2.920   0.436   7.864  1.3297 -2.3491 -1.0516
   14SAPS  C220 1810   2.897   0.432   8.078  0.5054 -0.3137  0.0471
   14SAPS  H20R 1811   2.953   0.439   8.173  0.7270 -1.0990 -0.0183
   14SAPS  H20S 1812   2.854   0.329   8.081  0.3837 -0.2463  0.8181
   14SAPS  H20T 1813   2.814   0.506   8.071  0.6571 -0.1975 -0.6858
   14SAPS   C33 1814   2.667   0.992   6.898 -0.0518  0.3933  0.2621
   14SAPS   H3X 1815   2.631   1.093   6.929  0.0033  0.1680  1.0873
   14SAPS   H3Y 1816   2.772   1.002   6.866  0.0523 -0.1179  0.4340
   14SAPS   C34 1817   2.663   0.899   7.021  0.0320 -0.2440  0.4470
   14SAPS   H4X 1818   2.723   0.810   6.992 -1.1341 -1.1693  0.8132
   14SAPS   H4Y 1819   2.561   0.858   7.036  0.5869 -1.1606  1.9414
   14SAPS   C35 1820   2.691   0.963   7.162  0.4819  0.0201 -0.0563
   14SAPS   H5X 1821   2.608   1.034   7.181  0.6492  0.5353 -1.1551
   14SAPS   H5Y 1822   2.788   1.015   7.167  1.3134 -1.3566 -1.1716
   14SAPS   C36 1823   2.695   0.851   7.266  0.3073 -0.4734 -0.2572
   14SAPS   H6X 1824   2.786   0.794   7.237 -0.6746 -1.3585 -1.6977
   14SAPS   H6Y 1825   2.603   0.789   7.261  0.2826 -0.6343  1.5172
   14SAPS   C37 1826   2.700   0.895   7.416  0.7758 -0.1136  0.3051
   14SAPS   H7X 1827   2.603   0.939   7.448  0.6324  0.2324 -0.5908
   14SAPS   H7Y 1828   2.772   0.980   7.415 -0.9937  1.4382 -0.9217
   14SAPS   C38 1829   2.738   0.788   7.514  0.3799 -0.3708  0.0304
   14SAPS   H8X 1830   2.843   0.754   7.499  0.5689 -0.2228  0.9517
   14SAPS   H8Y 1831   2.685   0.692   7.496 -0.7009  0.3495 -0.7798
   14SAPS   C39 1832   2.726   0.835   7.663  0.0875 -0.2201 -0.0430
   14SAPS   H9X 1833   2.748   0.747   7.728 -0.3340 -1.9039 -2.0756
   14SAPS   H9Y 1834   2.620   0.859   7.684  0.1235 -1.3433  1.5729
   14SAPS  C310 1835   2.815   0.954   7.704 -0.0039 -0.3112 -0.5257
   14SAPS  H10X 1836   2.795   1.035   7.630  0.0176 -0.1229 -0.3263
   14SAPS  H10Y 1837   2.922   0.924   7.698  0.9429  2.4938  0.6151
   14SAPS  C311 1838   2.786   0.996   7.847 -0.3166 -0.1839  0.0759
   14SAPS  H11X 1839   2.678   1.000   7.871 -0.1747  0.2414  0.6912
   14SAPS  H11Y 1840   2.817   1.103   7.844  0.2048 -0.3595 -2.2573
   14SAPS  C312 1841   2.866   0.915   7.952 -0.4385  0.0910  0.6378
   14SAPS  H12X 1842   2.975   0.921   7.930 -0.0470  0.0433  2.4462
   14SAPS  H12Y 1843   2.849   0.806   7.940  0.4624  0.1720 -2.2612
   14SAPS  C313 1844   2.830   0.956   8.098 -0.5531 -0.1314 -0.0519
   14SAPS  H13X 1845   2.724   0.929   8.119 -0.7643  0.5582 -0.1950
   14SAPS  H13Y 1846   2.834   1.067   8.106  0.5189 -0.1710  0.1692
   14SAPS  C314 1847   2.933   0.905   8.203 -0.4007  0.5784  0.6701
   14SAPS  H14X 1848   3.016   0.980   8.203  0.9716 -0.7702 -2.2901
   14SAPS  H14Y 1849   2.986   0.812   8.172  2.2632  2.9491 -2.7667
   14SAPS  C315 1850   2.871   0.903   8.348 -0.5945  0.5783 -0.0281
   14SAPS  H15X 1851   2.803   0.816   8.351  1.6672 -1.3657 -1.3644
   14SAPS  H15Y 1852   2.820   1.000   8.365 -0.3635  0.4014  1.9747
   14SAPS  C316 1853   2.986   0.883   8.441 -0.3135 -0.1128 -0.1821
   14SAPS  H16X 1854   3.050   0.971   8.420  0.5813 -1.1897 -2.1938
   14SAPS  H16Y 1855   3.045   0.793   8.413 -0.1677 -0.4064  0.9890
   14SAPS  C317 1856   2.967   0.883   8.593  0.4703 -0.3932 -0.5963
   14SAPS  H17X 1857   2.913   0.792   8.627 -1.9387  0.8209 -0.9322
   14SAPS  H17Y 1858   2.901   0.969   8.616  0.6471  0.7263 -3.7930
   14SAPS  C318 1859   3.095   0.892   8.679  0.0174  0.1029  0.1418
   14SAPS  H18X 1860   3.084   0.899   8.789  3.9212 -0.3177  0.7014
   14SAPS  H18Y 1861   3.135   0.991   8.647 -1.0996  0.0169 -1.6866
   14SAPS  H18Z 1862   3.166   0.812   8.649  0.4970  0.4971  0.2071
   15SAPS     N 1863   3.282   6.641   5.599 -0.1731 -0.2776 -0.7113
   15SAPS   HN1 1864   3.201   6.707   5.601 -0.0827 -0.1801 -0.2492
   15SAPS   HN2 1865   3.361   6.693   5.641 -0.1532 -1.2367  0.4906
   15SAPS   HN3 1866   3.303   6.608   5.503  1.5216 -0.2768 -0.3736
   15SAPS   C12 1867   3.264   6.529   5.691 -0.5233 -0.3594  0.3456
   15SAPS  H12A 1868   3.164   6.490   5.678 -0.0944 -1.0919 -0.9836
   15SAPS   C13 1869   3.347   6.402   5.664 -0.3521 -0.3818  0.3261
   15SAPS  O13A 1870   3.394   6.379   5.552 -0.3044  0.3583  0.0360
   15SAPS  O13B 1871   3.360   6.321   5.761  0.0053 -0.3672  0.4119
   15SAPS   C11 1872   3.295   6.581   5.832 -0.9814 -0.3115  0.1926
   15SAPS  H11A 1873   3.405   6.586   5.842 -0.8035  0.3101 -1.6751
   15SAPS  H11B 1874   3.262   6.501   5.902  0.6038 -0.6369  0.5947
   15SAPS     P 1875   3.266   6.795   5.981  0.1201  0.3457  0.1767
   15SAPS   O13 1876   3.403   6.844   5.974 -0.1636  0.2376 -0.3076
   15SAPS   O14 1877   3.157   6.894   6.007  0.0728  0.4193 -0.0788
   15SAPS   O12 1878   3.235   6.701   5.868 -0.7000 -0.1560  0.5362
   15SAPS   O11 1879   3.264   6.700   6.107  0.3520 -0.3498  0.2142
   15SAPS    C1 1880   3.379   6.640   6.168 -0.2006 -0.1912  0.1096
   15SAPS    HA 1881   3.428   6.576   6.090  2.1092  1.8474 -0.2369
   15SAPS    HB 1882   3.448   6.719   6.204  1.8950 -1.8035 -0.1623
   15SAPS    C2 1883   3.336   6.562   6.293 -0.5264  0.3156  0.0311
   15SAPS    HS 1884   3.263   6.484   6.263 -0.3623  0.3664 -0.5003
   15SAPS   O21 1885   3.276   6.654   6.390  0.0621  0.3772 -0.5447
   15SAPS   C21 1886   3.207   6.596   6.491  0.0749  0.3556 -0.5147
   15SAPS   O22 1887   3.181   6.479   6.491  0.2188  0.3365 -0.0308
   15SAPS   C22 1888   3.150   6.703   6.588 -0.4105  0.0353  0.0357
   15SAPS   H2R 1889   3.156   6.799   6.533  1.5585 -0.9737 -1.6309
   15SAPS   H2S 1890   3.043   6.677   6.602  0.0331 -2.2605 -0.4114
   15SAPS    C3 1891   3.459   6.489   6.360 -0.4681 -0.2652  0.6677
   15SAPS    HX 1892   3.492   6.428   6.273  0.5908 -0.4001  1.1495
   15SAPS    HY 1893   3.419   6.429   6.444 -1.0045 -0.6301  0.1628
   15SAPS   O31 1894   3.563   6.579   6.410 -0.4536 -0.6303  0.3080
   15SAPS   C31 1895   3.622   6.550   6.530  1.1217 -0.3281  0.1265
   15SAPS   O32 1896   3.599   6.446   6.594 -0.0556  0.0515 -0.2132
   15SAPS   C32 1897   3.723   6.654   6.574  0.4321 -0.1631  0.4789
   15SAPS   H2X 1898   3.678   6.755   6.560  0.6299  0.2124  2.2745
   15SAPS   H2Y 1899   3.813   6.646   6.509  0.1525  1.7927 -0.2052
   15SAPS   C23 1900   3.222   6.699   6.721 -0.1102 -0.3256 -0.6164
   15SAPS   H3R 1901   3.192   6.799   6.760 -1.2438 -0.9137  0.0839
   15SAPS   H3S 1902   3.332   6.687   6.714  0.0585 -0.2088  1.1725
   15SAPS   C24 1903   3.149   6.598   6.818  0.7793 -0.3527  0.1962
   15SAPS   H4R 1904   3.129   6.512   6.751  0.2716  0.1060 -0.2536
   15SAPS   H4S 1905   3.056   6.638   6.864  1.6461  1.7583  0.2330
   15SAPS   C25 1906   3.258   6.561   6.920 -0.5775 -0.8584 -0.1488
   15SAPS   H5R 1907   3.347   6.516   6.873 -2.0922 -3.8673 -0.4003
   15SAPS   C26 1908   3.244   6.568   7.052  0.6979  0.5055 -0.1831
   15SAPS   H6R 1909   3.333   6.554   7.116  0.6009  0.9343  0.0440
   15SAPS   C27 1910   3.118   6.608   7.126  0.1049 -0.1477 -0.0134
   15SAPS   H7R 1911   3.092   6.711   7.094  2.0723  0.5496  0.4484
   15SAPS   H7S 1912   3.148   6.621   7.232  0.2905 -0.2636 -0.0518
   15SAPS   C28 1913   3.000   6.520   7.108 -0.4035 -0.1487  0.4137
   15SAPS   H8R 1914   2.995   6.472   7.009  2.5245  0.5196 -0.1417
   15SAPS   C29 1915   2.911   6.502   7.203  0.2080  0.2935  0.0538
   15SAPS   H9R 1916   2.829   6.433   7.179 -0.5017  1.9988 -2.8802
   15SAPS  C210 1917   2.912   6.560   7.341 -0.8065 -0.8502  0.2013
   15SAPS  H10R 1918   2.825   6.627   7.361 -0.5692 -0.3563 -0.3647
   15SAPS  H10S 1919   3.007   6.619   7.343 -0.4216 -1.4077 -0.8258
   15SAPS  C211 1920   2.937   6.453   7.445 -0.0370  0.5097 -0.0143
   15SAPS  H11R 1921   3.002   6.367   7.422 -1.8915 -0.0632 -3.9571
   15SAPS  C212 1922   2.872   6.440   7.559 -0.1024  0.0136  0.2518
   15SAPS  H12R 1923   2.913   6.375   7.638 -0.9563  0.8648  1.4402
   15SAPS  C213 1924   2.753   6.517   7.610 -0.5948 -0.1349  0.1438
   15SAPS  H13R 1925   2.796   6.619   7.624 -0.0385 -0.2596 -0.6377
   15SAPS  H13S 1926   2.730   6.482   7.713 -1.1243 -0.8454 -0.2092
   15SAPS  C214 1927   2.624   6.542   7.533  0.9676  0.0146  0.3298
   15SAPS  H14R 1928   2.598   6.649   7.540 -0.6753 -0.4382  2.8194
   15SAPS  C215 1929   2.539   6.456   7.468 -0.3685 -0.7241 -0.2578
   15SAPS  H15R 1930   2.457   6.497   7.408  0.4519  1.2797 -0.0605
   15SAPS  C216 1931   2.560   6.306   7.470  0.4169 -0.2039 -0.3069
   15SAPS  H16R 1932   2.477   6.251   7.520  0.5730 -0.8008 -0.6895
   15SAPS  H16S 1933   2.647   6.279   7.532  1.6650  3.0965 -0.4563
   15SAPS  C217 1934   2.574   6.256   7.319 -0.2342 -0.3495 -0.7918
   15SAPS  H17R 1935   2.647   6.323   7.267 -0.8659  0.5496 -0.5383
   15SAPS  H17S 1936   2.478   6.282   7.270 -1.1560 -0.4472  0.8794
   15SAPS  C218 1937   2.601   6.110   7.299 -0.4997  0.1851  0.7284
   15SAPS  H18R 1938   2.577   6.056   7.393 -1.4237  1.8630  1.5059
   15SAPS  H18S 1939   2.712   6.102   7.296 -0.4756  0.6947 -0.3286
   15SAPS  C219 1940   2.540   6.055   7.171  0.0359 -0.3455  0.2895
   15SAPS  H19R 1941   2.595   5.959   7.166  1.7292  0.6191 -0.5501
   15SAPS  H19S 1942   2.570   6.118   7.085 -0.3551 -1.9625 -1.0783
   15SAPS  C220 1943   2.387   6.054   7.167 -0.2100 -0.0221  0.2647
   15SAPS  H20R 1944   2.343   5.959   7.204 -0.9469  0.7411  1.4126
   15SAPS  H20S 1945   2.360   6.054   7.059  0.9479 -2.4903 -0.1019
   15SAPS  H20T 1946   2.327   6.129   7.222 -1.0120 -0.3644 -0.1222
   15SAPS   C33 1947   3.773   6.636   6.719  0.1939  0.0840  0.2125
   15SAPS   H3X 1948   3.850   6.557   6.707  0.6741  0.8261 -2.2568
   15SAPS   H3Y 1949   3.689   6.603   6.785 -2.5427  1.7943 -2.1514
   15SAPS   C34 1950   3.855   6.749   6.776  0.5409 -0.6701 -0.0056
   15SAPS   H4X 1951   3.786   6.829   6.809  0.4277 -0.1890 -1.3406
   15SAPS   H4Y 1952   3.909   6.791   6.688  1.3574 -2.2200 -0.2690
   15SAPS   C35 1953   3.940   6.698   6.889 -0.5960 -0.5801  0.3421
   15SAPS   H5X 1954   4.017   6.775   6.914 -0.6502 -0.6336  0.6889
   15SAPS   H5Y 1955   3.990   6.602   6.863  1.4700  1.0501 -2.2134
   15SAPS   C36 1956   3.867   6.679   7.020  0.5071  0.3478  0.2277
   15SAPS   H6X 1957   3.776   6.622   6.991  0.7843  0.7393 -1.5230
   15SAPS   H6Y 1958   3.823   6.775   7.056 -1.5321  0.2655 -1.7428
   15SAPS   C37 1959   3.944   6.616   7.134  0.0250  0.1260 -0.0050
   15SAPS   H7X 1960   4.041   6.660   7.164  0.8112 -1.8125  0.4957
   15SAPS   H7Y 1961   3.958   6.506   7.120 -2.2630 -0.5405  2.1486
   15SAPS   C38 1962   3.867   6.629   7.265  0.4362 -0.6360  0.2571
   15SAPS   H8X 1963   3.769   6.580   7.250 -1.0385  2.2878 -0.5628
   15SAPS   H8Y 1964   3.829   6.733   7.280  0.9583 -0.2359 -1.0199
   15SAPS   C39 1965   3.934   6.568   7.388  0.0024 -0.4181 -0.3591
   15SAPS   H9X 1966   4.042   6.579   7.366 -0.3236 -1.2185 -2.7573
   15SAPS   H9Y 1967   3.927   6.457   7.392 -0.9031 -0.4341 -1.6268
   15SAPS  C310 1968   3.902   6.626   7.522 -0.6284 -0.0453 -0.6149
   15SAPS  H10X 1969   3.795   6.616   7.551 -0.5955 -0.7363 -0.7193
   15SAPS  H10Y 1970   3.927   6.734   7.527  2.1035 -0.4739 -2.7531
   15SAPS  C311 1971   3.982   6.546   7.632 -0.1859 -0.0295 -0.1952
   15SAPS  H11X 1972   4.087   6.576   7.651 -0.4196  0.5272  0.2364
   15SAPS  H11Y 1973   3.975   6.437   7.615 -1.5225  0.0914 -0.5362
   15SAPS  C312 1974   3.933   6.575   7.778  0.1894 -0.5809  0.4897
   15SAPS  H12X 1975   3.832   6.532   7.793  0.9330 -2.2334  1.0793
   15SAPS  H12Y 1976   3.938   6.685   7.795  1.3102 -0.3293 -1.1711
   15SAPS  C313 1977   4.017   6.506   7.892 -0.0486  0.8497  0.0821
   15SAPS  H13X 1978   4.123   6.537   7.881  0.1227  0.9722  1.8243
   15SAPS  H13Y 1979   4.003   6.397   7.875  1.4214  0.6419  0.0059
   15SAPS  C314 1980   3.971   6.559   8.023 -0.1695 -0.6146 -0.7124
   15SAPS  H14X 1981   3.869   6.520   8.044 -0.0568 -0.0646  0.9145
   15SAPS  H14Y 1982   3.970   6.670   8.021 -1.6912 -0.5857 -3.0485
   15SAPS  C315 1983   4.057   6.517   8.142 -1.2697  0.5297 -0.1428
   15SAPS  H15X 1984   4.165   6.522   8.118 -1.6171  1.4094 -1.7178
   15SAPS  H15Y 1985   4.037   6.410   8.166 -0.4684  0.6690  1.2174
   15SAPS  C316 1986   4.026   6.587   8.274  0.4266 -0.2850 -0.2565
   15SAPS  H16X 1987   3.920   6.587   8.306  0.5281  1.5286  0.1829
   15SAPS  H16Y 1988   4.052   6.695   8.272  0.8774 -0.3286  1.8354
   15SAPS  C317 1989   4.086   6.519   8.399 -0.9624  0.2525  0.2912
   15SAPS  H17X 1990   4.084   6.598   8.477  1.3870  1.6697 -0.9816
   15SAPS  H17Y 1991   4.190   6.489   8.377 -0.9670  0.6459 -0.3008
   15SAPS  C318 1992   4.012   6.395   8.453 -0.5620  0.1575  0.1206
   15SAPS  H18X 1993   4.062   6.350   8.542 -1.8633 -0.9906  0.3055
   15SAPS  H18Y 1994   4.000   6.312   8.381  0.8259  1.0992 -1.2577
   15SAPS  H18Z 1995   3.917   6.430   8.500 -0.4221  0.3274  0.2790
   16SAPS     N 1996   4.568   1.033   6.443 -0.2572  0.4800  0.1422
   16SAPS   HN1 1997   4.473   0.997   6.423  0.7369 -1.2871 -1.7845
   16SAPS   HN2 1998   4.585   1.020   6.545  2.0302  1.6381 -0.0118
   16SAPS   HN3 1999   4.574   1.135   6.421 -2.5050  0.8553  1.0195
   16SAPS   C12 2000   4.670   0.965   6.353 -0.7003 -0.5283 -0.1899
   16SAPS  H12A 2001   4.700   0.876   6.407  3.3793 -0.7529 -2.3936
   16SAPS   C13 2002   4.619   0.917   6.211  0.3214  0.3720  0.6165
   16SAPS  O13A 2003   4.510   0.963   6.160 -0.0418 -0.4884 -0.5305
   16SAPS  O13B 2004   4.691   0.838   6.147 -0.1166 -0.1487 -0.1643
   16SAPS   C11 2005   4.785   1.062   6.324  0.2088 -0.6720 -0.1185
   16SAPS  H11A 2006   4.749   1.133   6.246  2.1959  0.8215  0.2190
   16SAPS  H11B 2007   4.876   1.013   6.281  1.0656  0.7047  0.0580
   16SAPS     P 2008   4.948   1.239   6.433 -0.0332 -0.4807  0.4307
   16SAPS   O13 2009   4.999   1.246   6.294 -0.8448  0.1605 -0.7024
   16SAPS   O14 2010   4.905   1.373   6.487  0.0702 -0.6045  0.0816
   16SAPS   O12 2011   4.816   1.148   6.435 -0.4439 -0.3773  0.4704
   16SAPS   O11 2012   5.045   1.164   6.535 -0.7894 -0.4042  0.6197
   16SAPS    C1 2013   5.056   1.020   6.542 -0.1953 -0.4527  0.3409
   16SAPS    HA 2014   5.023   0.978   6.445  2.5991 -0.4316 -0.6887
   16SAPS    HB 2015   5.164   0.998   6.550 -0.2721 -0.7668  0.5527
   16SAPS    C2 2016   4.973   0.959   6.659  0.0614 -0.6135 -0.5233
   16SAPS    HS 2017   4.866   0.973   6.631 -0.3532  1.3864  1.7790
   16SAPS   O21 2018   5.007   1.040   6.776  0.0753 -0.4792  0.5317
   16SAPS   C21 2019   4.930   1.037   6.880  0.3974 -0.0616  0.1048
   16SAPS   O22 2020   4.822   0.982   6.889  0.0801  0.1516 -0.5353
   16SAPS   C22 2021   5.002   1.117   6.989  1.0875  0.1265  0.2611
   16SAPS   H2R 2022   5.108   1.109   6.957  1.5369  0.3702  1.6120
   16SAPS   H2S 2023   4.961   1.221   6.987  1.4157  0.3648  2.8521
   16SAPS    C3 2024   5.009   0.804   6.672 -0.9348 -0.4232 -0.2633
   16SAPS    HX 2025   5.111   0.794   6.715 -0.1479  1.4804 -1.5715
   16SAPS    HY 2026   5.013   0.766   6.568 -0.2374  0.4456 -0.5610
   16SAPS   O31 2027   4.903   0.724   6.741 -0.5073 -0.2605  0.7349
   16SAPS   C31 2028   4.929   0.701   6.874  0.7055  0.4163 -0.6544
   16SAPS   O32 2029   5.033   0.735   6.926  0.6584 -0.4023 -0.0917
   16SAPS   C32 2030   4.816   0.639   6.944  0.2157  0.9773  0.2792
   16SAPS   H2X 2031   4.801   0.536   6.904 -1.1629  1.5034 -0.5932
   16SAPS   H2Y 2032   4.728   0.700   6.916  0.9688  1.2196 -1.7382
   16SAPS   C23 2033   4.981   1.049   7.125 -1.0384  0.2929 -0.2447
   16SAPS   H3R 2034   5.012   0.944   7.111 -1.1426  0.3771 -1.1533
   16SAPS   H3S 2035   4.874   1.052   7.157 -1.1892  0.7343 -0.7837
   16SAPS   C24 2036   5.070   1.105   7.237 -0.3467 -0.1968  0.0694
   16SAPS   H4R 2037   5.176   1.078   7.217  0.1908  1.9970 -0.2938
   16SAPS   H4S 2038   5.029   1.050   7.324 -2.5595 -0.8113 -1.2960
   16SAPS   C25 2039   5.068   1.258   7.261 -0.2578 -0.1425  0.3420
   16SAPS   H5R 2040   5.143   1.314   7.203  2.3014  0.5274  3.9217
   16SAPS   C26 2041   5.005   1.312   7.367 -0.2264  0.2316 -0.2125
   16SAPS   H6R 2042   5.010   1.419   7.394  1.0276 -0.3160  2.0824
   16SAPS   C27 2043   4.926   1.247   7.480  0.7223  0.0373  0.2431
   16SAPS   H7R 2044   4.840   1.189   7.438 -0.3029  1.1285  0.7873
   16SAPS   H7S 2045   4.881   1.329   7.539  0.7080  1.0081 -1.0718
   16SAPS   C28 2046   5.007   1.159   7.563  1.1774  0.6424 -1.2036
   16SAPS   H8R 2047   5.113   1.138   7.540  0.9780 -1.5824 -0.3417
   16SAPS   C29 2048   4.967   1.109   7.679 -0.1405  0.0701  0.0769
   16SAPS   H9R 2049   5.037   1.043   7.732 -1.0250 -1.9554 -1.1483
   16SAPS  C210 2050   4.838   1.119   7.751  0.4663 -0.4000 -0.5761
   16SAPS  H10R 2051   4.816   1.030   7.814 -2.9977 -0.0596 -1.1238
   16SAPS  H10S 2052   4.754   1.137   7.681  0.2895  0.2953 -0.1924
   16SAPS  C211 2053   4.823   1.236   7.847  0.2091 -0.1524 -0.0849
   16SAPS  H11R 2054   4.820   1.335   7.799  1.5810 -0.3004 -0.5238
   16SAPS  C212 2055   4.804   1.229   7.982 -0.0389  0.2106  0.8079
   16SAPS  H12R 2056   4.783   1.322   8.037  2.1727  0.8496  0.6982
   16SAPS  C213 2057   4.802   1.114   8.077 -0.1137 -0.1687  0.5333
   16SAPS  H13R 2058   4.746   1.025   8.039  0.2727 -0.2885  0.2340
   16SAPS  H13S 2059   4.745   1.139   8.169 -0.1831 -0.2519  0.5129
   16SAPS  C214 2060   4.944   1.085   8.121 -0.2275 -0.1008  0.4051
   16SAPS  H14R 2061   5.011   1.061   8.037  0.1178 -0.3683  0.7551
   16SAPS  C215 2062   4.998   1.113   8.242  0.2083  0.3103 -0.1252
   16SAPS  H15R 2063   5.102   1.080   8.256  0.1029 -0.2969 -0.6902
   16SAPS  C216 2064   4.931   1.171   8.357 -0.0017 -0.4569  0.1757
   16SAPS  H16R 2065   4.822   1.166   8.340  0.5004 -2.5615 -3.3537
   16SAPS  H16S 2066   4.954   1.280   8.363 -1.3029 -0.1342 -0.4199
   16SAPS  C217 2067   4.958   1.095   8.488 -0.0336 -0.7786 -0.4612
   16SAPS  H17R 2068   4.927   0.989   8.497  1.7595 -1.5728 -2.8634
   16SAPS  H17S 2069   4.896   1.148   8.564 -1.2586  0.2375 -2.0925
   16SAPS  C218 2070   5.100   1.103   8.531  0.2425  0.2493 -0.5316
   16SAPS  H18R 2071   5.133   1.204   8.499  0.5685 -0.2046 -1.6704
   16SAPS  H18S 2072   5.151   1.030   8.465 -2.8016 -1.9869 -0.6250
   16SAPS  C219 2073   5.122   1.077   8.679 -0.1063 -1.3952  0.1053
   16SAPS  H19R 2074   5.046   1.134   8.737  0.8808 -2.3013  2.4159
   16SAPS  H19S 2075   5.228   1.109   8.686 -0.3555 -0.8297  2.1030
   16SAPS  C220 2076   5.115   0.927   8.702  0.1790 -0.1525  0.6720
   16SAPS  H20R 2077   5.178   0.897   8.789  2.7385 -1.5374 -1.4955
   16SAPS  H20S 2078   5.156   0.868   8.616  0.6621  0.0695  0.7454
   16SAPS  H20T 2079   5.010   0.895   8.716  0.6874 -1.0880  2.6151
   16SAPS   C33 2080   4.825   0.635   7.096 -0.2523 -0.1256 -0.2210
   16SAPS   H3X 2081   4.720   0.631   7.133 -0.9727  0.9890 -2.0112
   16SAPS   H3Y 2082   4.859   0.731   7.139 -0.8777  0.3427 -0.7473
   16SAPS   C34 2083   4.904   0.509   7.148 -0.1205 -1.0253 -0.7005
   16SAPS   H4X 2084   5.001   0.512   7.094 -0.2122  0.3033 -0.8224
   16SAPS   H4Y 2085   4.847   0.420   7.114 -1.3632 -0.5091 -0.0169
   16SAPS   C35 2086   4.901   0.514   7.302 -0.5825  0.6369  0.7488
   16SAPS   H5X 2087   4.799   0.537   7.339 -0.7429  3.9568 -1.2973
   16SAPS   H5Y 2088   4.973   0.591   7.338  0.3170 -0.4466  1.3406
   16SAPS   C36 2089   4.942   0.380   7.362  0.2156 -0.1151 -0.7336
   16SAPS   H6X 2090   5.051   0.364   7.346  0.4024 -1.2493  1.2116
   16SAPS   H6Y 2091   4.893   0.300   7.302  0.3634 -0.6551 -0.1597
   16SAPS   C37 2092   4.907   0.369   7.514 -1.0590  0.4799  0.0761
   16SAPS   H7X 2093   4.800   0.338   7.515 -0.9313 -0.0289 -0.7073
   16SAPS   H7Y 2094   4.922   0.470   7.557  2.1500 -0.6177  1.8368
   16SAPS   C38 2095   5.000   0.272   7.585  0.1702  0.3599 -0.2276
   16SAPS   H8X 2096   5.087   0.332   7.620  1.2563 -1.8872  1.1161
   16SAPS   H8Y 2097   5.034   0.204   7.504  2.7974  0.7967  0.3870
   16SAPS   C39 2098   4.934   0.199   7.697 -0.2991 -0.0884 -0.0316
   16SAPS   H9X 2099   4.988   0.106   7.724  0.9443  0.7371  0.4356
   16SAPS   H9Y 2100   4.828   0.182   7.669 -0.5428 -1.2959  1.4834
   16SAPS  C310 2101   4.945   0.280   7.824  0.0082  0.9268 -0.0761
   16SAPS  H10X 2102   4.889   0.375   7.824 -2.5303 -0.2348 -4.8610
   16SAPS  H10Y 2103   5.054   0.297   7.836 -0.2016  2.0438  0.3009
   16SAPS  C311 2104   4.889   0.197   7.947  0.1919 -0.5032  0.5839
   16SAPS  H11X 2105   4.923   0.096   7.918  0.6463 -0.2362  0.1765
   16SAPS  H11Y 2106   4.778   0.205   7.953  0.3004  3.1767 -0.0684
   16SAPS  C312 2107   4.947   0.239   8.087 -0.0318  0.2298 -0.4574
   16SAPS  H12X 2108   4.923   0.347   8.100  0.5147  0.2310  0.6298
   16SAPS  H12Y 2109   5.058   0.241   8.091 -0.0763  1.6989  1.9217
   16SAPS  C313 2110   4.889   0.159   8.201  0.8073  0.3988  0.2266
   16SAPS  H13X 2111   4.914   0.052   8.188  2.3773  0.4332  2.5566
   16SAPS  H13Y 2112   4.778   0.173   8.203  0.6042 -1.0250 -0.0416
   16SAPS  C314 2113   4.935   0.203   8.343  0.3492 -0.0943 -0.2995
   16SAPS  H14X 2114   5.046   0.196   8.348  0.2994 -0.1818  1.1337
   16SAPS  H14Y 2115   4.905   0.119   8.410  1.8557  0.4993  1.2244
   16SAPS  C315 2116   4.885   0.343   8.388  0.0781  0.6252 -0.1245
   16SAPS  H15X 2117   4.802   0.369   8.320  0.9796  0.8613 -1.1570
   16SAPS  H15Y 2118   4.965   0.417   8.366  1.0607 -0.2807  0.2822
   16SAPS  C316 2119   4.843   0.343   8.531 -0.3414  0.6189  0.5137
   16SAPS  H16X 2120   4.815   0.448   8.555  0.7103  1.1872 -0.6176
   16SAPS  H16Y 2121   4.937   0.328   8.587  0.3644  0.4890 -0.6760
   16SAPS  C317 2122   4.727   0.259   8.565 -0.3156 -0.2336 -0.2098
   16SAPS  H17X 2123   4.740   0.159   8.519 -2.0964 -0.0609 -1.1370
   16SAPS  H17Y 2124   4.633   0.285   8.513  0.4043  1.0668 -0.9311
   16SAPS  C318 2125   4.714   0.225   8.711  1.5095  0.1161  0.2336
   16SAPS  H18X 2126   4.647   0.297   8.763  1.2133  0.1755 -0.2192
   16SAPS  H18Y 2127   4.816   0.232   8.753  2.0490 -1.3954 -0.7478
   16SAPS  H18Z 2128   4.665   0.126   8.711  0.1182  0.6892 -2.7060
   17SAPC     N 2129   1.502   4.716  10.564  0.2915  0.8288  0.0286
   17SAPC   C12 2130   1.635   4.779  10.595  0.3177  0.9622 -0.1436
   17SAPC  H12A 2131   1.688   4.714  10.663 -2.0326 -1.0420 -0.0686
   17SAPC  H12B 2132   1.618   4.876  10.640 -0.6209  1.3105 -1.1982
   17SAPC   C13 2133   1.416   4.812  10.487  0.6829 -0.1090  0.3959
   17SAPC  H13A 2134   1.468   4.857  10.404 -0.2006  2.1663  0.9798
   17SAPC  H13B 2135   1.328   4.763  10.448  1.8857 -2.4642  0.4658
   17SAPC  H13C 2136   1.389   4.895  10.551  3.4987  1.6786 -0.5510
   17SAPC   C14 2137   1.519   4.584  10.497 -0.2524  0.1712  0.1207
   17SAPC  H14A 2138   1.558   4.601  10.398  3.1522 -4.6298  0.2814
   17SAPC  H14B 2139   1.590   4.517  10.544  0.0556 -0.1105 -0.7218
   17SAPC  H14C 2140   1.431   4.529  10.467 -1.4616  1.7982  0.5430
   17SAPC   C15 2141   1.421   4.681  10.694  0.2420  0.4817 -0.9689
   17SAPC  H15A 2142   1.324   4.635  10.681  0.0466  0.9492 -1.1843
   17SAPC  H15B 2143   1.468   4.603  10.751 -1.2603 -1.2511 -1.9835
   17SAPC  H15C 2144   1.409   4.766  10.760  1.2913 -0.3562  0.3494
   17SAPC   C11 2145   1.731   4.796  10.474 -0.1701 -0.2663 -0.2197
   17SAPC  H11A 2146   1.750   4.695  10.432 -0.2965 -0.7662  0.9023
   17SAPC  H11B 2147   1.832   4.825  10.511 -0.3396  0.3579 -0.2281
   17SAPC     P 2148   1.700   5.044  10.395 -0.0828 -0.0710 -0.1537
   17SAPC   O13 2149   1.591   5.117  10.469 -0.1537  0.3679  0.2128
   17SAPC   O14 2150   1.845   5.066  10.437  0.5368 -0.3257  0.5020
   17SAPC   O12 2151   1.676   4.889  10.377 -0.1410 -0.2319  0.0712
   17SAPC   O11 2152   1.690   5.099  10.241 -0.7834  0.0235  0.2284
   17SAPC    C1 2153   1.569   5.080  10.166  0.1118 -0.3681  0.2460
   17SAPC    HA 2154   1.574   4.980  10.119  1.4234 -0.4437  0.5036
   17SAPC    HB 2155   1.476   5.098  10.223 -1.1527  0.1358 -1.8756
   17SAPC    C2 2156   1.551   5.173  10.047 -0.0928 -0.0919  0.7212
   17SAPC    HS 2157   1.447   5.158  10.011  0.1914  0.0361 -0.1910
   17SAPC   O21 2158   1.651   5.145   9.945  0.2230 -0.5721 -0.1411
   17SAPC   C21 2159   1.623   5.053   9.858  0.2307 -0.1947 -0.1826
   17SAPC   O22 2160   1.518   4.995   9.856 -0.1592  0.1504  0.3583
   17SAPC   C22 2161   1.737   5.033   9.758 -0.0259  0.6629 -0.6056
   17SAPC   H2R 2162   1.772   5.130   9.717  0.8087  0.0555 -1.3572
   17SAPC   H2S 2163   1.822   4.988   9.813 -1.8010 -3.2492 -0.7340
   17SAPC    C3 2164   1.574   5.316  10.081  0.1847 -0.1742  0.5272
   17SAPC    HX 2165   1.675   5.343  10.116  0.8900 -1.4568 -0.4282
   17SAPC    HY 2166   1.492   5.342  10.152 -3.0879 -4.3242 -1.2697
   17SAPC   O31 2167   1.538   5.397   9.959 -1.0004  0.0374  0.2601
   17SAPC   C31 2168   1.630   5.488   9.917 -0.0588  0.1887 -0.1786
   17SAPC   O32 2169   1.733   5.512   9.976 -0.0501 -0.1700  0.5377
   17SAPC   C32 2170   1.561   5.572   9.809  0.5603  0.2004 -0.0603
   17SAPC   H2X 2171   1.545   5.666   9.865  0.5674  0.5295 -0.6070
   17SAPC   H2Y 2172   1.460   5.528   9.792  0.1726  1.9805 -2.9694
   17SAPC   C23 2173   1.717   4.928   9.649  0.0831  0.3424 -0.7556
   17SAPC   H3R 2174   1.663   4.850   9.707 -1.8166  2.9377  1.1909
   17SAPC   H3S 2175   1.816   4.891   9.614  0.7995 -1.9599  3.1307
   17SAPC   C24 2176   1.624   4.982   9.534  0.1579  0.7374 -0.1603
   17SAPC   H4R 2177   1.692   5.058   9.490  1.0163  1.4446  2.2249
   17SAPC   H4S 2178   1.525   5.026   9.557 -0.7520  0.0550 -2.4570
   17SAPC   C25 2179   1.576   4.865   9.456 -0.2762 -0.4959 -0.1682
   17SAPC   H5R 2180   1.504   4.800   9.507 -0.7189  1.1905  1.4119
   17SAPC   C26 2181   1.621   4.825   9.336  0.4505 -0.6372  0.2281
   17SAPC   H6R 2182   1.572   4.738   9.290 -2.7257  0.6039  1.0137
   17SAPC   C27 2183   1.722   4.900   9.254 -0.2580  0.5851 -0.6467
   17SAPC   H7R 2184   1.813   4.890   9.317  0.1582 -0.4902 -1.3906
   17SAPC   H7S 2185   1.700   5.009   9.249 -1.7019  0.3060 -0.5593
   17SAPC   C28 2186   1.751   4.842   9.121  0.0653  0.4868 -0.6974
   17SAPC   H8R 2187   1.771   4.734   9.120 -1.5041  0.1655 -2.0587
   17SAPC   C29 2188   1.748   4.909   9.006 -0.1602 -0.5307 -0.4201
   17SAPC   H9R 2189   1.781   4.855   8.916 -0.5547 -3.2434  0.9867
   17SAPC  C210 2190   1.708   5.056   8.987  0.4621  0.0199  0.8204
   17SAPC  H10R 2191   1.772   5.092   8.904  0.1016 -0.1960  0.4434
   17SAPC  H10S 2192   1.748   5.113   9.073  0.8647 -0.3594  0.8927
   17SAPC  C211 2193   1.559   5.102   8.971  0.1715 -0.3118 -0.5797
   17SAPC  H11R 2194   1.499   5.055   9.050  1.1427  1.7317  1.4815
   17SAPC  C212 2195   1.508   5.179   8.874  0.0163 -0.3318  0.4979
   17SAPC  H12R 2196   1.402   5.206   8.885  0.1207  0.8078 -0.9437
   17SAPC  C213 2197   1.575   5.234   8.748  0.8367 -0.8119 -0.3025
   17SAPC  H13R 2198   1.679   5.195   8.750  1.4176  0.5346 -1.7313
   17SAPC  H13S 2199   1.593   5.344   8.748 -0.1660 -0.6236 -1.6137
   17SAPC  C214 2200   1.505   5.184   8.623 -0.2559 -0.4062  0.2567
   17SAPC  H14R 2201   1.396   5.191   8.626 -0.0998  4.1347  1.8596
   17SAPC  C215 2202   1.569   5.104   8.538  0.3157 -0.0551 -0.2074
   17SAPC  H15R 2203   1.515   5.060   8.453 -1.1313  0.9979  0.1216
   17SAPC  C216 2204   1.710   5.053   8.549 -0.4141 -0.3039 -0.1770
   17SAPC  H16R 2205   1.716   4.954   8.598  2.4925 -0.5481 -0.8452
   17SAPC  H16S 2206   1.770   5.117   8.616  0.7395 -0.2063 -1.2704
   17SAPC  C217 2207   1.782   5.053   8.411 -0.0625 -0.1675  0.0323
   17SAPC  H17R 2208   1.889   5.046   8.442 -0.0983  0.8403  0.4204
   17SAPC  H17S 2209   1.788   5.153   8.362 -0.4491  0.0135  0.3491
   17SAPC  C218 2210   1.744   4.937   8.318  0.4925 -0.1067  0.4807
   17SAPC  H18R 2211   1.636   4.950   8.296  0.5459  0.8176  0.7208
   17SAPC  H18S 2212   1.751   4.837   8.366  0.3042 -0.6086 -0.5250
   17SAPC  C219 2213   1.813   4.933   8.184  0.2724 -0.0493  0.5974
   17SAPC  H19R 2214   1.905   4.872   8.195 -0.4590 -1.3813 -0.4132
   17SAPC  H19S 2215   1.832   5.036   8.148 -1.6389  0.7441  1.7231
   17SAPC  C220 2216   1.731   4.859   8.075  0.3765  0.0953  0.6072
   17SAPC  H20R 2217   1.638   4.907   8.038 -0.1339 -3.0564 -2.8133
   17SAPC  H20S 2218   1.704   4.756   8.106 -3.9255  1.0866  0.6633
   17SAPC  H20T 2219   1.798   4.856   7.986  1.7818  1.8978  1.5384
   17SAPC   C33 2220   1.658   5.595   9.688 -0.4604  0.8065  0.1457
   17SAPC   H3X 2221   1.764   5.595   9.721  0.0569 -1.1942 -1.2637
   17SAPC   H3Y 2222   1.644   5.694   9.639  0.1881  1.0095  0.3655
   17SAPC   C34 2223   1.637   5.492   9.584 -0.2883  0.6915  0.4940
   17SAPC   H4X 2224   1.530   5.492   9.554 -0.2910  0.3775  0.4998
   17SAPC   H4Y 2225   1.655   5.386   9.612  0.8930  1.4145  2.7357
   17SAPC   C35 2226   1.722   5.523   9.463 -1.1832  0.1714 -0.8998
   17SAPC   H5X 2227   1.825   5.547   9.496 -0.9895  2.2739 -2.8062
   17SAPC   H5Y 2228   1.683   5.615   9.414 -0.5500 -0.7042 -3.2104
   17SAPC   C36 2229   1.727   5.405   9.364 -0.4124 -0.1458 -0.2813
   17SAPC   H6X 2230   1.781   5.316   9.403 -0.0443  0.7335  1.2965
   17SAPC   H6Y 2231   1.792   5.436   9.279 -1.0796 -1.3586 -1.2664
   17SAPC   C37 2232   1.598   5.366   9.286  0.1695  1.4136  0.3924
   17SAPC   H7X 2233   1.531   5.323   9.364 -0.4348  0.5684 -0.5650
   17SAPC   H7Y 2234   1.621   5.283   9.216 -2.4803 -0.5071  1.6409
   17SAPC   C38 2235   1.523   5.474   9.208 -0.1487 -0.2063  0.1629
   17SAPC   H8X 2236   1.517   5.563   9.274 -1.4878 -1.8360  2.3618
   17SAPC   H8Y 2237   1.413   5.458   9.210 -0.7278  3.0556 -0.3043
   17SAPC   C39 2238   1.584   5.504   9.071 -0.3945  0.0236 -0.2998
   17SAPC   H9X 2239   1.582   5.417   9.002  0.5126  0.8165 -1.3520
   17SAPC   H9Y 2240   1.692   5.526   9.084  0.1863 -1.8829 -1.5897
   17SAPC  C310 2241   1.518   5.621   8.994 -0.6088  0.2455  0.3350
   17SAPC  H10X 2242   1.542   5.712   9.054  1.1445  1.1169 -1.5588
   17SAPC  H10Y 2243   1.410   5.601   8.983 -0.7084 -0.1295  1.8079
   17SAPC  C311 2244   1.589   5.647   8.853  0.6892 -0.3791  0.2696
   17SAPC  H11X 2245   1.572   5.552   8.797 -4.1203 -0.3305  1.1729
   17SAPC  H11Y 2246   1.698   5.660   8.867  0.3924  1.0495  1.4977
   17SAPC  C312 2247   1.525   5.759   8.775  0.1112  0.2817 -1.0744
   17SAPC  H12X 2248   1.545   5.843   8.845 -0.9293  0.3920 -0.8941
   17SAPC  H12Y 2249   1.418   5.731   8.763 -0.7290  3.1051 -0.8683
   17SAPC  C313 2250   1.591   5.788   8.643  0.1290  0.5926 -0.2662
   17SAPC  H13X 2251   1.565   5.711   8.568  0.7719  0.2680 -0.1600
   17SAPC  H13Y 2252   1.700   5.780   8.660  0.3131 -1.1666 -2.0061
   17SAPC  C314 2253   1.557   5.933   8.594  0.3851 -0.0424 -0.6669
   17SAPC  H14X 2254   1.573   6.009   8.674  2.8041  1.3307 -2.3475
   17SAPC  H14Y 2255   1.452   5.942   8.560 -0.0001  0.2029  0.5313
   17SAPC  C315 2256   1.647   5.984   8.485  0.5908  1.0208  0.2928
   17SAPC  H15X 2257   1.745   5.975   8.536  0.1854 -1.4110  0.7634
   17SAPC  H15Y 2258   1.629   6.092   8.466  0.9540  1.0017 -0.2027
   17SAPC  C316 2259   1.632   5.909   8.349  0.4769  0.1181  0.6853
   17SAPC  H16X 2260   1.526   5.930   8.325  1.4535  1.9743 -2.6914
   17SAPC  H16Y 2261   1.645   5.799   8.357 -1.8156 -0.2716 -0.1841
   17SAPC  C317 2262   1.717   5.958   8.224  0.5992  0.9143  0.3251
   17SAPC  H17X 2263   1.682   5.902   8.135 -2.6516  3.3025 -0.0712
   17SAPC  H17Y 2264   1.819   5.926   8.252  0.3798  0.8429  1.0908
   17SAPC  C318 2265   1.708   6.110   8.193  0.1424  0.3704  0.0681
   17SAPC  H18X 2266   1.606   6.146   8.170  1.0048  1.3357 -2.5234
   17SAPC  H18Y 2267   1.753   6.150   8.287 -2.2901  0.3599  1.3045
   17SAPC  H18Z 2268   1.782   6.142   8.117 -0.6294  1.0764 -0.4014
   18SAPC     N 2269   3.138   4.846  10.870  0.2340  0.2669  0.4130
   18SAPC   C12 2270   3.208   4.717  10.818 -0.1367 -0.1587  0.2640
   18SAPC  H12A 2271   3.221   4.649  10.901 -1.4465 -2.9642 -1.6853
   18SAPC  H12B 2272   3.308   4.737  10.783 -0.3214 -2.0560 -1.5343
   18SAPC   C13 2273   2.988   4.812  10.892  0.2092  0.2954 -0.4454
   18SAPC  H13A 2274   2.948   4.798  10.792 -1.3825  0.6791  0.1092
   18SAPC  H13B 2275   2.975   4.720  10.946 -0.3603 -0.6194 -2.0538
   18SAPC  H13C 2276   2.934   4.893  10.937  1.2615  0.0191  1.4238
   18SAPC   C14 2277   3.182   4.906  10.993 -0.3597 -0.9891 -0.8703
   18SAPC  H14A 2278   3.275   4.955  10.970 -1.3481  1.3832 -0.1331
   18SAPC  H14B 2279   3.109   4.980  11.022 -1.0053 -0.8462 -2.7246
   18SAPC  H14C 2280   3.203   4.830  11.067 -2.0051 -0.8405 -0.1946
   18SAPC   C15 2281   3.127   4.948  10.770  0.4142 -0.1229  0.6790
   18SAPC  H15A 2282   3.224   4.995  10.762  0.5687 -0.5718 -0.1975
   18SAPC  H15B 2283   3.101   4.893  10.681 -0.7732  1.5480 -0.0687
   18SAPC  H15C 2284   3.064   5.034  10.788  2.2783  1.1733  1.4016
   18SAPC   C11 2285   3.135   4.642  10.704  0.1554  0.0674  0.5816
   18SAPC  H11A 2286   3.045   4.593  10.747  0.9048 -1.4918  0.4156
   18SAPC  H11B 2287   3.201   4.559  10.672 -1.8063 -1.1754 -0.4073
   18SAPC     P 2288   2.974   4.726  10.520  0.1195 -0.1357  0.4630
   18SAPC   O13 2289   2.876   4.752  10.624 -0.2712 -0.4944 -0.1493
   18SAPC   O14 2290   2.972   4.816  10.403 -0.3443 -0.0597 -0.2258
   18SAPC   O12 2291   3.118   4.725  10.585 -0.7929 -0.2167 -0.2772
   18SAPC   O11 2292   2.952   4.571  10.479 -0.1602 -1.0272 -0.1708
   18SAPC    C1 2293   3.039   4.489  10.402  0.4654 -0.1582 -0.5963
   18SAPC    HA 2294   3.141   4.531  10.403  0.2197  0.4482 -0.3805
   18SAPC    HB 2295   3.025   4.389  10.448 -1.4588  0.7006  0.8299
   18SAPC    C2 2296   2.995   4.461  10.258  0.2147 -0.7190 -0.6407
   18SAPC    HS 2297   3.088   4.417  10.216  0.8864 -0.8849  0.9437
   18SAPC   O21 2298   2.940   4.582  10.202 -0.4417 -0.3520 -0.6925
   18SAPC   C21 2299   3.027   4.659  10.137 -0.1126  0.7710 -0.8111
   18SAPC   O22 2300   3.146   4.637  10.125 -0.1815  0.5957 -0.0622
   18SAPC   C22 2301   2.954   4.781  10.074  0.1579 -0.3953 -1.1054
   18SAPC   H2R 2302   2.844   4.780  10.082  0.1704  1.4937 -0.3597
   18SAPC   H2S 2303   2.995   4.857  10.144 -0.7129  0.0893 -1.1173
   18SAPC    C3 2304   2.877   4.353  10.253 -0.7613 -0.1672  0.5472
   18SAPC    HX 2305   2.792   4.399  10.307 -1.3086 -1.0667  0.4707
   18SAPC    HY 2306   2.905   4.253  10.292  0.8662 -1.5739 -3.6558
   18SAPC   O31 2307   2.834   4.343  10.119  0.2798  0.3292 -0.1616
   18SAPC   C31 2308   2.909   4.261  10.039  0.0157 -0.1523  0.2914
   18SAPC   O32 2309   3.015   4.226  10.071 -0.1868 -0.0892  0.4680
   18SAPC   C32 2310   2.836   4.254   9.909  0.0982  0.1685 -0.1091
   18SAPC   H2X 2311   2.807   4.355   9.871  0.4853  0.0616 -0.7019
   18SAPC   H2Y 2312   2.754   4.180   9.917  1.3526 -1.5067 -1.9755
   18SAPC   C23 2313   3.002   4.828   9.936 -0.2685 -0.1055  0.1123
   18SAPC   H3R 2314   3.084   4.757   9.911 -2.0690 -2.6996  1.2116
   18SAPC   H3S 2315   3.047   4.930   9.937 -0.0181 -0.2144  0.0833
   18SAPC   C24 2316   2.895   4.811   9.819 -0.0192  0.2650 -0.0482
   18SAPC   H4R 2317   2.935   4.841   9.719 -0.0286  0.7494  0.0894
   18SAPC   H4S 2318   2.814   4.886   9.831  0.9885  1.3880  0.0553
   18SAPC   C25 2319   2.849   4.669   9.803  0.4822 -0.3777 -0.1852
   18SAPC   H5R 2320   2.788   4.637   9.888  1.2962 -0.1439  0.5023
   18SAPC   C26 2321   2.858   4.594   9.693  0.4631  0.0798  0.0514
   18SAPC   H6R 2322   2.812   4.494   9.697  2.4180 -0.8840 -0.3430
   18SAPC   C27 2323   2.929   4.623   9.569  0.5924  0.1994 -0.5300
   18SAPC   H7R 2324   2.950   4.523   9.524 -0.5728 -0.2457 -0.1102
   18SAPC   H7S 2325   3.033   4.663   9.574  0.1493  1.4742 -1.1888
   18SAPC   C28 2326   2.855   4.715   9.476 -0.3644  0.0942 -0.3534
   18SAPC   H8R 2327   2.775   4.773   9.524  0.6014  1.7297 -0.6255
   18SAPC   C29 2328   2.900   4.762   9.362  0.3886 -0.2098  0.4674
   18SAPC   H9R 2329   2.849   4.841   9.305  1.6900  0.0107 -0.4410
   18SAPC  C210 2330   3.030   4.718   9.292 -1.0681  0.4471  0.0088
   18SAPC  H10R 2331   3.006   4.670   9.194 -1.6331 -2.0366  1.2877
   18SAPC  H10S 2332   3.080   4.633   9.342  1.4877  2.2510  0.6899
   18SAPC  C211 2333   3.130   4.829   9.283  0.2430  0.2485 -0.4751
   18SAPC  H11R 2334   3.132   4.897   9.370  0.1187 -0.2547 -0.0719
   18SAPC  C212 2335   3.217   4.848   9.178 -0.7254 -0.1852 -0.2910
   18SAPC  H12R 2336   3.299   4.920   9.187 -0.4572 -0.5041 -0.1717
   18SAPC  C213 2337   3.225   4.748   9.067  0.1182  0.2701  0.8775
   18SAPC  H13R 2338   3.183   4.649   9.096  0.8393  0.3623  2.3251
   18SAPC  H13S 2339   3.333   4.730   9.048 -0.4394  0.1410 -2.8164
   18SAPC  C214 2340   3.163   4.791   8.938 -0.2225 -0.0182  0.4020
   18SAPC  H14R 2341   3.053   4.803   8.936 -0.2057  0.2903 -2.1306
   18SAPC  C215 2342   3.219   4.816   8.821 -0.7851 -0.3443 -0.0668
   18SAPC  H15R 2343   3.154   4.842   8.736  2.0956  0.2257 -2.2533
   18SAPC  C216 2344   3.365   4.795   8.794 -0.6775 -0.8958 -0.8766
   18SAPC  H16R 2345   3.426   4.756   8.879 -0.9575  0.3562 -0.0875
   18SAPC  H16S 2346   3.396   4.898   8.767 -2.1010 -0.1658  0.1111
   18SAPC  C217 2347   3.384   4.700   8.677 -0.2561  0.6496 -0.2592
   18SAPC  H17R 2348   3.374   4.754   8.580 -0.4224 -0.7192 -1.0290
   18SAPC  H17S 2349   3.310   4.618   8.668  0.8520 -0.5558  1.0379
   18SAPC  C218 2350   3.531   4.646   8.671 -0.8214  1.2275  0.1595
   18SAPC  H18R 2351   3.538   4.587   8.764 -1.1225  1.5031  0.3594
   18SAPC  H18S 2352   3.607   4.728   8.667  0.6318 -0.0991 -3.5030
   18SAPC  C219 2353   3.561   4.550   8.556 -0.0468  0.0512 -0.4116
   18SAPC  H19R 2354   3.539   4.588   8.454 -1.4951 -1.2373 -0.6234
   18SAPC  H19S 2355   3.487   4.468   8.569 -0.2682  0.1617 -0.9472
   18SAPC  C220 2356   3.699   4.489   8.547 -0.8228 -0.6325 -0.4617
   18SAPC  H20R 2357   3.783   4.561   8.562 -1.8613  0.3834  0.7010
   18SAPC  H20S 2358   3.709   4.432   8.452  1.3272 -0.8596 -0.1447
   18SAPC  H20T 2359   3.704   4.418   8.632 -2.8215 -1.3633 -0.8990
   18SAPC   C33 2360   2.938   4.204   9.806  0.0910  0.6528  0.1526
   18SAPC   H3X 2361   2.971   4.102   9.833  2.5476  1.4010  0.2509
   18SAPC   H3Y 2362   3.031   4.266   9.811  0.0336  0.6980  0.8140
   18SAPC   C34 2363   2.874   4.192   9.659  0.5773 -0.1673  0.1507
   18SAPC   H4X 2364   2.859   4.296   9.623 -0.3592  0.1674  1.4292
   18SAPC   H4Y 2365   2.771   4.151   9.671  0.1718  0.9448  0.5356
   18SAPC   C35 2366   2.957   4.094   9.567  0.6278 -0.0402  1.0709
   18SAPC   H5X 2367   3.006   4.012   9.624 -0.6698 -0.4816  1.6058
   18SAPC   H5Y 2368   3.033   4.159   9.519 -0.7124  1.2463  0.6037
   18SAPC   C36 2369   2.867   4.023   9.463 -0.1729 -0.8008  0.5749
   18SAPC   H6X 2370   2.782   3.991   9.527  0.8186  1.0826  3.0185
   18SAPC   H6Y 2371   2.925   3.942   9.414  0.3448  0.4074 -0.8672
   18SAPC   C37 2372   2.819   4.120   9.351  0.4601 -0.3246 -0.4632
   18SAPC   H7X 2373   2.782   4.215   9.397  1.7120  0.5321 -1.1464
   18SAPC   H7Y 2374   2.738   4.074   9.291  0.2286 -1.5351  0.7414
   18SAPC   C38 2375   2.923   4.179   9.256  0.4915  0.1287 -0.5978
   18SAPC   H8X 2376   2.974   4.086   9.224 -0.2041  0.2986 -2.3368
   18SAPC   H8Y 2377   2.990   4.250   9.308  1.6300 -1.2906 -0.0696
   18SAPC   C39 2378   2.861   4.247   9.133  0.3099  0.2432 -0.6579
   18SAPC   H9X 2379   2.759   4.207   9.115  0.8741 -1.7439  0.2330
   18SAPC   H9Y 2380   2.920   4.213   9.046 -0.5141 -2.9841 -0.0767
   18SAPC  C310 2381   2.858   4.402   9.149 -0.2432 -0.2277 -0.5580
   18SAPC  H10X 2382   2.964   4.436   9.149 -0.5132  0.6814  1.0817
   18SAPC  H10Y 2383   2.807   4.436   9.241 -0.0757 -2.2975  0.3586
   18SAPC  C311 2384   2.792   4.463   9.027  0.4807  0.3237  0.4852
   18SAPC  H11X 2385   2.805   4.573   9.020  0.2510  0.3840  0.9976
   18SAPC  H11Y 2386   2.685   4.435   9.019  0.4368  0.8783 -1.4165
   18SAPC  C312 2387   2.853   4.413   8.891  0.0276 -0.5453  0.4530
   18SAPC  H12X 2388   2.814   4.311   8.870 -2.9327  0.3209  1.2152
   18SAPC  H12Y 2389   2.963   4.406   8.904 -0.1533  0.5279  3.4743
   18SAPC  C313 2390   2.802   4.494   8.774 -0.3859  0.0280 -0.7494
   18SAPC  H13X 2391   2.833   4.600   8.787  0.0594 -0.1895  0.0400
   18SAPC  H13Y 2392   2.692   4.505   8.782 -0.4091 -1.3639  2.2654
   18SAPC  C314 2393   2.838   4.442   8.636 -0.1875  0.6279 -0.4281
   18SAPC  H14X 2394   2.765   4.478   8.560 -1.0209 -0.2600 -0.0720
   18SAPC  H14Y 2395   2.819   4.333   8.635  2.3768  0.1062 -2.2667
   18SAPC  C315 2396   2.972   4.473   8.572 -0.5277 -0.6463 -0.2578
   18SAPC  H15X 2397   3.053   4.472   8.648 -0.3886  0.6417 -0.3685
   18SAPC  H15Y 2398   2.964   4.574   8.526  0.2772 -0.5110 -0.1099
   18SAPC  C316 2399   3.020   4.372   8.468  0.0577  0.3820 -0.2188
   18SAPC  H16X 2400   2.940   4.364   8.391  0.5528  0.1714 -0.7103
   18SAPC  H16Y 2401   3.017   4.274   8.521  2.4828  0.3919  0.0176
   18SAPC  C317 2402   3.149   4.391   8.406 -0.3091 -1.3047 -0.5207
   18SAPC  H17X 2403   3.171   4.316   8.328  0.4110  0.8268 -2.4645
   18SAPC  H17Y 2404   3.226   4.387   8.487 -0.4999  0.4289 -0.2249
   18SAPC  C318 2405   3.172   4.531   8.339  0.5068  0.2196 -0.0358
   18SAPC  H18X 2406   3.269   4.540   8.286  1.4019  0.4862  1.5816
   18SAPC  H18Y 2407   3.169   4.612   8.415  2.3264  0.7886 -0.5272
   18SAPC  H18Z 2408   3.097   4.559   8.261 -0.4387  0.7916  1.0456
   19SAPC     N 2409   3.420   6.726  10.686 -0.6029 -0.5436  0.3510
   19SAPC   C12 2410   3.398   6.711  10.534 -0.0543 -0.3900 -0.8258
   19SAPC  H12A 2411   3.498   6.710  10.492  0.5081  0.0140  0.4578
   19SAPC  H12B 2412   3.341   6.788  10.483 -0.9114 -0.5747 -0.1662
   19SAPC   C13 2413   3.300   6.786  10.755  0.3741  0.2599  0.5940
   19SAPC  H13A 2414   3.310   6.782  10.862  2.3592 -0.2846  0.4286
   19SAPC  H13B 2415   3.288   6.883  10.709 -0.5723  0.1037  0.4796
   19SAPC  H13C 2416   3.203   6.744  10.729 -0.0337  1.2388  0.5048
   19SAPC   C14 2417   3.435   6.590  10.737 -0.3767  0.7729  0.2659
   19SAPC  H14A 2418   3.451   6.581  10.844  1.4633  1.2393  0.0704
   19SAPC  H14B 2419   3.346   6.533  10.715 -0.3333  0.3507  1.1184
   19SAPC  H14C 2420   3.523   6.548  10.691  0.5393  1.2259  1.5336
   19SAPC   C15 2421   3.536   6.812  10.720 -0.4488 -0.5466 -0.0510
   19SAPC  H15A 2422   3.529   6.907  10.669 -1.2652  0.0681  1.1707
   19SAPC  H15B 2423   3.558   6.827  10.824  1.0305 -1.7595 -0.1325
   19SAPC  H15C 2424   3.618   6.757  10.674 -0.2214 -0.9463  0.8206
   19SAPC   C11 2425   3.329   6.574  10.489 -0.1017 -0.5262 -0.6300
   19SAPC  H11A 2426   3.402   6.493  10.509 -0.9227 -1.0496  0.3859
   19SAPC  H11B 2427   3.314   6.566  10.380 -4.5755  0.2537 -0.2659
   19SAPC     P 2428   3.080   6.623  10.474  0.3452  0.1468  0.1989
   19SAPC   O13 2429   2.956   6.553  10.513 -0.1359 -0.0255  0.0620
   19SAPC   O14 2430   3.090   6.767  10.508  0.4343  0.0343 -0.1989
   19SAPC   O12 2431   3.196   6.556  10.552 -0.7810 -0.0010  0.5273
   19SAPC   O11 2432   3.115   6.602  10.317  0.7970 -0.1181 -0.3874
   19SAPC    C1 2433   3.134   6.716  10.226  0.2230  0.2302 -0.4537
   19SAPC    HA 2434   3.192   6.798  10.273 -0.4768  0.5244 -0.0852
   19SAPC    HB 2435   3.182   6.696  10.128 -0.9179 -2.0355 -0.6095
   19SAPC    C2 2436   2.991   6.773  10.192 -0.5938 -0.4371 -0.0135
   19SAPC    HS 2437   2.937   6.792  10.287 -0.0296  0.6039  0.1128
   19SAPC   O21 2438   2.926   6.679  10.107  0.5609  0.2255 -0.0266
   19SAPC   C21 2439   2.786   6.678  10.112  0.3901 -0.9089  0.2176
   19SAPC   O22 2440   2.718   6.751  10.179 -0.3291  0.2578  0.2988
   19SAPC   C22 2441   2.729   6.573  10.018  0.2065  0.5194  0.2284
   19SAPC   H2R 2442   2.701   6.478  10.069 -0.3907 -1.5132 -3.4719
   19SAPC   H2S 2443   2.636   6.623   9.983  0.1661  0.1442 -0.2138
   19SAPC    C3 2444   3.010   6.909  10.122 -0.4811  0.4423 -0.3051
   19SAPC    HX 2445   3.061   6.979  10.191 -0.5395 -0.7863  1.0360
   19SAPC    HY 2446   2.907   6.949  10.112 -0.6849  0.0938  0.3395
   19SAPC   O31 2447   3.088   6.893  10.011 -0.2460 -0.0911  0.4169
   19SAPC   C31 2448   3.024   6.871   9.900 -0.5010 -0.6995  0.0313
   19SAPC   O32 2449   2.906   6.865   9.883 -0.2457  0.5006 -0.1707
   19SAPC   C32 2450   3.124   6.859   9.785  0.7660  0.8191 -0.4551
   19SAPC   H2X 2451   3.176   6.761   9.786 -0.1654  0.3199  0.1837
   19SAPC   H2Y 2452   3.207   6.932   9.797  2.5906 -0.9101 -1.7145
   19SAPC   C23 2453   2.821   6.531   9.906 -0.1209 -0.3774  0.0596
   19SAPC   H3R 2454   2.891   6.458   9.952  0.0093 -2.0085 -2.5063
   19SAPC   H3S 2455   2.887   6.608   9.861  0.9175 -0.2541  1.7187
   19SAPC   C24 2456   2.760   6.445   9.786 -0.2781 -0.0987  0.0604
   19SAPC   H4R 2457   2.714   6.348   9.813 -0.2396  0.0063  0.5176
   19SAPC   H4S 2458   2.850   6.424   9.725 -0.6944  0.6720 -0.8494
   19SAPC   C25 2459   2.655   6.520   9.710 -0.8851 -0.7264  0.5501
   19SAPC   H5R 2460   2.569   6.553   9.769  0.5374 -1.0453  2.9312
   19SAPC   C26 2461   2.652   6.540   9.575  0.1755 -0.5079 -0.8679
   19SAPC   H6R 2462   2.562   6.598   9.548 -1.7681 -0.4431  4.6363
   19SAPC   C27 2463   2.753   6.511   9.472  0.1939  0.2008 -0.1152
   19SAPC   H7R 2464   2.722   6.418   9.420 -0.4208  1.0831 -1.4045
   19SAPC   H7S 2465   2.850   6.508   9.525  0.0042 -1.3825  0.1918
   19SAPC   C28 2466   2.780   6.606   9.362 -0.9171 -0.1426  0.6996
   19SAPC   H8R 2467   2.837   6.694   9.396  0.7220 -0.4443 -1.0663
   19SAPC   C29 2468   2.753   6.595   9.229 -0.2316 -0.4787  0.3711
   19SAPC   H9R 2469   2.796   6.668   9.160  2.2550 -2.1756 -0.0004
   19SAPC  C210 2470   2.687   6.483   9.160  0.2843  1.0093 -0.0441
   19SAPC  H10R 2471   2.615   6.521   9.084 -2.6559  1.3660  2.7288
   19SAPC  H10S 2472   2.631   6.431   9.241  2.7608 -0.4368  0.8462
   19SAPC  C211 2473   2.795   6.389   9.107 -0.2439 -0.2345  0.2356
   19SAPC  H11R 2474   2.851   6.329   9.180 -0.9201 -0.3361  0.6763
   19SAPC  C212 2475   2.836   6.384   8.976 -0.9385 -0.0468 -0.0419
   19SAPC  H12R 2476   2.926   6.327   8.949 -0.5819  0.0113  0.9861
   19SAPC  C213 2477   2.769   6.458   8.861 -0.1926  0.1220  0.2443
   19SAPC  H13R 2478   2.660   6.441   8.855  0.0175 -0.6675 -2.1465
   19SAPC  H13S 2479   2.809   6.425   8.763 -0.0051 -0.1248  0.4017
   19SAPC  C214 2480   2.819   6.603   8.863 -0.2850  0.1209  0.4153
   19SAPC  H14R 2481   2.872   6.634   8.955  1.8819 -3.5694  0.6410
   19SAPC  C215 2482   2.808   6.687   8.751 -0.1378 -0.1663 -0.1768
   19SAPC  H15R 2483   2.858   6.784   8.762  0.4644 -0.5155  0.2425
   19SAPC  C216 2484   2.749   6.645   8.619 -0.0644  0.5200  0.5640
   19SAPC  H16R 2485   2.740   6.536   8.598  0.1834  0.6869 -0.4740
   19SAPC  H16S 2486   2.816   6.672   8.534 -1.6179  0.4788 -0.7174
   19SAPC  C217 2487   2.601   6.689   8.602  0.3100  0.2040 -0.1479
   19SAPC  H17R 2488   2.584   6.791   8.644 -0.9086  0.8987 -2.1774
   19SAPC  H17S 2489   2.540   6.618   8.661  1.9075 -1.4117 -0.3636
   19SAPC  C218 2490   2.565   6.678   8.459 -0.4278 -0.0558  0.3494
   19SAPC  H18R 2491   2.567   6.573   8.424  0.0837  0.4873 -1.3355
   19SAPC  H18S 2492   2.633   6.740   8.397  1.6123  0.0007  2.4840
   19SAPC  C219 2493   2.418   6.722   8.442 -0.2914 -0.5180  0.6004
   19SAPC  H19R 2494   2.422   6.832   8.452  1.2698 -0.3781 -0.9541
   19SAPC  H19S 2495   2.356   6.669   8.518  0.7970 -2.3300  0.3008
   19SAPC  C220 2496   2.357   6.682   8.311 -0.6220  0.6919  0.0751
   19SAPC  H20R 2497   2.410   6.728   8.225  1.8767  0.3527  1.3498
   19SAPC  H20S 2498   2.248   6.701   8.312 -1.1785 -1.7069 -2.6906
   19SAPC  H20T 2499   2.368   6.572   8.298  0.3649  0.5991  1.4306
   19SAPC   C33 2500   3.056   6.881   9.638 -0.7020  0.1049 -0.3411
   19SAPC   H3X 2501   3.015   6.984   9.631  0.9809  0.8414  0.0729
   19SAPC   H3Y 2502   2.974   6.808   9.622 -0.6977  0.5999 -3.2567
   19SAPC   C34 2503   3.167   6.873   9.537 -0.7249 -1.0093  0.3924
   19SAPC   H4X 2504   3.216   6.773   9.541  0.0748 -0.5828  1.6260
   19SAPC   H4Y 2505   3.230   6.962   9.561 -2.2989  0.2500  0.0109
   19SAPC   C35 2506   3.113   6.882   9.390  0.5017  0.0673 -0.3413
   19SAPC   H5X 2507   3.187   6.943   9.334  1.3355  0.0030  0.6787
   19SAPC   H5Y 2508   3.017   6.936   9.403  0.5132 -0.3534  1.8175
   19SAPC   C36 2509   3.111   6.749   9.310  0.3195 -0.8411  0.4438
   19SAPC   H6X 2510   3.049   6.680   9.371  1.0673 -1.3680  0.6359
   19SAPC   H6Y 2511   3.217   6.715   9.311  0.7628  0.3500 -1.3919
   19SAPC   C37 2512   3.064   6.766   9.173 -0.2832 -0.0863  1.0468
   19SAPC   H7X 2513   2.969   6.824   9.170 -0.3240 -0.1324  1.3932
   19SAPC   H7Y 2514   3.066   6.666   9.124  0.3006  0.5294 -0.2399
   19SAPC   C38 2515   3.165   6.846   9.095 -1.2396 -0.3628 -0.6898
   19SAPC   H8X 2516   3.267   6.810   9.120 -0.2611  1.0093 -2.4330
   19SAPC   H8Y 2517   3.159   6.954   9.123 -1.4230 -0.8600  1.3196
   19SAPC   C39 2518   3.143   6.837   8.943  0.3928  0.8719  0.4416
   19SAPC   H9X 2519   3.047   6.887   8.918  0.8629  1.6205  0.1035
   19SAPC   H9Y 2520   3.139   6.728   8.921 -1.9089  0.7758  1.0706
   19SAPC  C310 2521   3.256   6.904   8.866  0.6434 -0.3977  0.3683
   19SAPC  H10X 2522   3.349   6.851   8.894 -0.5682 -2.8294  0.0051
   19SAPC  H10Y 2523   3.267   7.014   8.884 -0.7528 -0.3787  1.2127
   19SAPC  C311 2524   3.247   6.860   8.711  0.2626 -0.3587 -0.4165
   19SAPC  H11X 2525   3.210   6.756   8.700  0.8924 -0.6011 -0.2652
   19SAPC  H11Y 2526   3.348   6.852   8.665  0.6308 -0.2804  0.3602
   19SAPC  C312 2527   3.177   6.961   8.616  0.0177  0.7396  0.5937
   19SAPC  H12X 2528   3.213   6.945   8.512 -1.1787  0.5186  0.2051
   19SAPC  H12Y 2529   3.205   7.064   8.648  0.1659  0.4272  1.4886
   19SAPC  C313 2530   3.023   6.948   8.621  0.3548 -0.4874  0.0701
   19SAPC  H13X 2531   2.988   6.966   8.724 -1.8013 -0.6156 -0.5888
   19SAPC  H13Y 2532   2.990   6.846   8.593 -1.3681 -0.6081  2.2789
   19SAPC  C314 2533   2.955   7.055   8.529  0.1225  0.3584 -0.4107
   19SAPC  H14X 2534   3.024   7.081   8.446  0.6417  0.9649  0.2028
   19SAPC  H14Y 2535   2.944   7.144   8.594  1.8967  0.6972 -0.5457
   19SAPC  C315 2536   2.813   7.012   8.472 -0.3491  0.3264  0.0452
   19SAPC  H15X 2537   2.766   6.945   8.546  0.8740  1.1875  1.6524
   19SAPC  H15Y 2538   2.817   6.959   8.374  3.3629 -0.9605  0.7416
   19SAPC  C316 2539   2.724   7.131   8.442  0.7422 -0.7082 -1.0663
   19SAPC  H16X 2540   2.747   7.166   8.339  1.9597 -3.3490 -1.7777
   19SAPC  H16Y 2541   2.742   7.204   8.525  1.0362 -3.6214  1.6504
   19SAPC  C317 2542   2.575   7.089   8.448 -0.6337  0.1585  0.3864
   19SAPC  H17X 2543   2.550   7.065   8.554 -3.2952 -1.7777 -0.5538
   19SAPC  H17Y 2544   2.555   7.001   8.383  1.8217  1.2774 -2.0870
   19SAPC  C318 2545   2.490   7.206   8.395  0.0721  0.2595 -0.0873
   19SAPC  H18X 2546   2.517   7.301   8.445 -0.8296  0.6391 -0.3016
   19SAPC  H18Y 2547   2.384   7.177   8.414  0.4540 -1.1886 -0.0267
   19SAPC  H18Z 2548   2.496   7.213   8.284 -2.4356 -1.8417 -0.4715
   20SAPC     N 2549   2.781   1.938  10.968  0.2563 -0.3386  0.1639
   20SAPC   C12 2550   2.756   1.932  10.819  0.1212  0.2726 -0.3715
   20SAPC  H12A 2551   2.666   1.988  10.798  0.8778  0.9437 -1.9624
   20SAPC  H12B 2552   2.735   1.829  10.792  0.2405 -0.0381  0.6924
   20SAPC   C13 2553   2.813   2.083  11.011 -0.2015 -0.1805 -0.6352
   20SAPC  H13A 2554   2.887   2.123  10.944  1.1022 -0.4926  0.5773
   20SAPC  H13B 2555   2.723   2.141  11.023  0.3948  0.6266  0.0845
   20SAPC  H13C 2556   2.847   2.073  11.113 -1.5056  2.4114  0.1300
   20SAPC   C14 2557   2.657   1.897  11.031  0.7297  0.5877  0.2516
   20SAPC  H14A 2558   2.665   1.863  11.133  0.3953 -1.5869 -0.4062
   20SAPC  H14B 2559   2.569   1.959  11.026  0.2214  0.0737  2.1323
   20SAPC  H14C 2560   2.635   1.800  10.988 -0.0966  0.7462  0.3152
   20SAPC   C15 2561   2.887   1.841  11.017  0.0234  0.0548 -0.6638
   20SAPC  H15A 2562   2.853   1.742  10.991  1.3628 -0.8881  0.9654
   20SAPC  H15B 2563   2.986   1.857  10.977  0.1193  0.6183 -0.2268
   20SAPC  H15C 2564   2.894   1.840  11.125  0.0995  0.0034 -0.6692
   20SAPC   C11 2565   2.863   1.981  10.719  0.5475 -0.4364 -0.0568
   20SAPC  H11A 2566   2.863   2.092  10.712 -3.1118 -0.1098  2.4936
   20SAPC  H11B 2567   2.838   1.943  10.618 -1.8002 -0.0963  0.3496
   20SAPC     P 2568   3.118   2.031  10.762  0.1827  0.1463 -0.0052
   20SAPC   O13 2569   3.111   2.121  10.881 -0.6717  0.4853  0.9734
   20SAPC   O14 2570   3.243   1.952  10.748  0.2285 -0.7269  0.0170
   20SAPC   O12 2571   2.991   1.938  10.762  0.6894  0.0763 -0.5022
   20SAPC   O11 2572   3.097   2.117  10.632 -0.6983  0.1463  0.5997
   20SAPC    C1 2573   3.116   2.040  10.515 -0.2905 -0.3347  0.3007
   20SAPC    HA 2574   3.224   2.015  10.508  0.1209  1.0399  1.2641
   20SAPC    HB 2575   3.052   1.949  10.507 -2.5858  1.2129  0.2541
   20SAPC    C2 2576   3.085   2.118  10.384  0.1596 -0.1099 -0.1149
   20SAPC    HS 2577   3.161   2.199  10.373 -1.3160  1.9200  3.0419
   20SAPC   O21 2578   2.951   2.168  10.401  0.4889 -0.0395  0.4008
   20SAPC   C21 2579   2.916   2.278  10.343 -0.1779  0.3244  0.6808
   20SAPC   O22 2580   2.981   2.349  10.274 -0.7628  0.2613  0.5840
   20SAPC   C22 2581   2.768   2.298  10.364 -0.6728  0.7188 -0.6539
   20SAPC   H2R 2582   2.755   2.376  10.442 -0.3168 -1.7510  2.0956
   20SAPC   H2S 2583   2.728   2.343  10.271 -0.0528  2.8841  0.0626
   20SAPC    C3 2584   3.090   2.023  10.258 -0.3856 -0.2515 -0.2770
   20SAPC    HX 2585   3.028   1.934  10.283  1.0991 -1.2313  0.1141
   20SAPC    HY 2586   3.193   1.981  10.266 -0.7999 -1.5138 -1.2061
   20SAPC   O31 2587   3.061   2.086  10.135  0.2126 -0.0188  0.0347
   20SAPC   C31 2588   3.153   2.162  10.080 -0.1814  0.1118 -0.8734
   20SAPC   O32 2589   3.269   2.178  10.111  0.6603  0.3131 -0.3789
   20SAPC   C32 2590   3.077   2.245   9.972 -0.0537  0.7240 -0.0821
   20SAPC   H2X 2591   3.027   2.332  10.020 -0.5325  0.7507 -0.6060
   20SAPC   H2Y 2592   2.991   2.185   9.936  1.0722 -0.1300 -1.4675
   20SAPC   C23 2593   2.694   2.167  10.408  0.8589 -0.1040 -0.3577
   20SAPC   H3R 2594   2.595   2.199  10.445  1.5539  1.4849  0.2193
   20SAPC   H3S 2595   2.742   2.118  10.495 -1.3687 -1.1733  0.3470
   20SAPC   C24 2596   2.673   2.074  10.293  0.2080 -0.1464  0.7142
   20SAPC   H4R 2597   2.652   1.976  10.342 -2.2924 -0.3082 -0.5580
   20SAPC   H4S 2598   2.774   2.065  10.246  0.9432  3.2242  1.4414
   20SAPC   C25 2599   2.559   2.103  10.202  0.2844 -0.1689 -0.0350
   20SAPC   H5R 2600   2.461   2.093  10.252 -0.0203 -1.4817 -0.8310
   20SAPC   C26 2601   2.569   2.138  10.075  0.0047 -0.4982 -0.4102
   20SAPC   H6R 2602   2.477   2.157  10.018 -0.7991 -0.0209  0.9999
   20SAPC   C27 2603   2.697   2.161   9.995  0.3324  0.7497  0.2593
   20SAPC   H7R 2604   2.727   2.078   9.927 -1.8355 -0.1846  0.3644
   20SAPC   H7S 2605   2.781   2.179  10.066 -0.1913  2.5430  0.4475
   20SAPC   C28 2606   2.687   2.295   9.917  0.3663 -0.2679  0.7207
   20SAPC   H8R 2607   2.665   2.381   9.982  0.7837  0.8458 -0.5642
   20SAPC   C29 2608   2.718   2.308   9.788 -0.8960 -0.0904 -0.2271
   20SAPC   H9R 2609   2.720   2.408   9.741  0.6303 -0.2571 -0.5678
   20SAPC  C210 2610   2.758   2.200   9.697 -0.1991 -0.0111 -0.0162
   20SAPC  H10R 2611   2.828   2.135   9.753 -1.8309 -0.4683  1.6057
   20SAPC  H10S 2612   2.813   2.247   9.613  0.9788 -0.7898  0.3087
   20SAPC  C211 2613   2.644   2.113   9.651  0.7617  0.3693 -0.0181
   20SAPC  H11R 2614   2.560   2.098   9.721  0.2406 -0.9373 -0.8790
   20SAPC  C212 2615   2.635   2.058   9.526 -0.1336  0.0558 -0.4739
   20SAPC  H12R 2616   2.548   1.996   9.500  1.2360 -1.0951 -2.5997
   20SAPC  C213 2617   2.738   2.062   9.418  0.2973 -0.3070  0.1639
   20SAPC  H13R 2618   2.763   1.957   9.395 -3.0739 -0.8251 -1.8880
   20SAPC  H13S 2619   2.831   2.111   9.454 -1.4545  1.8694  2.0649
   20SAPC  C214 2620   2.689   2.123   9.287  0.4830 -0.3508  0.2538
   20SAPC  H14R 2621   2.593   2.085   9.248  0.4095  0.6070 -0.5241
   20SAPC  C215 2622   2.733   2.227   9.225 -0.1961  0.4904  0.3270
   20SAPC  H15R 2623   2.687   2.249   9.128  1.7554  2.7374 -0.1784
   20SAPC  C216 2624   2.871   2.298   9.260  0.0070  0.1030  0.1135
   20SAPC  H16R 2625   2.936   2.264   9.177 -2.0810 -1.6510 -0.8891
   20SAPC  H16S 2626   2.924   2.267   9.352  1.2542 -1.3560 -1.0346
   20SAPC  C217 2627   2.864   2.448   9.237  0.0253 -0.2328 -0.1822
   20SAPC  H17R 2628   2.806   2.470   9.145 -1.9957  2.4826  1.5901
   20SAPC  H17S 2629   2.961   2.499   9.222 -0.3261 -0.0361 -2.1314
   20SAPC  C218 2630   2.799   2.513   9.361  0.5802  0.0655 -0.4500
   20SAPC  H18R 2631   2.841   2.455   9.446  1.1502 -3.3723 -2.8604
   20SAPC  H18S 2632   2.689   2.505   9.355  0.5852  0.7610 -2.7280
   20SAPC  C219 2633   2.821   2.660   9.390 -1.0162 -0.2994  0.2450
   20SAPC  H19R 2634   2.779   2.720   9.307  0.7307 -1.0110 -1.2059
   20SAPC  H19S 2635   2.931   2.672   9.377 -1.0112 -0.8566 -0.2425
   20SAPC  C220 2636   2.775   2.699   9.537  0.0519  0.6441 -0.4029
   20SAPC  H20R 2637   2.810   2.628   9.615  0.2665  0.1740 -0.9183
   20SAPC  H20S 2638   2.665   2.710   9.546  0.0359 -0.7221  2.1283
   20SAPC  H20T 2639   2.815   2.797   9.569  2.5427 -1.1410  2.5915
   20SAPC   C33 2640   3.175   2.283   9.850  1.2220  0.4435 -0.4312
   20SAPC   H3X 2641   3.216   2.193   9.798 -1.1047  0.2068 -2.0416
   20SAPC   H3Y 2642   3.260   2.338   9.894 -1.2835  1.2567  4.0182
   20SAPC   C34 2643   3.099   2.367   9.749 -0.3633 -0.8248  0.1040
   20SAPC   H4X 2644   3.089   2.465   9.800  0.8950  1.1575 -3.0859
   20SAPC   H4Y 2645   3.003   2.314   9.734 -0.2762 -0.9459 -0.0395
   20SAPC   C35 2646   3.180   2.399   9.621 -0.7103 -0.6702 -0.4023
   20SAPC   H5X 2647   3.287   2.400   9.653 -0.4129  0.8509 -1.2849
   20SAPC   H5Y 2648   3.148   2.501   9.590 -1.8606 -1.0686 -0.5736
   20SAPC   C36 2649   3.171   2.298   9.504  1.0548  0.4335 -0.3116
   20SAPC   H6X 2650   3.079   2.316   9.444  0.6960 -1.6607 -0.4603
   20SAPC   H6Y 2651   3.159   2.199   9.553  0.3872 -0.3693 -2.0062
   20SAPC   C37 2652   3.288   2.292   9.404 -0.5024  0.2746  0.7043
   20SAPC   H7X 2653   3.270   2.218   9.323 -0.3177 -0.7155  1.5419
   20SAPC   H7Y 2654   3.379   2.247   9.449 -1.2837 -0.5121  1.5411
   20SAPC   C38 2655   3.314   2.423   9.326 -0.9834  0.0003 -0.3647
   20SAPC   H8X 2656   3.391   2.493   9.365 -0.0456  0.7938 -3.3512
   20SAPC   H8Y 2657   3.218   2.475   9.343 -1.3398 -1.1088  1.2444
   20SAPC   C39 2658   3.355   2.397   9.181  0.5954 -0.1102  0.8323
   20SAPC   H9X 2659   3.263   2.366   9.126  0.4234  0.6562  0.6705
   20SAPC   H9Y 2660   3.439   2.325   9.176  1.4031  0.8311  0.6493
   20SAPC  C310 2661   3.412   2.513   9.099  0.5669 -0.0335  0.4044
   20SAPC  H10X 2662   3.492   2.561   9.160 -0.1932  0.6058  0.9319
   20SAPC  H10Y 2663   3.329   2.585   9.083 -0.8108 -1.9148 -1.4416
   20SAPC  C311 2664   3.468   2.477   8.958  0.1733  0.2007  0.0035
   20SAPC  H11X 2665   3.546   2.398   8.956  0.6969  0.7234 -2.1439
   20SAPC  H11Y 2666   3.511   2.571   8.918 -0.2217  0.4515  0.1625
   20SAPC  C312 2667   3.361   2.434   8.859  1.5424  0.2871 -0.0728
   20SAPC  H12X 2668   3.292   2.521   8.863  0.4944 -0.5594  0.6934
   20SAPC  H12Y 2669   3.309   2.347   8.903 -0.0229  1.7058  1.0546
   20SAPC  C313 2670   3.407   2.408   8.717  0.1007  0.1001 -0.2164
   20SAPC  H13X 2671   3.459   2.310   8.719 -2.4476 -1.3601  2.4904
   20SAPC  H13Y 2672   3.466   2.488   8.667 -1.9539  2.5813  1.0703
   20SAPC  C314 2673   3.279   2.395   8.626  0.5352  0.6763  0.0937
   20SAPC  H14X 2674   3.206   2.470   8.663  1.9593  0.4668  3.8121
   20SAPC  H14Y 2675   3.227   2.301   8.651 -2.0252  2.1106  0.4940
   20SAPC  C315 2676   3.305   2.411   8.472 -0.2400  0.9896  0.3651
   20SAPC  H15X 2677   3.390   2.345   8.446 -0.6287  0.1355  1.2399
   20SAPC  H15Y 2678   3.318   2.511   8.424 -2.5820  1.1650 -0.0171
   20SAPC  C316 2679   3.184   2.353   8.396 -0.3257  0.3450 -0.3114
   20SAPC  H16X 2680   3.094   2.417   8.407 -0.7599 -0.3195  0.0804
   20SAPC  H16Y 2681   3.172   2.253   8.442  3.1041 -1.1433 -2.3035
   20SAPC  C317 2682   3.229   2.339   8.255  0.3871  0.2629  0.0641
   20SAPC  H17X 2683   3.305   2.258   8.263 -0.6296 -0.7829 -0.6311
   20SAPC  H17Y 2684   3.278   2.431   8.215 -1.5324  0.6463 -1.5463
   20SAPC  C318 2685   3.130   2.296   8.143 -0.0059 -0.3707  0.8277
   20SAPC  H18X 2686   3.178   2.254   8.052  1.7064 -0.9676  1.9578
   20SAPC  H18Y 2687   3.071   2.383   8.109  1.3615 -0.2604 -1.5352
   20SAPC  H18Z 2688   3.057   2.218   8.172  2.1846 -2.2003  1.7849
   21SAPC     N 2689   1.632   2.314  11.046  0.5060  0.0632 -0.0913
   21SAPC   C12 2690   1.621   2.342  10.892 -0.3875 -0.2424 -0.1874
   21SAPC  H12A 2691   1.666   2.437  10.867  2.3313 -1.5158 -0.5148
   21SAPC  H12B 2692   1.519   2.339  10.858 -0.7223  2.7689  0.2561
   21SAPC   C13 2693   1.544   2.415  11.115  0.2941  0.7370  0.2549
   21SAPC  H13A 2694   1.447   2.408  11.068  1.5780 -1.9980 -2.2681
   21SAPC  H13B 2695   1.526   2.397  11.220 -2.2732 -1.6774 -0.4577
   21SAPC  H13C 2696   1.579   2.517  11.109  2.5703 -0.0754 -1.4997
   21SAPC   C14 2697   1.595   2.171  11.068  0.9259  0.8393 -0.0455
   21SAPC  H14A 2698   1.511   2.135  11.009  2.3099 -3.1215  0.1056
   21SAPC  H14B 2699   1.669   2.097  11.041 -1.1396 -1.5532  0.4341
   21SAPC  H14C 2700   1.573   2.163  11.173  2.3019  4.3727  0.6456
   21SAPC   C15 2701   1.772   2.338  11.100 -0.0846 -0.0598  0.0507
   21SAPC  H15A 2702   1.821   2.432  11.079  0.7192 -0.9744 -2.5198
   21SAPC  H15B 2703   1.763   2.328  11.207 -1.2443  2.5060  0.2831
   21SAPC  H15C 2704   1.834   2.258  11.062  0.9400  1.0201 -0.6187
   21SAPC   C11 2705   1.701   2.249  10.796  0.1395 -0.6600 -0.0066
   21SAPC  H11A 2706   1.806   2.245  10.832  0.0010  0.1203  0.5156
   21SAPC  H11B 2707   1.715   2.308  10.703 -3.5016  1.0228  0.3555
   21SAPC     P 2708   1.514   2.114  10.688  0.3044  0.2211 -0.5385
   21SAPC   O13 2709   1.496   1.972  10.648  0.1099  0.8971 -0.0813
   21SAPC   O14 2710   1.405   2.186  10.767 -0.5277  0.0088  1.0001
   21SAPC   O12 2711   1.650   2.125  10.773  0.1882 -0.0153  0.7443
   21SAPC   O11 2712   1.543   2.193  10.556  0.4476 -0.0438 -0.3531
   21SAPC    C1 2713   1.644   2.146  10.460  0.3725 -0.6077 -0.1180
   21SAPC    HA 2714   1.742   2.198  10.469 -0.3005  0.8725 -0.9836
   21SAPC    HB 2715   1.659   2.036  10.461  2.2277 -0.4517  2.4988
   21SAPC    C2 2716   1.600   2.165  10.309  0.4946 -0.0143  0.2159
   21SAPC    HS 2717   1.612   2.273  10.285  0.3319  0.1812  0.9994
   21SAPC   O21 2718   1.460   2.128  10.282  0.3448 -0.3463  0.2510
   21SAPC   C21 2719   1.375   2.224  10.305 -0.0394  0.9625 -0.2068
   21SAPC   O22 2720   1.399   2.338  10.338  0.1226 -0.3454  0.1852
   21SAPC   C22 2721   1.234   2.164  10.287  0.5867 -0.4164  0.0488
   21SAPC   H2R 2722   1.245   2.056  10.263  0.8777 -0.9032  2.1320
   21SAPC   H2S 2723   1.180   2.172  10.384 -0.8459  0.6546 -0.8055
   21SAPC    C3 2724   1.705   2.100  10.211  0.7385  0.3256 -0.8768
   21SAPC    HX 2725   1.729   2.006  10.266 -0.9994  0.6068  0.4223
   21SAPC    HY 2726   1.792   2.169  10.208 -0.0304  1.4378  0.6697
   21SAPC   O31 2727   1.652   2.076  10.087  0.2303 -0.0984 -0.0891
   21SAPC   C31 2728   1.605   1.964  10.042 -0.2389  0.9597 -0.2547
   21SAPC   O32 2729   1.618   1.857  10.103 -0.3604 -0.6671 -0.0892
   21SAPC   C32 2730   1.560   1.979   9.900  0.1746 -0.0098 -0.3676
   21SAPC   H2X 2731   1.553   2.089   9.888  1.6028  0.0947 -0.4033
   21SAPC   H2Y 2732   1.466   1.925   9.876 -0.2771  0.9842 -0.8700
   21SAPC   C23 2733   1.162   2.252  10.176 -0.0489  0.4113 -0.4714
   21SAPC   H3R 2734   1.162   2.362  10.196 -0.9666  0.3655 -0.1353
   21SAPC   H3S 2735   1.056   2.221  10.191  0.7432 -2.1725  0.3327
   21SAPC   C24 2736   1.213   2.216  10.031  0.3248  0.2293 -0.7891
   21SAPC   H4R 2737   1.199   2.106  10.026 -0.4352  0.1630  1.4991
   21SAPC   H4S 2738   1.322   2.238  10.031  0.1443  1.1574 -1.3370
   21SAPC   C25 2739   1.151   2.285   9.920 -0.2116  0.1374  0.4697
   21SAPC   H5R 2740   1.139   2.394   9.936  3.2967  0.5500  0.9795
   21SAPC   C26 2741   1.103   2.236   9.808 -0.8474 -0.4081  0.3396
   21SAPC   H6R 2742   1.090   2.308   9.726 -0.5754 -0.4805  0.2280
   21SAPC   C27 2743   1.121   2.086   9.766  0.2540  0.5696  0.4384
   21SAPC   H7R 2744   1.078   2.028   9.850  2.2279 -0.5045  0.7657
   21SAPC   H7S 2745   1.224   2.046   9.753 -0.3027 -0.7559 -0.1174
   21SAPC   C28 2746   1.034   2.056   9.651  0.2001  0.3882  0.4075
   21SAPC   H8R 2747   0.931   2.023   9.667  0.4724 -3.3231 -3.5031
   21SAPC   C29 2748   1.074   2.061   9.519 -0.0631  0.0151  0.0873
   21SAPC   H9R 2749   0.998   2.042   9.441  1.5163 -0.1823 -1.4854
   21SAPC  C210 2750   1.212   2.108   9.474 -0.1224 -0.3289  0.3805
   21SAPC  H10R 2751   1.275   2.155   9.552  1.6314  1.7833 -2.1526
   21SAPC  H10S 2752   1.182   2.194   9.412  0.4837 -0.6357 -0.3455
   21SAPC  C211 2753   1.289   1.989   9.404 -0.3976 -0.4106  1.0599
   21SAPC  H11R 2754   1.339   1.921   9.474  0.3561 -0.6371  0.3192
   21SAPC  C212 2755   1.301   1.954   9.273 -0.3469  0.1257  0.9126
   21SAPC  H12R 2756   1.363   1.867   9.247 -0.9758 -0.6713  1.9700
   21SAPC  C213 2757   1.241   2.035   9.159 -0.1038  0.0481  0.0571
   21SAPC  H13R 2758   1.154   2.096   9.191 -0.1455  0.0031  0.0324
   21SAPC  H13S 2759   1.187   1.959   9.098 -1.2089 -0.7595  1.9669
   21SAPC  C214 2760   1.331   2.105   9.075 -0.4218 -0.9098  0.0859
   21SAPC  H14R 2761   1.355   2.207   9.109  0.5730 -1.0992  0.0082
   21SAPC  C215 2762   1.379   2.066   8.956 -0.5426  0.4954  0.2871
   21SAPC  H15R 2763   1.456   2.124   8.903 -0.6091  0.1552 -0.1959
   21SAPC  C216 2764   1.359   1.928   8.888 -0.5438  0.6546 -0.0748
   21SAPC  H16R 2765   1.308   1.846   8.942 -0.3770 -0.0438 -0.9570
   21SAPC  H16S 2766   1.459   1.885   8.864 -1.1059  0.0358 -1.4389
   21SAPC  C217 2767   1.285   1.941   8.756  0.4317  0.2902 -0.2388
   21SAPC  H17R 2768   1.342   2.007   8.688 -1.0735  2.8640  0.8629
   21SAPC  H17S 2769   1.190   1.994   8.776  0.0592 -1.2596  2.8043
   21SAPC  C218 2770   1.231   1.807   8.706  0.3482  0.1652  0.6497
   21SAPC  H18R 2771   1.176   1.842   8.615  2.1088  2.9779  0.5406
   21SAPC  H18S 2772   1.160   1.772   8.783  0.2593  0.6865  0.8074
   21SAPC  C219 2773   1.341   1.701   8.674 -0.2813  0.1597 -0.2277
   21SAPC  H19R 2774   1.300   1.598   8.665  2.1281 -0.9197  0.2184
   21SAPC  H19S 2775   1.409   1.684   8.759 -0.3863  1.7323  0.1965
   21SAPC  C220 2776   1.408   1.718   8.535  0.0146 -0.6309 -0.0409
   21SAPC  H20R 2777   1.456   1.818   8.532 -2.3565  0.6382  1.2479
   21SAPC  H20S 2778   1.323   1.713   8.464 -2.2023  2.4312  2.0992
   21SAPC  H20T 2779   1.486   1.640   8.532  1.7942  0.5420  4.9830
   21SAPC   C33 2780   1.682   1.949   9.798  0.4434  0.0930 -0.5233
   21SAPC   H3X 2781   1.727   1.850   9.823  1.5735  0.8514  0.6263
   21SAPC   H3Y 2782   1.755   2.030   9.820  1.0363 -0.2851 -1.0810
   21SAPC   C34 2783   1.622   1.956   9.655  0.0371  0.3621  0.6886
   21SAPC   H4X 2784   1.561   2.048   9.643 -1.0810 -0.3911  0.4542
   21SAPC   H4Y 2785   1.551   1.871   9.644  0.4216 -0.2975  2.8371
   21SAPC   C35 2786   1.731   1.937   9.546 -0.2470 -0.3313 -0.7180
   21SAPC   H5X 2787   1.766   1.832   9.528  0.5803 -0.3688  0.9173
   21SAPC   H5Y 2788   1.818   1.981   9.598 -0.4395  0.1157 -0.7751
   21SAPC   C36 2789   1.709   2.015   9.416 -0.0508 -0.0315 -0.3825
   21SAPC   H6X 2790   1.726   2.120   9.447  0.3543 -0.4404  0.8295
   21SAPC   H6Y 2791   1.602   2.009   9.388 -0.5502  0.3697  1.3202
   21SAPC   C37 2792   1.810   1.992   9.299  0.0568 -0.3805  0.0338
   21SAPC   H7X 2793   1.803   1.885   9.268 -1.8836  0.3985 -2.6331
   21SAPC   H7Y 2794   1.909   2.006   9.347 -1.0698  1.0690  2.1136
   21SAPC   C38 2795   1.779   2.069   9.171 -0.6057  0.4182 -0.6113
   21SAPC   H8X 2796   1.789   2.178   9.192 -1.1356  0.3675 -0.0550
   21SAPC   H8Y 2797   1.673   2.052   9.142 -0.4162 -0.4340 -0.8326
   21SAPC   C39 2798   1.883   2.041   9.062  0.2019  0.1963 -0.5360
   21SAPC   H9X 2799   1.906   1.932   9.053 -2.8373 -0.4701 -1.4536
   21SAPC   H9Y 2800   1.979   2.091   9.087  1.0671 -1.2190 -0.8697
   21SAPC  C310 2801   1.831   2.093   8.920  0.1165 -0.1446  0.3918
   21SAPC  H10X 2802   1.816   2.203   8.926  2.0589  0.1582  0.1666
   21SAPC  H10Y 2803   1.730   2.048   8.905  0.2748 -0.8211  1.2687
   21SAPC  C311 2804   1.906   2.039   8.797  0.6096 -0.2361  0.1118
   21SAPC  H11X 2805   2.014   2.036   8.823  0.7297  0.7619 -0.2297
   21SAPC  H11Y 2806   1.903   2.121   8.723  2.6337  1.1622  1.4810
   21SAPC  C312 2807   1.867   1.896   8.760  0.3564  0.5007 -0.1657
   21SAPC  H12X 2808   1.757   1.883   8.750  0.4535 -2.2065  1.2978
   21SAPC  H12Y 2809   1.887   1.828   8.846  1.1482  0.1855 -0.5856
   21SAPC  C313 2810   1.927   1.852   8.623 -0.5922  0.4238  0.9698
   21SAPC  H13X 2811   2.032   1.888   8.626 -0.2964 -0.3708  0.3512
   21SAPC  H13Y 2812   1.881   1.908   8.539  0.9755 -0.0462 -0.2366
   21SAPC  C314 2813   1.952   1.706   8.601  0.1387  0.4195 -0.5285
   21SAPC  H14X 2814   2.002   1.648   8.681 -1.8907 -1.5529 -0.5976
   21SAPC  H14Y 2815   2.011   1.680   8.511  2.6956 -2.4073  1.7554
   21SAPC  C315 2816   1.816   1.635   8.581  0.3867  0.0830 -0.0028
   21SAPC  H15X 2817   1.757   1.667   8.493 -0.6938 -3.1925 -0.6056
   21SAPC  H15Y 2818   1.762   1.675   8.669  1.3051  3.0157 -0.6664
   21SAPC  C316 2819   1.830   1.483   8.590 -0.1317 -0.5323 -0.1301
   21SAPC  H16X 2820   1.730   1.443   8.615 -0.4925  1.3047  1.6674
   21SAPC  H16Y 2821   1.887   1.470   8.685 -0.0523  0.0958 -0.0857
   21SAPC  C317 2822   1.904   1.411   8.470  0.2844  0.1001  0.7308
   21SAPC  H17X 2823   1.940   1.315   8.512  1.4703 -0.9318 -2.3618
   21SAPC  H17Y 2824   1.989   1.479   8.445  0.5738 -0.5653 -0.1270
   21SAPC  C318 2825   1.834   1.382   8.340  0.2011 -0.1186  0.0843
   21SAPC  H18X 2826   1.779   1.471   8.302  0.6630  0.6443  1.1733
   21SAPC  H18Y 2827   1.758   1.302   8.347  0.1130 -0.1401 -0.8906
   21SAPC  H18Z 2828   1.912   1.356   8.265 -2.3835 -2.8002 -1.9231
   22SAPC     N 2829   6.771   6.724  10.831 -0.5621 -0.6556 -0.6545
   22SAPC   C12 2830   6.847   6.831  10.748  1.0192  0.2502 -0.0816
   22SAPC  H12A 2831   6.824   6.929  10.788  1.4999 -0.6299  2.5383
   22SAPC  H12B 2832   6.808   6.835  10.647  1.7742  1.7324 -0.3347
   22SAPC   C13 2833   6.849   6.724  10.961  0.6544 -0.0745 -0.0941
   22SAPC  H13A 2834   6.868   6.822  11.000 -0.7633  0.0997  0.2188
   22SAPC  H13B 2835   6.786   6.665  11.027 -0.6356  1.1959 -0.1491
   22SAPC  H13C 2836   6.939   6.664  10.955  0.9717 -0.0620  2.8273
   22SAPC   C14 2837   6.629   6.775  10.858  0.3667  0.6930  0.0496
   22SAPC  H14A 2838   6.582   6.702  10.923 -2.0260  0.2786 -2.0105
   22SAPC  H14B 2839   6.633   6.878  10.887 -0.9254  1.0368 -0.9316
   22SAPC  H14C 2840   6.574   6.769  10.765 -0.0051  0.9561  0.2525
   22SAPC   C15 2841   6.771   6.591  10.768  0.0925  0.6198  0.1610
   22SAPC  H15A 2842   6.716   6.594  10.675 -0.9144 -0.5621  0.6814
   22SAPC  H15B 2843   6.870   6.553  10.749 -1.1138 -2.3849 -0.8909
   22SAPC  H15C 2844   6.721   6.517  10.829  0.6921  0.1735  0.1161
   22SAPC   C11 2845   6.993   6.810  10.743 -0.8165  0.1855  0.3626
   22SAPC  H11A 2846   7.046   6.830  10.838  1.2625 -0.4325 -0.5900
   22SAPC  H11B 2847   7.016   6.884  10.663 -2.4322  2.9831  2.3135
   22SAPC     P 2848   7.170   6.630  10.663  0.0717 -0.1620  0.3754
   22SAPC   O13 2849   7.261   6.680  10.768  0.1918  0.0807  0.7947
   22SAPC   O14 2850   7.169   6.481  10.638 -0.3389  0.0788  0.2488
   22SAPC   O12 2851   7.030   6.680  10.705 -0.0669  0.1434  0.4265
   22SAPC   O11 2852   7.203   6.702  10.528 -0.2985  0.2585  0.1315
   22SAPC    C1 2853   7.109   6.659  10.424  0.3310 -0.4474 -0.1403
   22SAPC    HA 2854   7.144   6.563  10.378 -0.7510 -0.6613 -0.5562
   22SAPC    HB 2855   7.000   6.656  10.441 -0.3135 -2.1488 -3.5877
   22SAPC    C2 2856   7.098   6.764  10.307  0.1967 -0.1624  1.0446
   22SAPC    HS 2857   7.030   6.720  10.232  0.9186  2.0459 -1.0191
   22SAPC   O21 2858   7.228   6.802  10.263 -0.5867  0.2215  0.4477
   22SAPC   C21 2859   7.291   6.707  10.189 -0.0074 -0.4150 -0.1931
   22SAPC   O22 2860   7.236   6.614  10.130 -0.1319 -0.2980  0.0712
   22SAPC   C22 2861   7.442   6.738  10.177  0.8113  0.0912 -0.4749
   22SAPC   H2R 2862   7.443   6.847  10.160  1.3648  0.3986  1.2791
   22SAPC   H2S 2863   7.484   6.715  10.278  0.6150  1.9219  0.0582
   22SAPC    C3 2864   7.023   6.889  10.354 -0.4072  0.2888  0.0256
   22SAPC    HX 2865   7.100   6.962  10.386  1.2720 -0.1947 -2.5785
   22SAPC    HY 2866   6.952   6.855  10.433  0.4087 -0.9117  0.2771
   22SAPC   O31 2867   6.956   6.940  10.239  0.6895  0.2564  0.7867
   22SAPC   C31 2868   6.876   7.040  10.270  0.4748  0.2137 -0.0587
   22SAPC   O32 2869   6.845   7.073  10.385  0.6208  0.1067  0.1648
   22SAPC   C32 2870   6.825   7.107  10.141 -0.8396  0.0307  0.3778
   22SAPC   H2X 2871   6.785   7.201  10.186  0.5436  0.4254  0.8177
   22SAPC   H2Y 2872   6.747   7.053  10.083 -0.4062  0.2077 -0.3839
   22SAPC   C23 2873   7.532   6.678  10.061 -0.6765  0.1260 -1.0800
   22SAPC   H3R 2874   7.561   6.576  10.093 -2.6933 -0.3872 -0.7139
   22SAPC   H3S 2875   7.622   6.743  10.057 -0.2102 -0.2735  1.3483
   22SAPC   C24 2876   7.467   6.665   9.927 -0.1103  1.1817 -0.1389
   22SAPC   H4R 2877   7.379   6.599   9.947  0.1231  1.3383  1.5708
   22SAPC   H4S 2878   7.538   6.603   9.869 -0.8931  0.4963 -0.3958
   22SAPC   C25 2879   7.427   6.793   9.862  0.3701 -0.1486 -0.3520
   22SAPC   H5R 2880   7.493   6.876   9.892  0.3575 -0.3050  0.1205
   22SAPC   C26 2881   7.326   6.811   9.775  0.6825 -0.1030 -0.9220
   22SAPC   H6R 2882   7.308   6.917   9.751 -0.8224  0.0775  0.7783
   22SAPC   C27 2883   7.228   6.715   9.710  0.5006 -0.1609  0.1815
   22SAPC   H7R 2884   7.139   6.772   9.676 -1.1458 -2.5264  0.2841
   22SAPC   H7S 2885   7.193   6.644   9.787  2.1011  0.3579  1.4315
   22SAPC   C28 2886   7.277   6.637   9.595  0.3803  0.1372 -0.8212
   22SAPC   H8R 2887   7.305   6.534   9.620 -0.2892  0.5277  1.8911
   22SAPC   C29 2888   7.282   6.672   9.466  0.0765 -0.0903  0.1942
   22SAPC   H9R 2889   7.313   6.603   9.386  0.3750  0.0801  0.1652
   22SAPC  C210 2890   7.233   6.801   9.403  0.4365  0.1826 -0.0106
   22SAPC  H10R 2891   7.311   6.839   9.334 -1.3898  1.9884 -1.2086
   22SAPC  H10S 2892   7.208   6.878   9.480 -0.5399  0.3664 -0.4957
   22SAPC  C211 2893   7.107   6.778   9.333  0.4265  0.1934 -0.1330
   22SAPC  H11R 2894   7.015   6.776   9.394  1.1305  0.9762  0.9829
   22SAPC  C212 2895   7.086   6.768   9.204  0.6293 -0.6977 -0.3968
   22SAPC  H12R 2896   6.982   6.742   9.180 -0.1335 -0.6590  2.5198
   22SAPC  C213 2897   7.177   6.787   9.089 -0.2589 -0.2266  0.1118
   22SAPC  H13R 2898   7.127   6.753   8.996 -0.5688  0.5743 -0.0205
   22SAPC  H13S 2899   7.274   6.735   9.108  0.4434  0.5821 -1.1407
   22SAPC  C214 2900   7.226   6.929   9.077  0.3878  0.5210 -0.7242
   22SAPC  H14R 2901   7.271   6.972   9.167 -0.3471 -1.2337  0.5550
   22SAPC  C215 2902   7.233   6.998   8.960  0.9180 -0.3486 -0.0949
   22SAPC  H15R 2903   7.266   7.103   8.959  0.2965 -0.1290 -1.6991
   22SAPC  C216 2904   7.195   6.959   8.821  0.2512  0.5015  0.8935
   22SAPC  H16R 2905   7.160   7.047   8.763 -0.4558  0.4475  1.2287
   22SAPC  H16S 2906   7.108   6.890   8.821  1.9514 -1.8037 -0.6541
   22SAPC  C217 2907   7.320   6.901   8.750 -0.2160 -0.2867 -0.3233
   22SAPC  H17R 2908   7.384   6.838   8.815  0.7011 -0.0321 -0.9589
   22SAPC  H17S 2909   7.382   6.990   8.726 -0.6402  0.6271  1.7507
   22SAPC  C218 2910   7.287   6.829   8.625  0.1565 -0.3918 -0.2952
   22SAPC  H18R 2911   7.218   6.895   8.568  0.4271 -1.4070 -1.8532
   22SAPC  H18S 2912   7.236   6.735   8.652 -2.6687  1.2537  0.5279
   22SAPC  C219 2913   7.415   6.780   8.555 -0.0416 -0.0973  0.9553
   22SAPC  H19R 2914   7.469   6.719   8.631  0.1724  0.9837  1.6992
   22SAPC  H19S 2915   7.475   6.868   8.524 -1.0893  0.0004 -0.9464
   22SAPC  C220 2916   7.382   6.700   8.423 -0.0521  0.2266  0.1435
   22SAPC  H20R 2917   7.321   6.743   8.341  0.1034  0.7979  0.3243
   22SAPC  H20S 2918   7.316   6.621   8.465  1.6134 -0.6592  1.2233
   22SAPC  H20T 2919   7.470   6.642   8.386 -1.7515 -1.2765 -1.7857
   22SAPC   C33 2920   6.943   7.145  10.044  0.3915 -0.0160  0.6329
   22SAPC   H3X 2921   7.002   7.059  10.006  1.0409  0.8264 -0.3201
   22SAPC   H3Y 2922   7.017   7.207  10.099  0.5422 -0.9595  1.5163
   22SAPC   C34 2923   6.895   7.216   9.912  0.0701  0.3379 -0.2299
   22SAPC   H4X 2924   6.814   7.291   9.926 -0.9553 -1.0371  1.8192
   22SAPC   H4Y 2925   6.844   7.134   9.856  2.2405 -0.5011 -1.1007
   22SAPC   C35 2926   7.017   7.254   9.824  0.1640 -0.7309  0.0441
   22SAPC   H5X 2927   7.082   7.164   9.820 -0.0817 -0.8878 -0.5943
   22SAPC   H5Y 2928   7.071   7.334   9.880 -0.5782  0.0730 -0.3628
   22SAPC   C36 2929   6.988   7.304   9.683  0.2174 -0.5409 -0.4197
   22SAPC   H6X 2930   7.073   7.356   9.635 -1.4309  1.1221 -1.6653
   22SAPC   H6Y 2931   6.903   7.375   9.688 -0.7141 -1.6247 -0.3195
   22SAPC   C37 2932   6.949   7.190   9.582  0.7142  1.3611  0.5692
   22SAPC   H7X 2933   6.848   7.154   9.610  1.1786  0.9671  1.8287
   22SAPC   H7Y 2934   7.019   7.104   9.592  0.2049  0.6585 -1.4681
   22SAPC   C38 2935   6.942   7.233   9.434  0.2106  0.2237 -0.1707
   22SAPC   H8X 2936   7.045   7.264   9.402  0.2380 -0.9296 -1.2740
   22SAPC   H8Y 2937   6.873   7.320   9.428  0.3786  0.7513  3.5510
   22SAPC   C39 2938   6.896   7.122   9.341 -0.5729  0.5206  0.0775
   22SAPC   H9X 2939   6.816   7.068   9.397  0.1784 -0.0501  0.6236
   22SAPC   H9Y 2940   6.984   7.053   9.344 -0.2287  0.9648  2.6452
   22SAPC  C310 2941   6.860   7.165   9.199 -0.2002 -0.5923 -0.2299
   22SAPC  H10X 2942   6.776   7.238   9.204  0.2743 -0.1313  3.1405
   22SAPC  H10Y 2943   6.838   7.069   9.148 -0.4862 -0.6089 -0.0816
   22SAPC  C311 2944   6.975   7.237   9.124  0.4749  0.5265  1.0117
   22SAPC  H11X 2945   7.070   7.187   9.152  0.3134 -1.2635 -1.2810
   22SAPC  H11Y 2946   6.987   7.345   9.149 -0.4820  0.5710  1.3411
   22SAPC  C312 2947   6.966   7.222   8.969 -0.3100  0.0405 -0.3319
   22SAPC  H12X 2948   6.971   7.114   8.946 -1.5092 -0.4345  1.4557
   22SAPC  H12Y 2949   7.056   7.261   8.917  1.2066 -4.0318 -1.1160
   22SAPC  C313 2950   6.846   7.289   8.903  0.1990 -0.0445  0.5300
   22SAPC  H13X 2951   6.859   7.399   8.912 -0.4989  0.0411  0.5221
   22SAPC  H13Y 2952   6.760   7.265   8.970  0.7464 -1.1674  0.8503
   22SAPC  C314 2953   6.838   7.232   8.757  0.7457  0.1807 -0.0862
   22SAPC  H14X 2954   6.934   7.247   8.702  2.3742 -1.4887  2.1488
   22SAPC  H14Y 2955   6.754   7.287   8.710 -0.7524 -1.4365  0.5763
   22SAPC  C315 2956   6.792   7.085   8.763  0.6811 -0.0968 -0.1762
   22SAPC  H15X 2957   6.731   7.059   8.852  2.2347  0.4229  1.0722
   22SAPC  H15Y 2958   6.874   7.011   8.759  1.1218  0.4009 -0.4186
   22SAPC  C316 2959   6.692   7.057   8.642 -0.1759 -0.3859  0.2761
   22SAPC  H16X 2960   6.609   7.131   8.648 -1.0109 -1.3102  0.5206
   22SAPC  H16Y 2961   6.656   6.952   8.633 -2.2609  0.2795  0.3688
   22SAPC  C317 2962   6.754   7.073   8.506  0.9253 -0.6983 -0.0994
   22SAPC  H17X 2963   6.774   7.182   8.498 -3.0562  0.3472  1.5355
   22SAPC  H17Y 2964   6.671   7.065   8.432 -0.2007 -3.0580  1.2978
   22SAPC  C318 2965   6.874   6.980   8.481 -0.1859 -0.4674  0.2624
   22SAPC  H18X 2966   6.941   6.992   8.568 -0.5505  1.2372  0.3453
   22SAPC  H18Y 2967   6.937   7.009   8.394 -1.2901 -1.0318 -0.7556
   22SAPC  H18Z 2968   6.849   6.872   8.483 -0.1919 -0.5247 -1.2306
   23SAPC     N 2969   1.968   0.849  10.901  0.2766  0.5026 -0.1343
   23SAPC   C12 2970   2.047   0.736  10.827  0.8234 -1.0202 -0.0757
   23SAPC  H12A 2971   2.035   0.754  10.721 -1.7974 -2.2176 -0.0770
   23SAPC  H12B 2972   1.996   0.641  10.838  0.9923 -1.1368 -0.2968
   23SAPC   C13 2973   1.814   0.838  10.873 -0.1178 -0.1619 -0.0715
   23SAPC  H13A 2974   1.797   0.882  10.777 -1.1270 -0.0687  0.1404
   23SAPC  H13B 2975   1.786   0.735  10.852  1.5970 -0.8057  0.5800
   23SAPC  H13C 2976   1.758   0.884  10.953  0.8303  2.0945 -0.6314
   23SAPC   C14 2977   1.976   0.817  11.047 -0.1257  0.6965  0.3266
   23SAPC  H14A 2978   2.079   0.806  11.077 -0.1650 -3.0220 -0.5054
   23SAPC  H14B 2979   1.918   0.894  11.097 -1.8096 -1.0505  1.1862
   23SAPC  H14C 2980   1.929   0.721  11.058 -2.1543  1.6595  0.4650
   23SAPC   C15 2981   2.015   0.980  10.856 -0.7872 -0.1562  0.3480
   23SAPC  H15A 2982   2.120   0.995  10.879 -0.9365 -2.3047  2.9311
   23SAPC  H15B 2983   2.017   0.985  10.748 -0.0320 -1.5451  0.2607
   23SAPC  H15C 2984   1.953   1.059  10.894  1.3516  0.2645  3.3146
   23SAPC   C11 2985   2.196   0.732  10.845 -0.4537  0.2128 -0.0126
   23SAPC  H11A 2986   2.234   0.640  10.795  1.1005  0.8947 -0.1487
   23SAPC  H11B 2987   2.218   0.721  10.954 -3.6420 -0.6588  0.6532
   23SAPC     P 2988   2.288   0.864  10.639  0.1873 -0.1435  0.4628
   23SAPC   O13 2989   2.164   0.845  10.560 -0.4684 -0.9405  0.1336
   23SAPC   O14 2990   2.350   0.996  10.619 -0.1060 -0.1653 -0.6571
   23SAPC   O12 2991   2.253   0.848  10.790 -0.4270  0.4131 -0.2527
   23SAPC   O11 2992   2.388   0.740  10.611  0.0148 -0.3743  0.3299
   23SAPC    C1 2993   2.524   0.772  10.596  0.3660 -0.0127 -0.6045
   23SAPC    HA 2994   2.562   0.870  10.634 -0.7307  0.6591 -1.1844
   23SAPC    HB 2995   2.578   0.692  10.651  1.1279  1.9081  1.6187
   23SAPC    C2 2996   2.560   0.756  10.441  0.2445  0.0828 -0.2935
   23SAPC    HS 2997   2.505   0.836  10.387  0.2138  0.1068 -0.2270
   23SAPC   O21 2998   2.525   0.621  10.403 -0.7809  0.2888  0.2099
   23SAPC   C21 2999   2.436   0.613  10.303 -0.2102  0.1922 -0.3465
   23SAPC   O22 3000   2.368   0.703  10.266  0.3114  0.0857  0.0908
   23SAPC   C22 3001   2.445   0.475  10.240 -0.9790 -0.2579  0.1760
   23SAPC   H2R 3002   2.530   0.422  10.289 -3.1380 -2.5699  1.6613
   23SAPC   H2S 3003   2.353   0.424  10.277 -1.0923 -0.9947 -1.0774
   23SAPC    C3 3004   2.708   0.778  10.410 -0.6384 -0.7521 -0.5632
   23SAPC    HX 3005   2.755   0.681  10.437  1.1408  0.0236 -0.7475
   23SAPC    HY 3006   2.758   0.847  10.480  0.9121 -1.7377 -0.6493
   23SAPC   O31 3007   2.729   0.818  10.275  0.0739  0.2805 -0.3254
   23SAPC   C31 3008   2.771   0.721  10.192  0.3990  0.1546 -0.0557
   23SAPC   O32 3009   2.785   0.605  10.229  0.1326 -0.0789 -0.2081
   23SAPC   C32 3010   2.833   0.772  10.060 -0.0171 -0.3705  0.1223
   23SAPC   H2X 3011   2.915   0.706  10.026 -0.5380 -1.3835  0.7834
   23SAPC   H2Y 3012   2.879   0.872  10.078  0.9243 -0.9822  1.2546
   23SAPC   C23 3013   2.461   0.479  10.091  0.1179  0.1543 -0.3525
   23SAPC   H3R 3014   2.562   0.512  10.059  0.5669  0.9039  1.7011
   23SAPC   H3S 3015   2.389   0.556  10.056 -1.5150 -1.3410 -0.4367
   23SAPC   C24 3016   2.422   0.348  10.029 -0.7396 -0.4144 -0.3674
   23SAPC   H4R 3017   2.398   0.361   9.921  0.8042 -2.9328 -1.1103
   23SAPC   H4S 3018   2.334   0.302  10.077 -2.0193  2.3726  0.1533
   23SAPC   C25 3019   2.546   0.253  10.041 -0.9120  0.7405  0.1772
   23SAPC   H5R 3020   2.583   0.238  10.143  0.0718 -0.3386 -0.3109
   23SAPC   C26 3021   2.608   0.183   9.942  0.2845 -0.2090 -0.1114
   23SAPC   H6R 3022   2.692   0.116   9.961  1.1832  1.1065  0.7506
   23SAPC   C27 3023   2.577   0.185   9.796  1.0302 -0.2388  0.1863
   23SAPC   H7R 3024   2.466   0.174   9.800  0.8661  1.1794 -0.1088
   23SAPC   H7S 3025   2.618   0.100   9.737  1.2016 -0.1465  0.1721
   23SAPC   C28 3026   2.609   0.304   9.709 -0.4075 -0.3685 -1.3361
   23SAPC   H8R 3027   2.590   0.401   9.757  1.0067 -0.8004  0.1754
   23SAPC   C29 3028   2.658   0.299   9.581  0.1433  0.0747 -0.0035
   23SAPC   H9R 3029   2.646   0.394   9.527  0.6115  0.9654  1.4110
   23SAPC  C210 3030   2.698   0.179   9.493  0.2192 -0.3803 -0.4074
   23SAPC  H10R 3031   2.763   0.119   9.560 -0.5533  0.1380  0.8334
   23SAPC  H10S 3032   2.762   0.209   9.406  0.1300 -1.6259 -0.9144
   23SAPC  C211 3033   2.583   0.096   9.445  0.0499  0.4422 -0.5993
   23SAPC  H11R 3034   2.531   0.037   9.522  0.4436 -0.2385 -0.8465
   23SAPC  C212 3035   2.540   0.091   9.324 -0.3049  0.1296  0.3552
   23SAPC  H12R 3036   2.456   0.025   9.298 -0.1335  0.1460 -0.2390
   23SAPC  C213 3037   2.596   0.164   9.204 -0.0115  0.4196  0.2256
   23SAPC  H13R 3038   2.614   0.268   9.241  0.9192 -0.0604  1.1532
   23SAPC  H13S 3039   2.526   0.173   9.118 -0.3949  1.4353  0.6211
   23SAPC  C214 3040   2.714   0.095   9.139  0.0964  0.1646 -0.2259
   23SAPC  H14R 3041   2.783   0.051   9.212  0.2469  1.4033  0.3980
   23SAPC  C215 3042   2.737   0.090   9.004 -0.4855 -0.0083 -0.8179
   23SAPC  H15R 3043   2.822   0.031   8.966 -1.4837 -1.3363 -1.0828
   23SAPC  C216 3044   2.661   0.161   8.897 -0.2943 -0.0701  0.1957
   23SAPC  H16R 3045   2.561   0.193   8.934  0.6434  1.2298  1.7255
   23SAPC  H16S 3046   2.643   0.102   8.805 -0.8508  1.1585 -0.5054
   23SAPC  C217 3047   2.735   0.283   8.836 -0.4553  0.2036 -0.0200
   23SAPC  H17R 3048   2.680   0.312   8.743 -2.3074  0.9343  1.2425
   23SAPC  H17S 3049   2.843   0.265   8.816 -0.2428  1.4437 -0.1082
   23SAPC  C218 3050   2.713   0.410   8.921 -0.4671 -0.0683  0.3185
   23SAPC  H18R 3051   2.768   0.397   9.017  0.5028  1.6186  0.0406
   23SAPC  H18S 3052   2.605   0.420   8.942 -0.8308 -1.1709 -0.8912
   23SAPC  C219 3053   2.776   0.530   8.847 -0.1427  0.3060  0.2349
   23SAPC  H19R 3054   2.707   0.549   8.762 -0.9772 -1.9887  0.3132
   23SAPC  H19S 3055   2.870   0.507   8.791  0.2807  1.3693  0.4859
   23SAPC  C220 3056   2.790   0.650   8.935 -1.0368  0.1064 -0.4269
   23SAPC  H20R 3057   2.864   0.629   9.016 -1.3711 -1.8271 -0.5840
   23SAPC  H20S 3058   2.692   0.670   8.983 -2.2240 -0.6661 -2.4193
   23SAPC  H20T 3059   2.826   0.742   8.884  1.5144 -0.7200 -0.2677
   23SAPC   C33 3060   2.730   0.794   9.943 -0.3262  0.0252 -0.7423
   23SAPC   H3X 3061   2.632   0.826   9.984  0.8293  3.0762 -0.1117
   23SAPC   H3Y 3062   2.720   0.690   9.905 -0.6025 -0.6955  1.2109
   23SAPC   C34 3063   2.788   0.891   9.847  0.0638 -0.0167 -0.0260
   23SAPC   H4X 3064   2.896   0.881   9.821  0.1527 -0.4612  0.4806
   23SAPC   H4Y 3065   2.770   0.987   9.901 -0.5904 -0.7252  1.0616
   23SAPC   C35 3066   2.701   0.893   9.719  0.2332  0.8949  0.1690
   23SAPC   H5X 3067   2.595   0.911   9.746 -0.0538  0.1162 -0.4141
   23SAPC   H5Y 3068   2.711   0.793   9.673  2.6719  1.2951 -0.3220
   23SAPC   C36 3069   2.756   0.986   9.614  0.0240 -0.0813 -0.7297
   23SAPC   H6X 3070   2.866   0.998   9.622 -0.1197  0.3732  0.7655
   23SAPC   H6Y 3071   2.704   1.083   9.626 -1.2963 -1.0005  1.6349
   23SAPC   C37 3072   2.708   0.944   9.475 -0.1770 -0.1003 -0.6269
   23SAPC   H7X 3073   2.598   0.955   9.468 -0.2927 -1.0942 -0.4908
   23SAPC   H7Y 3074   2.743   0.842   9.448  1.3449  0.7409 -2.0319
   23SAPC   C38 3075   2.757   1.047   9.370  0.1804  0.2354  0.6469
   23SAPC   H8X 3076   2.868   1.042   9.376  0.3023  0.0731 -1.1761
   23SAPC   H8Y 3077   2.732   1.149   9.404 -0.8174  0.1983  0.0460
   23SAPC   C39 3078   2.713   1.041   9.230  0.7671  0.2746 -0.0680
   23SAPC   H9X 3079   2.603   1.025   9.226  0.8832 -0.5127 -0.3527
   23SAPC   H9Y 3080   2.750   0.946   9.186 -0.9000 -1.1528  1.4450
   23SAPC  C310 3081   2.762   1.160   9.146 -0.6254  0.2076  0.4893
   23SAPC  H10X 3082   2.866   1.138   9.113 -0.3671 -0.7591  1.8273
   23SAPC  H10Y 3083   2.749   1.254   9.204 -1.1255  0.0241  0.6756
   23SAPC  C311 3084   2.671   1.169   9.024  1.0794  0.0834  0.0451
   23SAPC  H11X 3085   2.573   1.195   9.071  0.5378 -1.9263  0.1046
   23SAPC  H11Y 3086   2.655   1.075   8.968 -0.8849  0.2939  0.1839
   23SAPC  C312 3087   2.706   1.276   8.921 -0.6863 -0.1055  0.8949
   23SAPC  H12X 3088   2.728   1.366   8.982  0.4927  0.7361 -0.7162
   23SAPC  H12Y 3089   2.615   1.280   8.858 -0.9177 -1.9320  1.0536
   23SAPC  C313 3090   2.830   1.232   8.833  0.4421  0.0908 -1.1791
   23SAPC  H13X 3091   2.809   1.128   8.801 -1.3855  0.3734 -1.0042
   23SAPC  H13Y 3092   2.920   1.225   8.899  0.7543  1.6601 -1.3938
   23SAPC  C314 3093   2.869   1.333   8.726 -0.4756  0.7149  0.1937
   23SAPC  H14X 3094   2.918   1.428   8.754  2.5330 -0.1475 -1.5877
   23SAPC  H14Y 3095   2.782   1.347   8.658 -0.3325  1.3361  0.1373
   23SAPC  C315 3096   2.987   1.280   8.646 -0.2891 -0.0839 -0.5744
   23SAPC  H15X 3097   2.956   1.187   8.592 -1.8392  0.6159 -0.9265
   23SAPC  H15Y 3098   3.064   1.249   8.720 -1.9093 -2.3069  0.2821
   23SAPC  C316 3099   3.057   1.376   8.554  0.3290  0.5355  0.2464
   23SAPC  H16X 3100   3.103   1.454   8.618 -3.1403  0.9859  2.4426
   23SAPC  H16Y 3101   2.991   1.420   8.477  1.4328  0.2450 -0.8874
   23SAPC  C317 3102   3.168   1.332   8.463  0.0430 -0.0785  1.1059
   23SAPC  H17X 3103   3.216   1.249   8.518 -1.9445 -2.7625 -0.9767
   23SAPC  H17Y 3104   3.251   1.406   8.459 -0.4642  0.4515 -1.5618
   23SAPC  C318 3105   3.131   1.278   8.323 -0.3378  0.0359 -0.1957
   23SAPC  H18X 3106   3.056   1.351   8.285  0.5965  0.6292 -0.9423
   23SAPC  H18Y 3107   3.098   1.174   8.348  3.9061 -1.1143  1.4669
   23SAPC  H18Z 3108   3.215   1.273   8.251 -0.3185 -1.7170 -0.1114
   24SAPC     N 3109   0.442   0.757  10.894  0.7526  0.0803 -0.1288
   24SAPC   C12 3110   0.301   0.688  10.911 -0.8040  0.6654  0.5030
   24SAPC  H12A 3111   0.283   0.686  11.017  1.3547  2.1128  0.9523
   24SAPC  H12B 3112   0.302   0.583  10.883  0.3477  0.6250  0.6521
   24SAPC   C13 3113   0.545   0.687  10.982 -0.4193 -0.0018  0.4022
   24SAPC  H13A 3114   0.502   0.674  11.080 -0.8785 -3.9630 -0.1657
   24SAPC  H13B 3115   0.572   0.588  10.949 -2.4861 -0.6759  0.5920
   24SAPC  H13C 3116   0.639   0.740  10.985 -0.1447 -0.4795  0.4055
   24SAPC   C14 3117   0.491   0.762  10.756 -0.1348  0.2686 -0.1381
   24SAPC  H14A 3118   0.416   0.790  10.683  1.9765  1.8226 -1.8320
   24SAPC  H14B 3119   0.562   0.842  10.749 -0.2870  0.3416 -1.0578
   24SAPC  H14C 3120   0.533   0.673  10.712  0.0177  0.2260  0.0934
   24SAPC   C15 3121   0.443   0.895  10.948  0.7236 -0.6169 -0.1145
   24SAPC  H15A 3122   0.529   0.951  10.916 -0.2995 -0.0434 -2.0195
   24SAPC  H15B 3123   0.360   0.952  10.909  0.2951 -1.7997 -1.0050
   24SAPC  H15C 3124   0.439   0.894  11.056  0.4639  2.0725 -0.0362
   24SAPC   C11 3125   0.178   0.756  10.847  0.1076 -0.1122  0.1334
   24SAPC  H11A 3126   0.092   0.687  10.839 -1.5007  1.6458  1.4983
   24SAPC  H11B 3127   0.215   0.794  10.749  2.2538  2.7391  1.8828
   24SAPC     P 3128   0.012   0.951  10.869  0.0460  0.1995 -0.1855
   24SAPC   O13 3129  -0.111   0.879  10.906 -0.2495 -0.0363 -0.0260
   24SAPC   O14 3130   0.019   1.084  10.933  0.0842  0.5064 -0.0342
   24SAPC   O12 3131   0.133   0.859  10.930 -0.5044 -0.1116 -0.0700
   24SAPC   O11 3132   0.022   0.951  10.715 -0.1247  0.3776  0.0864
   24SAPC    C1 3133   0.109   1.049  10.650 -0.1429 -0.0814  0.1312
   24SAPC    HA 3134   0.202   1.057  10.711  1.3435 -1.4746 -1.8517
   24SAPC    HB 3135   0.143   1.014  10.551  0.2991 -2.5991  1.0807
   24SAPC    C2 3136   0.034   1.184  10.623  0.6269 -0.5701  0.1442
   24SAPC    HS 3137   0.001   1.207  10.727 -0.7153  0.5663 -0.5045
   24SAPC   O21 3138  -0.071   1.162  10.536  0.2883 -0.0716  0.1982
   24SAPC   C21 3139  -0.173   1.248  10.550  0.9413  0.1942  0.1277
   24SAPC   O22 3140  -0.180   1.336  10.635  0.6172 -0.5774 -0.2186
   24SAPC   C22 3141  -0.294   1.202  10.464 -0.2849 -0.4126  0.1802
   24SAPC   H2R 3142  -0.261   1.179  10.360 -1.8034 -0.7919 -0.2385
   24SAPC   H2S 3143  -0.337   1.108  10.504  0.8506 -1.0401 -0.0390
   24SAPC    C3 3144   0.129   1.300  10.573 -0.5405 -0.0846 -0.6435
   24SAPC    HX 3145   0.226   1.251  10.593  1.6149  3.3397 -1.8315
   24SAPC    HY 3146   0.127   1.381  10.648 -1.4619  0.7503 -1.5367
   24SAPC   O31 3147   0.107   1.346  10.438 -0.1853 -0.6518 -0.0354
   24SAPC   C31 3148   0.163   1.276  10.343 -0.5704  0.0310  0.3844
   24SAPC   O32 3149   0.226   1.175  10.368  0.3419 -0.2018  0.5776
   24SAPC   C32 3150   0.143   1.331  10.206  0.5244 -0.0260 -0.2840
   24SAPC   H2X 3151   0.195   1.428  10.197  1.2673 -0.1682  1.8658
   24SAPC   H2Y 3152   0.037   1.354  10.180 -0.0933 -1.7648  0.5222
   24SAPC   C23 3153  -0.404   1.305  10.459  0.0379 -0.0144  0.0558
   24SAPC   H3R 3154  -0.378   1.391  10.392  1.7702 -1.1126 -0.7612
   24SAPC   H3S 3155  -0.410   1.334  10.566 -1.6038 -1.3814  0.3636
   24SAPC   C24 3156  -0.538   1.254  10.405  0.0407  0.2496 -0.0128
   24SAPC   H4R 3157  -0.621   1.325  10.425  1.0303  1.2712  0.6280
   24SAPC   H4S 3158  -0.572   1.170  10.470  0.2801  0.5976  0.5687
   24SAPC   C25 3159  -0.531   1.186  10.269 -0.0767 -0.3335  0.3338
   24SAPC   H5R 3160  -0.456   1.107  10.266  0.1852 -0.0787  0.1059
   24SAPC   C26 3161  -0.611   1.214  10.164 -1.0886 -0.1479 -0.6373
   24SAPC   H6R 3162  -0.591   1.153  10.074  0.7994  1.1762 -1.1758
   24SAPC   C27 3163  -0.722   1.314  10.161 -0.2480  0.4598 -0.1104
   24SAPC   H7R 3164  -0.678   1.407  10.119  0.0558  0.2083 -0.3459
   24SAPC   H7S 3165  -0.751   1.351  10.262 -0.0085 -1.3802  0.6711
   24SAPC   C28 3166  -0.847   1.270  10.095  0.0208  0.4669 -0.4872
   24SAPC   H8R 3167  -0.936   1.263  10.158  0.4008 -1.0388 -0.0620
   24SAPC   C29 3168  -0.860   1.259   9.962  0.9151  0.2781  0.0452
   24SAPC   H9R 3169  -0.956   1.228   9.917  1.2142  1.4781 -1.4949
   24SAPC  C210 3170  -0.749   1.285   9.862 -0.8032  0.3782  0.1197
   24SAPC  H10R 3171  -0.647   1.253   9.894 -1.3705 -0.5980  1.0501
   24SAPC  H10S 3172  -0.728   1.393   9.846  2.7829 -0.1958  0.1427
   24SAPC  C211 3173  -0.765   1.209   9.732 -0.0183 -0.8472  0.1405
   24SAPC  H11R 3174  -0.836   1.125   9.737 -2.9653  1.5007  3.1179
   24SAPC  C212 3175  -0.717   1.241   9.609  0.0812  0.6420  0.0939
   24SAPC  H12R 3176  -0.739   1.166   9.532  0.1449 -3.2714  3.5280
   24SAPC  C213 3177  -0.633   1.359   9.571  0.8112  0.3226 -0.0310
   24SAPC  H13R 3178  -0.582   1.412   9.654  2.3846 -0.3129 -0.5396
   24SAPC  H13S 3179  -0.683   1.428   9.500  2.0395 -1.1975 -2.5454
   24SAPC  C214 3180  -0.523   1.291   9.496  0.2307 -0.0838  0.8490
   24SAPC  H14R 3181  -0.442   1.262   9.564  0.1930 -1.8886  0.1793
   24SAPC  C215 3182  -0.516   1.276   9.351 -0.3764 -0.9245 -0.1932
   24SAPC  H15R 3183  -0.435   1.219   9.304 -0.2457  0.3420 -1.6213
   24SAPC  C216 3184  -0.621   1.315   9.248 -0.3778  0.1016 -0.0474
   24SAPC  H16R 3185  -0.707   1.373   9.288  1.0006  1.3525  1.2159
   24SAPC  H16S 3186  -0.671   1.232   9.194 -1.0290  1.5211 -1.7132
   24SAPC  C217 3187  -0.550   1.378   9.125  0.0233 -0.1145 -0.0042
   24SAPC  H17R 3188  -0.482   1.305   9.077 -0.0712 -1.3433  1.6601
   24SAPC  H17S 3189  -0.499   1.469   9.164 -2.1546  1.6393 -0.9617
   24SAPC  C218 3190  -0.663   1.421   9.036 -0.1940  0.1836 -0.3095
   24SAPC  H18R 3191  -0.718   1.502   9.088  0.6189  1.4831 -1.3985
   24SAPC  H18S 3192  -0.742   1.349   9.008 -1.7245  2.3936 -2.0788
   24SAPC  C219 3193  -0.614   1.479   8.897 -0.2313 -0.1868  0.1299
   24SAPC  H19R 3194  -0.704   1.511   8.842 -0.6309 -0.6156  0.5229
   24SAPC  H19S 3195  -0.567   1.391   8.848 -0.3768  0.8306 -1.9430
   24SAPC  C220 3196  -0.501   1.585   8.905  0.0981 -0.2793 -0.6907
   24SAPC  H20R 3197  -0.473   1.627   8.806  1.3148 -0.1869 -0.3294
   24SAPC  H20S 3198  -0.406   1.542   8.943 -0.9572 -2.5472 -0.5048
   24SAPC  H20T 3199  -0.525   1.673   8.968  1.1477  0.0972 -0.7979
   24SAPC   C33 3200   0.207   1.249  10.098 -0.0842 -0.0980  0.4652
   24SAPC   H3X 3201   0.160   1.148  10.090  0.3022 -0.4421  2.2082
   24SAPC   H3Y 3202   0.318   1.244  10.097 -0.1332 -1.8741 -0.6528
   24SAPC   C34 3203   0.178   1.318   9.960  0.0654 -0.1359  0.6572
   24SAPC   H4X 3204   0.189   1.428   9.963 -0.2824  0.0056 -1.6145
   24SAPC   H4Y 3205   0.073   1.300   9.928  0.8521 -0.7934 -1.7686
   24SAPC   C35 3206   0.278   1.268   9.848  0.4507  0.3792  0.2283
   24SAPC   H5X 3207   0.248   1.163   9.829 -0.8916  0.7330  0.2664
   24SAPC   H5Y 3208   0.378   1.279   9.894 -0.1990  3.1901  1.2139
   24SAPC   C36 3209   0.282   1.351   9.722  0.0144 -0.1443 -0.1885
   24SAPC   H6X 3210   0.319   1.454   9.741  0.7149 -0.1183 -1.5450
   24SAPC   H6Y 3211   0.179   1.372   9.686 -0.0593  0.2845  0.2629
   24SAPC   C37 3212   0.370   1.293   9.614  0.3084 -0.0206  1.0105
   24SAPC   H7X 3213   0.361   1.182   9.620 -1.7847 -0.0197 -0.7190
   24SAPC   H7Y 3214   0.473   1.317   9.648 -0.5868  1.1694  3.0802
   24SAPC   C38 3215   0.330   1.352   9.478  0.6112  0.1340 -0.2996
   24SAPC   H8X 3216   0.336   1.463   9.482  0.5188  0.1308 -0.0661
   24SAPC   H8Y 3217   0.227   1.324   9.447  1.5157  0.9252 -4.7076
   24SAPC   C39 3218   0.432   1.313   9.367 -0.0877 -0.2879 -0.0677
   24SAPC   H9X 3219   0.447   1.203   9.376  2.0199 -0.0484 -0.2817
   24SAPC   H9Y 3220   0.537   1.350   9.370  0.7698 -2.5600  0.4507
   24SAPC  C310 3221   0.383   1.334   9.223  0.5911 -0.6465 -0.5750
   24SAPC  H10X 3222   0.388   1.444   9.204 -0.4799 -0.5500 -0.3443
   24SAPC  H10Y 3223   0.279   1.298   9.206 -0.5582  1.1636  2.0488
   24SAPC  C311 3224   0.485   1.264   9.133  0.1337  0.0240 -0.7242
   24SAPC  H11X 3225   0.478   1.153   9.141 -0.0180 -0.0981 -2.3216
   24SAPC  H11Y 3226   0.587   1.297   9.164 -0.7525  0.9687  1.4068
   24SAPC  C312 3227   0.463   1.289   8.983  0.2828  0.2375 -1.0044
   24SAPC  H12X 3228   0.556   1.266   8.925  0.5054  1.5475 -1.2001
   24SAPC  H12Y 3229   0.461   1.400   8.981  0.1379  0.3058  1.1969
   24SAPC  C313 3230   0.358   1.204   8.907  0.2904 -0.2683  0.7876
   24SAPC  H13X 3231   0.264   1.239   8.954 -0.2642  0.0660 -0.5300
   24SAPC  H13Y 3232   0.368   1.098   8.939 -1.0935 -1.0339 -1.1523
   24SAPC  C314 3233   0.369   1.216   8.755 -0.3115  0.1774  0.4117
   24SAPC  H14X 3234   0.466   1.172   8.723  1.4221  1.6009  3.3049
   24SAPC  H14Y 3235   0.371   1.324   8.729 -1.1646 -0.3497 -2.0743
   24SAPC  C315 3236   0.259   1.143   8.672 -0.0405 -0.1464 -0.2399
   24SAPC  H15X 3237   0.153   1.166   8.698 -0.3165  2.4687 -3.0203
   24SAPC  H15Y 3238   0.281   1.035   8.670 -0.1851 -0.2587 -4.2868
   24SAPC  C316 3239   0.270   1.174   8.526 -0.3386  0.4678 -0.1515
   24SAPC  H16X 3240   0.368   1.134   8.493 -0.0153  0.1386  1.1543
   24SAPC  H16Y 3241   0.262   1.284   8.511  0.1237  0.5521  0.2027
   24SAPC  C317 3242   0.158   1.122   8.430 -0.0092 -0.2619 -0.3792
   24SAPC  H17X 3243   0.062   1.162   8.470  0.1763  2.1679 -2.1442
   24SAPC  H17Y 3244   0.160   1.013   8.413 -0.3999 -0.0700 -1.7700
   24SAPC  C318 3245   0.166   1.188   8.294 -0.2088 -0.1322  0.1743
   24SAPC  H18X 3246   0.259   1.166   8.239  0.8968  1.4815  1.3135
   24SAPC  H18Y 3247   0.153   1.296   8.314 -0.3646 -0.1423  0.1308
   24SAPC  H18Z 3248   0.082   1.145   8.236  0.3278 -1.0711  0.0624
   25SAPC     N 3249   2.680   6.678   5.954  0.3528 -0.1941  0.6400
   25SAPC   C12 3250   2.577   6.619   5.854  0.3219  0.0550  0.3720
   25SAPC  H12A 3251   2.625   6.529   5.817  0.6695 -0.9611  3.0797
   25SAPC  H12B 3252   2.555   6.688   5.774  1.4067 -0.2188 -0.1788
   25SAPC   C13 3253   2.627   6.810   5.999  0.6838  0.0727  0.4873
   25SAPC  H13A 3254   2.541   6.798   6.064 -0.5506 -2.3675 -1.4366
   25SAPC  H13B 3255   2.701   6.867   6.054 -1.3884  1.5838  1.8649
   25SAPC  H13C 3256   2.595   6.869   5.915 -3.3354 -0.3427  1.5208
   25SAPC   C14 3257   2.700   6.580   6.068 -0.2643 -0.4380 -0.6570
   25SAPC  H14A 3258   2.765   6.502   6.029  1.3510  0.5203  0.0175
   25SAPC  H14B 3259   2.752   6.638   6.143 -2.0853  4.1714 -2.6575
   25SAPC  H14C 3260   2.608   6.544   6.112  0.1505  0.8961  1.4709
   25SAPC   C15 3261   2.805   6.691   5.879  0.0539 -0.4588  0.2217
   25SAPC  H15A 3262   2.891   6.703   5.942  0.1683  0.2195 -0.0547
   25SAPC  H15B 3263   2.833   6.601   5.827  0.2284 -0.4001  0.2139
   25SAPC  H15C 3264   2.805   6.774   5.810  1.0002 -1.8746 -1.5725
   25SAPC   C11 3265   2.442   6.574   5.912  0.0031 -0.1357  0.0861
   25SAPC  H11A 3266   2.398   6.515   5.829  1.6549 -0.9167 -0.2863
   25SAPC  H11B 3267   2.374   6.657   5.941 -1.8897 -0.4467 -3.0495
   25SAPC     P 3268   2.331   6.382   6.062 -0.1403 -0.3868 -0.3618
   25SAPC   O13 3269   2.255   6.329   5.943 -0.0279 -0.2526  0.1809
   25SAPC   O14 3270   2.381   6.277   6.156  0.1270 -0.4692 -1.0093
   25SAPC   O12 3271   2.456   6.479   6.012 -0.1857 -0.4154 -0.1124
   25SAPC   O11 3272   2.242   6.483   6.145 -0.1126 -0.5264  0.4200
   25SAPC    C1 3273   2.300   6.583   6.227  0.3833  0.1735 -0.2915
   25SAPC    HA 3274   2.410   6.570   6.231  0.6450  0.8971 -3.2825
   25SAPC    HB 3275   2.295   6.682   6.177  0.7716  0.5875  0.4740
   25SAPC    C2 3276   2.240   6.587   6.369 -0.0126 -0.2676 -0.4455
   25SAPC    HS 3277   2.295   6.666   6.424  1.6310 -0.8294 -1.2019
   25SAPC   O21 3278   2.247   6.460   6.435 -0.2809  0.0718  1.1060
   25SAPC   C21 3279   2.370   6.421   6.469  0.7531 -0.5198  0.0143
   25SAPC   O22 3280   2.469   6.485   6.449  0.0843 -0.4052 -0.2863
   25SAPC   C22 3281   2.361   6.285   6.534  0.5859 -0.1762  0.4773
   25SAPC   H2R 3282   2.370   6.207   6.455  1.0556  1.4315 -1.1203
   25SAPC   H2S 3283   2.448   6.282   6.604  1.0280  1.0492  0.0099
   25SAPC    C3 3284   2.089   6.626   6.349 -0.5014  0.8174 -0.2160
   25SAPC    HX 3285   2.048   6.540   6.291 -2.0003 -1.0755  3.2946
   25SAPC    HY 3286   2.086   6.721   6.292  0.1597 -0.1573 -1.9345
   25SAPC   O31 3287   2.023   6.646   6.473 -0.3960  0.5205  0.7441
   25SAPC   C31 3288   1.930   6.567   6.512  0.7469 -0.2980  0.4681
   25SAPC   O32 3289   1.875   6.480   6.443 -0.2010 -0.2941 -0.8773
   25SAPC   C32 3290   1.906   6.585   6.660 -0.0703 -0.2156 -0.0481
   25SAPC   H2X 3291   1.938   6.689   6.682  3.6407 -0.5461 -2.8193
   25SAPC   H2Y 3292   1.970   6.522   6.726  0.0042 -1.3866 -1.1892
   25SAPC   C23 3293   2.233   6.264   6.615  0.1669 -0.7458 -0.4878
   25SAPC   H3R 3294   2.206   6.156   6.619 -2.7265 -0.1031 -0.6859
   25SAPC   H3S 3295   2.146   6.309   6.564  0.8681  2.4034  0.8800
   25SAPC   C24 3296   2.235   6.320   6.762  0.3354 -0.2372 -0.3850
   25SAPC   H4R 3297   2.314   6.265   6.818  1.2098  1.2220 -0.1346
   25SAPC   H4S 3298   2.144   6.287   6.816 -1.2651  5.4112  0.9651
   25SAPC   C25 3299   2.244   6.469   6.768 -0.4283 -0.1144 -0.2521
   25SAPC   H5R 3300   2.179   6.515   6.692 -2.1367 -1.0761  0.5707
   25SAPC   C26 3301   2.313   6.545   6.854  0.3726  0.0608 -0.7167
   25SAPC   H6R 3302   2.320   6.654   6.837  0.0974  0.2541  0.3130
   25SAPC   C27 3303   2.397   6.494   6.968 -0.0704  0.2236 -0.0995
   25SAPC   H7R 3304   2.415   6.384   6.966  0.7979  0.3482  0.3832
   25SAPC   H7S 3305   2.340   6.515   7.060  1.1970 -0.1763  0.8026
   25SAPC   C28 3306   2.526   6.576   6.976 -0.2951  0.0153 -0.0329
   25SAPC   H8R 3307   2.537   6.644   7.062  2.2896 -0.5613  0.1627
   25SAPC   C29 3308   2.637   6.578   6.897 -0.0071  0.5802  0.5922
   25SAPC   H9R 3309   2.726   6.630   6.936  0.0079  0.3007  0.9387
   25SAPC  C210 3310   2.670   6.492   6.775  0.9113 -0.3721 -0.4802
   25SAPC  H10R 3311   2.663   6.558   6.686 -1.9601 -0.9095 -0.7553
   25SAPC  H10S 3312   2.589   6.415   6.776  0.4780  0.0854  0.4047
   25SAPC  C211 3313   2.802   6.423   6.796 -0.2214  0.4287 -0.3167
   25SAPC  H11R 3314   2.891   6.487   6.803  0.4345 -0.6207  2.6847
   25SAPC  C212 3315   2.820   6.281   6.809 -0.1495 -0.2451  0.0557
   25SAPC  H12R 3316   2.925   6.246   6.810  0.6422  1.7579 -2.2586
   25SAPC  C213 3317   2.709   6.178   6.799 -0.2328 -0.7858 -0.0440
   25SAPC  H13R 3318   2.613   6.215   6.841  1.4207  2.5382  1.2095
   25SAPC  H13S 3319   2.757   6.092   6.852 -0.5979 -1.1669 -0.3296
   25SAPC  C214 3320   2.677   6.135   6.658 -0.8274  0.8562  0.1078
   25SAPC  H14R 3321   2.709   6.197   6.573  2.8124 -1.0312 -0.0720
   25SAPC  C215 3322   2.606   6.032   6.622 -0.1678 -0.1959 -0.1464
   25SAPC  H15R 3323   2.598   6.004   6.516  2.0836  0.2635 -0.4983
   25SAPC  C216 3324   2.542   5.936   6.722 -0.3549  0.2841  0.1590
   25SAPC  H16R 3325   2.586   5.939   6.824 -1.3123 -0.0534  0.5942
   25SAPC  H16S 3326   2.557   5.831   6.688 -0.9722  0.2093  0.1014
   25SAPC  C217 3327   2.393   5.954   6.735  0.0476  0.3440 -0.0795
   25SAPC  H17R 3328   2.347   5.941   6.635 -0.4679  2.6202 -0.1926
   25SAPC  H17S 3329   2.380   6.055   6.780  1.8142  0.2331  0.7593
   25SAPC  C218 3330   2.326   5.852   6.828 -0.7304 -0.1484  0.3474
   25SAPC  H18R 3331   2.359   5.880   6.930  0.0149 -1.9966  0.6565
   25SAPC  H18S 3332   2.372   5.752   6.814 -1.1004 -0.2267 -0.3886
   25SAPC  C219 3333   2.179   5.831   6.812 -0.2671  0.5635 -0.2296
   25SAPC  H19R 3334   2.164   5.774   6.718 -1.7538 -0.0274  0.3386
   25SAPC  H19S 3335   2.107   5.915   6.798  0.8740  1.5793 -0.1581
   25SAPC  C220 3336   2.134   5.761   6.935 -0.6860  0.1192 -0.3994
   25SAPC  H20R 3337   2.139   5.822   7.028  1.2550  1.9312 -1.6008
   25SAPC  H20S 3338   2.200   5.675   6.959  3.1639  3.0138  0.4806
   25SAPC  H20T 3339   2.031   5.724   6.917 -0.0726 -0.7304 -2.3457
   25SAPC   C33 3340   1.762   6.571   6.708  0.7382  0.5035  0.5750
   25SAPC   H3X 3341   1.728   6.477   6.660  1.3989  0.7901 -0.4674
   25SAPC   H3Y 3342   1.705   6.657   6.667 -0.5457 -0.0167  1.1918
   25SAPC   C34 3343   1.765   6.590   6.864 -0.2022  0.2647  0.7160
   25SAPC   H4X 3344   1.671   6.634   6.903  0.4451  0.9007  1.5894
   25SAPC   H4Y 3345   1.849   6.661   6.879  0.4283  0.2245 -2.0417
   25SAPC   C35 3346   1.789   6.458   6.938  0.8207  0.8161  0.6801
   25SAPC   H5X 3347   1.884   6.411   6.902  0.7830 -0.7448  2.4383
   25SAPC   H5Y 3348   1.703   6.393   6.912  0.8875  1.0452 -0.1506
   25SAPC   C36 3349   1.777   6.470   7.094  0.5054  0.1297 -0.2787
   25SAPC   H6X 3350   1.763   6.370   7.139 -1.2316  0.8123  0.7879
   25SAPC   H6Y 3351   1.682   6.525   7.111  0.6735  0.1590  0.6025
   25SAPC   C37 3352   1.905   6.512   7.157 -0.8672 -0.3112  0.5784
   25SAPC   H7X 3353   1.933   6.611   7.117  0.1244 -1.2097 -1.0052
   25SAPC   H7Y 3354   1.978   6.442   7.112 -0.4819  1.9268 -2.5827
   25SAPC   C38 3355   1.918   6.511   7.312 -0.2854 -0.4058 -0.0447
   25SAPC   H8X 3356   1.876   6.416   7.352 -0.1974  0.0346  1.1565
   25SAPC   H8Y 3357   1.854   6.592   7.354  0.2118  0.1944 -0.4330
   25SAPC   C39 3358   2.067   6.532   7.369 -0.9782 -0.0625  0.4388
   25SAPC   H9X 3359   2.082   6.630   7.319  3.3220 -0.7716  0.0147
   25SAPC   H9Y 3360   2.131   6.458   7.318  1.3734  1.2431  1.3499
   25SAPC  C310 3361   2.076   6.546   7.521  0.1436 -0.0036  0.1934
   25SAPC  H10X 3362   2.002   6.472   7.560  1.5620 -1.4763  0.2117
   25SAPC  H10Y 3363   2.037   6.644   7.554  1.8996  1.0852 -0.8151
   25SAPC  C311 3364   2.213   6.509   7.588  0.0226 -0.6873  0.2902
   25SAPC  H11X 3365   2.277   6.598   7.570 -2.0761  0.8745  0.2228
   25SAPC  H11Y 3366   2.263   6.418   7.548 -0.8001 -1.2780  0.5765
   25SAPC  C312 3367   2.200   6.503   7.739 -0.2634 -0.0578 -1.0966
   25SAPC  H12X 3368   2.107   6.447   7.765 -0.5488 -0.1921 -2.3084
   25SAPC  H12Y 3369   2.182   6.607   7.772 -2.5909 -0.9129  0.6488
   25SAPC  C313 3370   2.320   6.444   7.798  0.0235  0.0591 -0.6363
   25SAPC  H13X 3371   2.404   6.505   7.758  0.4385  1.0315  1.5896
   25SAPC  H13Y 3372   2.339   6.343   7.755 -3.3409 -1.0976  0.2741
   25SAPC  C314 3373   2.309   6.440   7.954  0.0191 -0.2996  0.4201
   25SAPC  H14X 3374   2.221   6.376   7.976  0.4261 -0.6367  1.0764
   25SAPC  H14Y 3375   2.287   6.538   8.001  0.7415  0.4508 -0.7355
   25SAPC  C315 3376   2.432   6.376   8.024 -0.5002 -0.5107 -0.6758
   25SAPC  H15X 3377   2.460   6.279   7.977  0.3165 -0.9200  0.5921
   25SAPC  H15Y 3378   2.399   6.360   8.129 -1.8021  1.1809 -0.7978
   25SAPC  C316 3379   2.558   6.475   8.032 -0.8509  0.1208  1.4960
   25SAPC  H16X 3380   2.543   6.585   8.034  1.5348  0.5455 -0.0225
   25SAPC  H16Y 3381   2.608   6.461   7.934 -1.3636  2.5925  0.8070
   25SAPC  C317 3382   2.642   6.441   8.156 -0.0121 -0.0906 -0.8589
   25SAPC  H17X 3383   2.687   6.343   8.131 -2.1643 -1.4204  0.2101
   25SAPC  H17Y 3384   2.572   6.427   8.242  2.3033  1.1670  1.3864
   25SAPC  C318 3385   2.756   6.536   8.185  0.0057 -0.1409  0.3128
   25SAPC  H18X 3386   2.800   6.492   8.276  0.5984  0.5633  0.3726
   25SAPC  H18Y 3387   2.725   6.638   8.214 -1.0295 -1.0650  2.6936
   25SAPC  H18Z 3388   2.836   6.531   8.108  0.2583 -3.0423  0.6672
   26SAPC     N 3389   2.632   1.881   6.121  0.6511  0.3902 -0.3850
   26SAPC   C12 3390   2.505   1.843   6.046 -0.4170  0.2868 -0.7690
   26SAPC  H12A 3391   2.477   1.743   6.074 -0.8062  0.4355 -0.6129
   26SAPC  H12B 3392   2.530   1.842   5.941  0.2339  0.1508 -0.6179
   26SAPC   C13 3393   2.616   1.893   6.270 -1.2578  0.4380  0.2669
   26SAPC  H13A 3394   2.529   1.954   6.290 -3.2236 -1.8882 -0.6145
   26SAPC  H13B 3395   2.617   1.799   6.324  1.1246  0.2247 -0.0568
   26SAPC  H13C 3396   2.702   1.941   6.315 -1.5688  2.2809 -1.0104
   26SAPC   C14 3397   2.739   1.773   6.114 -0.2614  0.1934 -0.1756
   26SAPC  H14A 3398   2.822   1.796   6.179 -1.1902 -1.6083  1.7542
   26SAPC  H14B 3399   2.701   1.674   6.133  0.2758 -0.1670 -0.9303
   26SAPC  H14C 3400   2.787   1.769   6.017  1.3343  0.4612  0.5632
   26SAPC   C15 3401   2.680   2.014   6.078 -0.0807  0.7752 -0.1066
   26SAPC  H15A 3402   2.710   2.017   5.974 -1.6377  1.1052 -0.5602
   26SAPC  H15B 3403   2.605   2.088   6.097  0.2075  1.0825 -0.1558
   26SAPC  H15C 3404   2.763   2.041   6.141 -1.3323 -1.4585  2.7165
   26SAPC   C11 3405   2.379   1.923   6.070 -0.6296 -0.1035  0.6134
   26SAPC  H11A 3406   2.299   1.888   6.001 -1.4127 -0.3994  1.6483
   26SAPC  H11B 3407   2.390   2.032   6.056 -0.6138 -0.1625  0.1579
   26SAPC     P 3408   2.224   1.793   6.239 -0.0772  0.0291  0.4458
   26SAPC   O13 3409   2.104   1.855   6.167 -0.3209 -0.5795  0.4204
   26SAPC   O14 3410   2.267   1.655   6.199 -0.2153  0.1402  0.7285
   26SAPC   O12 3411   2.344   1.896   6.209  0.7658  0.4516  0.4970
   26SAPC   O11 3412   2.199   1.804   6.392  0.3636  0.1035  0.4122
   26SAPC    C1 3413   2.188   1.922   6.466 -0.3696 -0.2125 -0.2674
   26SAPC    HA 3414   2.180   1.887   6.571 -1.7040 -1.7919 -0.8398
   26SAPC    HB 3415   2.271   1.995   6.467 -1.8813  1.6456  2.5457
   26SAPC    C2 3416   2.047   1.994   6.451 -0.0446  0.2408 -0.4904
   26SAPC    HS 3417   2.026   2.031   6.348 -2.2290 -4.5728 -2.0480
   26SAPC   O21 3418   2.040   2.092   6.551  0.8825  0.2945  0.8466
   26SAPC   C21 3419   2.092   2.216   6.523  0.1146 -0.5212 -0.3845
   26SAPC   O22 3420   2.153   2.249   6.419 -0.2568 -0.4099 -0.2203
   26SAPC   C22 3421   2.034   2.307   6.629  0.1794  0.3615  1.0777
   26SAPC   H2R 3422   1.971   2.379   6.573  0.2353  1.4548  2.3586
   26SAPC   H2S 3423   1.957   2.257   6.693 -0.3011 -0.4675 -0.1235
   26SAPC    C3 3424   1.939   1.881   6.475  0.3350  0.3534  0.0641
   26SAPC    HX 3425   1.916   1.813   6.390 -3.5242  0.3067  0.9329
   26SAPC    HY 3426   1.847   1.942   6.485  0.8971  1.1370  0.5746
   26SAPC   O31 3427   1.962   1.818   6.604 -0.6648  0.4270  0.6528
   26SAPC   C31 3428   1.995   1.685   6.589  0.1900  0.4904 -0.3473
   26SAPC   O32 3429   1.970   1.615   6.490  0.2989 -0.0504  0.1627
   26SAPC   C32 3430   2.051   1.640   6.721 -0.3029  0.8225  0.5264
   26SAPC   H2X 3431   2.010   1.698   6.806 -0.9187 -0.4276  1.1049
   26SAPC   H2Y 3432   2.158   1.670   6.717 -0.6764  2.2238  0.1711
   26SAPC   C23 3433   2.132   2.366   6.732  0.4349  0.9165  0.0175
   26SAPC   H3R 3434   2.196   2.440   6.679 -1.5228  3.1358  0.6522
   26SAPC   H3S 3435   2.194   2.279   6.765  0.1749  0.3983 -0.8101
   26SAPC   C24 3436   2.077   2.441   6.854  0.1648 -0.7599 -0.4825
   26SAPC   H4R 3437   2.042   2.539   6.815 -0.8993 -0.6632  0.6483
   26SAPC   H4S 3438   2.161   2.466   6.922 -0.8603  0.9623  0.2198
   26SAPC   C25 3439   1.970   2.371   6.933 -0.5551  0.1471  0.3911
   26SAPC   H5R 3440   1.867   2.370   6.894 -0.1825 -2.3040 -0.7023
   26SAPC   C26 3441   1.992   2.312   7.053  0.3570  0.0614  0.3508
   26SAPC   H6R 3442   1.905   2.263   7.098  0.2465 -1.2655 -1.2158
   26SAPC   C27 3443   2.122   2.304   7.129 -0.4728 -0.1059 -0.3131
   26SAPC   H7R 3444   2.125   2.373   7.216 -1.4204 -1.2273  0.6419
   26SAPC   H7S 3445   2.217   2.332   7.079  0.1445 -0.3470  0.6877
   26SAPC   C28 3446   2.139   2.160   7.172  0.2175 -0.4013 -0.1316
   26SAPC   H8R 3447   2.169   2.085   7.098 -1.7132 -1.0499 -0.3188
   26SAPC   C29 3448   2.121   2.120   7.301 -0.1030 -0.4443 -1.0011
   26SAPC   H9R 3449   2.161   2.023   7.333 -0.8949 -0.8326 -1.1630
   26SAPC  C210 3450   2.063   2.207   7.410 -0.2811 -0.3545  0.8474
   26SAPC  H10R 3451   2.000   2.139   7.472 -3.1263 -1.3209 -2.7339
   26SAPC  H10S 3452   1.995   2.289   7.379 -1.3959 -1.2715  0.8021
   26SAPC  C211 3453   2.165   2.273   7.500  0.2159 -0.3634 -0.2251
   26SAPC  H11R 3454   2.196   2.369   7.457  0.1402 -1.1889 -2.2494
   26SAPC  C212 3455   2.203   2.230   7.620 -0.1733 -1.0061  0.4079
   26SAPC  H12R 3456   2.278   2.290   7.672 -0.0849  0.8224 -1.6513
   26SAPC  C213 3457   2.154   2.102   7.683  0.7170  0.1060 -0.2312
   26SAPC  H13R 3458   2.099   2.042   7.608  1.3541 -2.7202  1.4107
   26SAPC  H13S 3459   2.073   2.124   7.756 -1.3336  1.5631 -2.7781
   26SAPC  C214 3460   2.259   2.006   7.733 -0.4489  0.5961 -0.2481
   26SAPC  H14R 3461   2.285   1.934   7.653 -0.1768 -0.0977  0.4546
   26SAPC  C215 3462   2.315   1.996   7.855 -0.6444 -0.2491 -0.1594
   26SAPC  H15R 3463   2.386   1.913   7.868 -2.4532 -1.6603  1.2278
   26SAPC  C216 3464   2.283   2.090   7.966 -0.1100 -0.1525 -0.3450
   26SAPC  H16R 3465   2.207   2.165   7.935 -1.7495 -1.5091  0.2477
   26SAPC  H16S 3466   2.368   2.155   7.995 -0.1844  0.2642 -1.0335
   26SAPC  C217 3467   2.209   2.029   8.086 -0.3132 -0.2190  0.1599
   26SAPC  H17R 3468   2.126   1.963   8.053 -4.1936  3.9773  0.5937
   26SAPC  H17S 3469   2.173   2.116   8.145  0.8138  0.1238  0.3659
   26SAPC  C218 3470   2.312   1.956   8.177  0.4677  0.0966 -0.2955
   26SAPC  H18R 3471   2.403   2.020   8.181  1.0392 -0.7600  1.3622
   26SAPC  H18S 3472   2.333   1.858   8.129  0.2020 -0.3116  0.4184
   26SAPC  C219 3473   2.274   1.921   8.323 -0.4625  0.2582  0.6707
   26SAPC  H19R 3474   2.346   1.847   8.363  0.0355  0.8130  0.8020
   26SAPC  H19S 3475   2.179   1.864   8.310  1.2408 -2.5742 -0.4428
   26SAPC  C220 3476   2.256   2.045   8.415  0.7832  0.4546 -0.3725
   26SAPC  H20R 3477   2.163   2.095   8.381 -0.1128 -1.3989 -0.7314
   26SAPC  H20S 3478   2.335   2.123   8.429  0.3258  1.0110 -0.8475
   26SAPC  H20T 3479   2.222   2.011   8.515 -0.6588  0.0065 -1.0046
   26SAPC   C33 3480   2.023   1.489   6.742  0.7317 -0.2284  0.6647
   26SAPC   H3X 3481   2.044   1.429   6.651  0.2104  1.2668 -0.4892
   26SAPC   H3Y 3482   1.914   1.480   6.763  0.6469 -2.0468 -0.3161
   26SAPC   C34 3483   2.089   1.436   6.875  0.1003  0.0352  0.5839
   26SAPC   H4X 3484   2.033   1.346   6.906 -2.3716  1.5759  0.9080
   26SAPC   H4Y 3485   2.068   1.513   6.952  0.7652 -1.1725  2.0088
   26SAPC   C35 3486   2.242   1.419   6.860 -0.5743  0.4197 -0.0823
   26SAPC   H5X 3487   2.282   1.502   6.799  2.0244 -0.5226  0.2504
   26SAPC   H5Y 3488   2.250   1.330   6.794 -4.1855 -0.4029  0.3469
   26SAPC   C36 3489   2.312   1.384   6.988  1.0828 -0.1752  1.0171
   26SAPC   H6X 3490   2.254   1.308   7.046 -0.3342  1.4784  1.8461
   26SAPC   H6Y 3491   2.320   1.469   7.059  1.8910  1.4223 -0.9007
   26SAPC   C37 3492   2.456   1.340   6.977 -0.4805  0.1578  0.0727
   26SAPC   H7X 3493   2.520   1.430   6.961  1.0545 -0.9151 -0.0405
   26SAPC   H7Y 3494   2.467   1.271   6.891  0.3714  0.0285  0.2765
   26SAPC   C38 3495   2.511   1.276   7.110  0.4646  0.4371  0.6657
   26SAPC   H8X 3496   2.614   1.247   7.080  0.5232  2.7294 -1.8079
   26SAPC   H8Y 3497   2.455   1.182   7.129  1.4241 -0.0539  1.1492
   26SAPC   C39 3498   2.513   1.362   7.232 -0.7455 -0.5298 -0.0392
   26SAPC   H9X 3499   2.410   1.384   7.269  0.6179  2.1739  2.5567
   26SAPC   H9Y 3500   2.567   1.456   7.207 -1.1103 -0.8267 -2.1370
   26SAPC  C310 3501   2.586   1.297   7.348  0.0380 -0.2420 -0.1546
   26SAPC  H10X 3502   2.695   1.287   7.325  0.6695  1.1117  1.9232
   26SAPC  H10Y 3503   2.543   1.196   7.363 -0.0756 -0.0133  1.2009
   26SAPC  C311 3504   2.576   1.372   7.482 -0.3846 -0.4294  0.2979
   26SAPC  H11X 3505   2.476   1.370   7.530  0.7409  1.8260  3.0510
   26SAPC  H11Y 3506   2.602   1.476   7.453 -1.6872  0.0129  0.6607
   26SAPC  C312 3507   2.675   1.327   7.591 -0.1963  0.0383 -0.2025
   26SAPC  H12X 3508   2.779   1.333   7.554 -0.2244  0.9081 -0.1498
   26SAPC  H12Y 3509   2.660   1.220   7.616 -0.6356  0.5268  1.7984
   26SAPC  C313 3510   2.660   1.427   7.713  0.0539  0.6961  0.2764
   26SAPC  H13X 3511   2.552   1.416   7.737 -0.3080 -0.5818 -1.6377
   26SAPC  H13Y 3512   2.674   1.532   7.679 -0.3148  0.9096  0.7717
   26SAPC  C314 3513   2.738   1.382   7.835  0.0221  0.7641  0.1233
   26SAPC  H14X 3514   2.840   1.350   7.807  0.4784  1.7476  0.6093
   26SAPC  H14Y 3515   2.682   1.290   7.863  0.8034  0.5459  1.0299
   26SAPC  C315 3516   2.726   1.477   7.951  0.3026 -0.0954  0.2198
   26SAPC  H15X 3517   2.626   1.519   7.974  0.3903 -1.0552  2.6713
   26SAPC  H15Y 3518   2.797   1.553   7.911  1.2605 -0.9330  0.2902
   26SAPC  C316 3519   2.785   1.444   8.088 -0.4620  0.2130  0.3128
   26SAPC  H16X 3520   2.801   1.539   8.143  0.2241  0.6471 -0.5933
   26SAPC  H16Y 3521   2.884   1.397   8.071 -0.2690  0.9582 -0.7478
   26SAPC  C317 3522   2.693   1.344   8.148 -0.0229  0.0930 -0.3626
   26SAPC  H17X 3523   2.678   1.261   8.076 -1.0457 -0.4454  0.4450
   26SAPC  H17Y 3524   2.594   1.392   8.165 -1.1885 -2.8391  2.0811
   26SAPC  C318 3525   2.745   1.292   8.288 -0.0806 -0.5253  0.1231
   26SAPC  H18X 3526   2.781   1.374   8.353  2.2157 -0.3045 -1.3179
   26SAPC  H18Y 3527   2.830   1.221   8.284  0.8776  0.6179 -0.3181
   26SAPC  H18Z 3528   2.657   1.246   8.338 -1.6526  1.8473 -0.3320
   27SAPC     N 3529   5.692   0.141   6.240  0.3626 -0.0179  0.6872
   27SAPC   C12 3530   5.742   0.184   6.385  0.5230 -0.1342 -0.4328
   27SAPC  H12A 3531   5.747   0.292   6.379 -2.8705  0.1198 -0.4639
   27SAPC  H12B 3532   5.836   0.134   6.400  0.6926 -0.7131 -2.9799
   27SAPC   C13 3533   5.562   0.207   6.203 -0.3215  0.4319 -0.6804
   27SAPC  H13A 3534   5.575   0.314   6.215 -0.7429  0.8293 -3.0921
   27SAPC  H13B 3535   5.538   0.193   6.098 -3.0958 -0.6400  0.0187
   27SAPC  H13C 3536   5.479   0.168   6.259 -0.6456  1.7381 -0.2129
   27SAPC   C14 3537   5.797   0.192   6.145  0.0061 -0.4183  0.0129
   27SAPC  H14A 3538   5.896   0.164   6.180 -0.0752  0.5473  1.0913
   27SAPC  H14B 3539   5.778   0.152   6.047 -1.7132 -0.7220  0.4507
   27SAPC  H14C 3540   5.791   0.300   6.146  0.9797 -0.3324 -0.9164
   27SAPC   C15 3541   5.685  -0.008   6.220  0.1443 -0.0121 -0.1617
   27SAPC  H15A 3542   5.597  -0.045   6.270  1.3498  0.1503  2.2269
   27SAPC  H15B 3543   5.671  -0.037   6.117  1.4022 -1.1615 -0.0300
   27SAPC  H15C 3544   5.778  -0.052   6.253  1.5847  2.9331  0.0627
   27SAPC   C11 3545   5.638   0.155   6.501 -0.1033 -0.3145 -0.2404
   27SAPC  H11A 3546   5.697   0.152   6.595  0.5911  0.5437 -0.6318
   27SAPC  H11B 3547   5.595   0.053   6.488  1.4812 -1.0938  0.3622
   27SAPC     P 3548   5.531   0.375   6.577 -0.1106  0.3358  0.0608
   27SAPC   O13 3549   5.674   0.420   6.583 -0.3988  0.1683  1.0490
   27SAPC   O14 3550   5.440   0.471   6.511 -0.1671  0.0284 -0.9847
   27SAPC   O12 3551   5.526   0.241   6.502 -0.2442 -0.4564 -0.3912
   27SAPC   O11 3552   5.480   0.341   6.724  0.9556  0.0162 -0.5679
   27SAPC    C1 3553   5.348   0.292   6.731  0.0763  0.2934  0.2034
   27SAPC    HA 3554   5.305   0.265   6.632 -3.2296  1.2486  1.2527
   27SAPC    HB 3555   5.334   0.204   6.797 -0.4624  0.3645  0.1883
   27SAPC    C2 3556   5.245   0.391   6.790 -0.3157 -0.4349 -0.1477
   27SAPC    HS 3557   5.252   0.486   6.733  3.0822 -0.6982 -0.3904
   27SAPC   O21 3558   5.279   0.413   6.926  0.4554  0.4179 -0.5457
   27SAPC   C21 3559   5.355   0.517   6.955 -1.1179 -0.0203  0.6439
   27SAPC   O22 3560   5.405   0.593   6.876 -0.0284  0.2064  0.0619
   27SAPC   C22 3561   5.374   0.519   7.109  0.2679  0.8331 -0.0838
   27SAPC   H2R 3562   5.294   0.456   7.154 -1.3216  2.2001 -0.8914
   27SAPC   H2S 3563   5.472   0.473   7.132  0.0313  1.1658  1.7147
   27SAPC    C3 3564   5.097   0.334   6.781 -0.1462  0.6801 -0.0924
   27SAPC    HX 3565   5.042   0.366   6.690  1.1049  0.5450 -0.9258
   27SAPC    HY 3566   5.046   0.389   6.863 -1.9816 -3.7265  2.0390
   27SAPC   O31 3567   5.072   0.195   6.819 -0.2768  0.2284 -0.2357
   27SAPC   C31 3568   5.074   0.111   6.717 -0.4570 -0.3478 -0.5407
   27SAPC   O32 3569   5.090   0.145   6.599  0.3725  0.2513 -0.3283
   27SAPC   C32 3570   5.074  -0.029   6.774 -0.0443  0.2328  0.1178
   27SAPC   H2X 3571   5.172  -0.054   6.819 -0.4276  1.2430  1.5909
   27SAPC   H2Y 3572   5.068  -0.104   6.692  0.1883  0.0150  0.2995
   27SAPC   C23 3573   5.345   0.655   7.174  0.0931 -0.3657  0.5786
   27SAPC   H3R 3574   5.256   0.699   7.125  1.0505 -0.5716 -1.4213
   27SAPC   H3S 3575   5.427   0.729   7.169 -1.9113  2.1251  1.8848
   27SAPC   C24 3576   5.294   0.631   7.322 -0.1948 -0.1149  0.2341
   27SAPC   H4R 3577   5.370   0.585   7.389 -0.8279 -0.9428  0.3987
   27SAPC   H4S 3578   5.207   0.562   7.323 -0.8900  0.7559  1.0808
   27SAPC   C25 3579   5.235   0.761   7.386 -0.4730  0.7335 -0.0509
   27SAPC   H5R 3580   5.209   0.838   7.312 -1.7201 -1.7715 -2.3632
   27SAPC   C26 3581   5.223   0.785   7.516 -0.1003  0.8697 -0.7361
   27SAPC   H6R 3582   5.205   0.889   7.548  0.3599  0.5400  0.6490
   27SAPC   C27 3583   5.272   0.700   7.632 -0.1515  0.0425 -0.4033
   27SAPC   H7R 3584   5.336   0.763   7.697  0.0338 -1.5418  1.0259
   27SAPC   H7S 3585   5.336   0.612   7.607 -0.6832 -0.8091  1.0767
   27SAPC   C28 3586   5.157   0.625   7.694  0.9152 -0.4672  0.1611
   27SAPC   H8R 3587   5.102   0.551   7.632  0.7299 -1.5883  1.6145
   27SAPC   C29 3588   5.119   0.626   7.823 -0.1733 -0.0644 -0.0575
   27SAPC   H9R 3589   5.034   0.560   7.847  0.8098 -1.3616 -0.0685
   27SAPC  C210 3590   5.182   0.701   7.941 -0.0110 -0.4510  1.0351
   27SAPC  H10R 3591   5.238   0.784   7.894 -0.2075 -0.8168  0.1281
   27SAPC  H10S 3592   5.250   0.623   7.980  0.5179 -1.4915 -1.7203
   27SAPC  C211 3593   5.085   0.759   8.041  0.4760 -0.4563  0.3665
   27SAPC  H11R 3594   5.008   0.829   8.003  0.6831 -0.6032 -0.3370
   27SAPC  C212 3595   5.106   0.740   8.177  0.2142  0.0055  0.0951
   27SAPC  H12R 3596   5.048   0.781   8.261  0.6435  0.9460 -0.0504
   27SAPC  C213 3597   5.225   0.666   8.236  0.2284  0.9554 -0.1467
   27SAPC  H13R 3598   5.320   0.683   8.181  0.6036 -0.0840  0.1457
   27SAPC  H13S 3599   5.222   0.557   8.217  0.4382  0.7704  0.8143
   27SAPC  C214 3600   5.262   0.695   8.377  0.7501 -0.1848 -0.2184
   27SAPC  H14R 3601   5.271   0.802   8.399 -2.2377  0.0678  0.2462
   27SAPC  C215 3602   5.275   0.615   8.480 -0.4417  0.1635 -0.3449
   27SAPC  H15R 3603   5.322   0.660   8.569  0.0036 -1.1398  0.0986
   27SAPC  C216 3604   5.269   0.466   8.484  0.9462 -0.0119  0.0213
   27SAPC  H16R 3605   5.218   0.425   8.394 -1.9763  1.0936  1.0671
   27SAPC  H16S 3606   5.208   0.437   8.572  0.8445  1.3525  0.4297
   27SAPC  C217 3607   5.414   0.408   8.487  0.2539 -0.4748 -0.2592
   27SAPC  H17R 3608   5.477   0.480   8.543 -0.3421  2.1010 -2.6519
   27SAPC  H17S 3609   5.441   0.415   8.379  0.5661  1.1071 -0.1026
   27SAPC  C218 3610   5.423   0.262   8.529  0.5022  0.2774 -0.0551
   27SAPC  H18R 3611   5.350   0.204   8.469  1.7322 -1.3315 -0.0502
   27SAPC  H18S 3612   5.404   0.240   8.637 -1.3734  0.9067 -0.2193
   27SAPC  C219 3613   5.565   0.211   8.512 -0.5607  0.6308  0.2346
   27SAPC  H19R 3614   5.555   0.100   8.513 -0.6944  0.5784 -1.8174
   27SAPC  H19S 3615   5.632   0.238   8.596 -1.3676 -1.2543  1.5437
   27SAPC  C220 3616   5.629   0.252   8.381  0.5328 -1.0438 -0.2242
   27SAPC  H20R 3617   5.574   0.204   8.298  1.6015 -1.8163 -0.5088
   27SAPC  H20S 3618   5.733   0.212   8.371  1.4752  1.0892  0.4710
   27SAPC  H20T 3619   5.632   0.362   8.364 -0.4208 -0.8655  0.6491
   27SAPC   C33 3620   4.960  -0.060   6.877 -0.1061  0.0721 -0.2033
   27SAPC   H3X 3621   4.863  -0.040   6.826 -0.6180 -3.8393 -1.1338
   27SAPC   H3Y 3622   4.975   0.017   6.956  1.1207 -0.9684  0.6325
   27SAPC   C34 3623   4.959  -0.202   6.928  0.0284  0.5674 -0.0183
   27SAPC   H4X 3624   5.053  -0.229   6.981  0.0857 -0.4390 -0.6086
   27SAPC   H4Y 3625   4.968  -0.261   6.834  0.1972  0.7807 -0.1392
   27SAPC   C35 3626   4.820  -0.244   6.980 -0.1489 -0.1698  0.7541
   27SAPC   H5X 3627   4.755  -0.227   6.892 -0.9065 -1.5939  1.0076
   27SAPC   H5Y 3628   4.800  -0.177   7.066 -2.2350 -0.6362  0.6921
   27SAPC   C36 3629   4.810  -0.385   7.016  0.1988  0.9387 -0.5772
   27SAPC   H6X 3630   4.844  -0.454   6.936 -2.3374 -1.8936  0.5603
   27SAPC   H6Y 3631   4.702  -0.406   7.033  0.6091 -0.4460  0.4659
   27SAPC   C37 3632   4.882  -0.409   7.144 -0.1697 -0.0029  0.0318
   27SAPC   H7X 3633   4.873  -0.320   7.210  3.2665 -0.0173  0.6704
   27SAPC   H7Y 3634   4.992  -0.402   7.130 -0.1624  1.1661  0.5525
   27SAPC   C38 3635   4.854  -0.547   7.206  0.6198 -0.5904  0.5380
   27SAPC   H8X 3636   4.873  -0.618   7.122  1.4843 -0.5354  0.6800
   27SAPC   H8Y 3637   4.747  -0.555   7.233  0.6430 -1.6795  0.3434
   27SAPC   C39 3638   4.939  -0.582   7.326  0.6171  0.5506  1.0049
   27SAPC   H9X 3639   4.919  -0.516   7.414  1.2338 -0.3603  1.8532
   27SAPC   H9Y 3640   5.045  -0.563   7.299 -0.2279  2.0205 -1.5889
   27SAPC  C310 3641   4.907  -0.720   7.377 -0.3950  0.3718 -0.0317
   27SAPC  H10X 3642   4.954  -0.791   7.305  0.7963  1.2578 -0.1736
   27SAPC  H10Y 3643   4.802  -0.752   7.364  0.0083 -0.6423 -1.0133
   27SAPC  C311 3644   4.952  -0.744   7.525 -0.4120  0.4873 -0.4739
   27SAPC  H11X 3645   5.058  -0.716   7.544 -0.3624  0.1448 -0.2377
   27SAPC  H11Y 3646   4.941  -0.852   7.548 -0.7980 -0.0795 -3.0090
   27SAPC  C312 3647   4.873  -0.674   7.631  0.2348 -0.3167 -0.3525
   27SAPC  H12X 3648   4.770  -0.710   7.613  0.0122 -0.3179  0.8181
   27SAPC  H12Y 3649   4.885  -0.567   7.602  1.3140 -0.5977 -1.0306
   27SAPC  C313 3650   4.909  -0.712   7.776 -0.1854  0.2385 -0.2194
   27SAPC  H13X 3651   5.018  -0.699   7.791 -0.2632  1.3614 -0.5184
   27SAPC  H13Y 3652   4.879  -0.817   7.794 -1.5410  0.8028  0.9911
   27SAPC  C314 3653   4.842  -0.636   7.892  0.6521  0.5306 -0.7402
   27SAPC  H14X 3654   4.733  -0.652   7.876  0.7006 -0.2688 -0.3107
   27SAPC  H14Y 3655   4.856  -0.528   7.871 -0.3288  0.4690 -1.8111
   27SAPC  C315 3656   4.882  -0.692   8.033  0.6461  0.2604 -0.9888
   27SAPC  H15X 3657   4.990  -0.666   8.043  1.3802 -1.4153 -3.3764
   27SAPC  H15Y 3658   4.863  -0.797   8.064  0.1123  1.2722  2.4765
   27SAPC  C316 3659   4.818  -0.606   8.152 -0.0461  0.8062  0.6139
   27SAPC  H16X 3660   4.774  -0.676   8.225 -0.8922  0.8424  0.1517
   27SAPC  H16Y 3661   4.729  -0.545   8.125  0.4428  1.2498 -0.0358
   27SAPC  C317 3662   4.934  -0.535   8.228 -0.6497 -0.2956  0.2530
   27SAPC  H17X 3663   4.975  -0.461   8.156 -0.9875 -0.7923 -0.4663
   27SAPC  H17Y 3664   5.023  -0.586   8.270  0.7708  1.0223 -1.0142
   27SAPC  C318 3665   4.871  -0.472   8.349  0.2478  0.0303  0.3767
   27SAPC  H18X 3666   4.944  -0.403   8.397  0.3299  1.0626 -1.1504
   27SAPC  H18Y 3667   4.835  -0.546   8.423  2.6770 -0.3269  1.3049
   27SAPC  H18Z 3668   4.785  -0.412   8.312  1.1628  0.1497 -1.6840
   28SAPC     N 3669   5.975   4.086   6.183 -0.3320  0.0868  0.0600
   28SAPC   C12 3670   6.070   3.982   6.242 -0.1164 -0.0008 -0.3873
   28SAPC  H12A 3671   6.086   3.999   6.348  2.0626  0.1034 -0.6888
   28SAPC  H12B 3672   6.169   4.007   6.206 -0.0517  2.0632  1.0421
   28SAPC   C13 3673   5.851   4.067   6.259  1.1087 -0.2921  0.1677
   28SAPC  H13A 3674   5.815   3.965   6.260  1.3139 -0.3798 -0.5648
   28SAPC  H13B 3675   5.869   4.096   6.361 -0.1962 -0.3314  0.4228
   28SAPC  H13C 3676   5.773   4.133   6.224  0.0484 -1.2091  0.7342
   28SAPC   C14 3677   6.035   4.223   6.199  0.2152  0.5524 -0.1714
   28SAPC  H14A 3678   5.961   4.301   6.182  2.0293  2.3265 -0.2972
   28SAPC  H14B 3679   6.088   4.234   6.292 -0.6450  3.3312  0.1109
   28SAPC  H14C 3680   6.106   4.238   6.119 -2.5602  2.2708 -2.5362
   28SAPC   C15 3681   5.961   4.054   6.035 -0.4317 -0.7206  0.1494
   28SAPC  H15A 3682   5.920   4.138   5.980 -0.5287 -1.4158 -0.8665
   28SAPC  H15B 3683   6.063   4.044   6.000 -0.1189 -0.3601  0.9305
   28SAPC  H15C 3684   5.899   3.969   6.014 -2.1742  0.5196  0.0723
   28SAPC   C11 3685   6.041   3.831   6.213 -0.0939 -0.0931 -0.9538
   28SAPC  H11A 3686   6.124   3.773   6.259 -0.9043  0.3611  1.2389
   28SAPC  H11B 3687   6.049   3.812   6.104  1.4627 -0.0723 -0.8618
   28SAPC     P 3688   5.889   3.646   6.329  0.0335  0.0135  0.3020
   28SAPC   O13 3689   5.756   3.613   6.275  0.0169  0.0689 -0.2777
   28SAPC   O14 3690   6.000   3.548   6.300 -0.0411 -0.2324 -0.1443
   28SAPC   O12 3691   5.915   3.788   6.273  0.4681  0.0023  0.1866
   28SAPC   O11 3692   5.871   3.673   6.482  0.3511 -0.3808 -0.5769
   28SAPC    C1 3693   5.813   3.800   6.522  0.5620  0.0557  0.8929
   28SAPC    HA 3694   5.883   3.887   6.517  0.0377  0.5365  1.6627
   28SAPC    HB 3695   5.728   3.839   6.462  2.6398  2.6067 -0.6017
   28SAPC    C2 3696   5.782   3.798   6.672 -0.3206  1.0940  0.8057
   28SAPC    HS 3697   5.693   3.733   6.681 -0.1640  0.8793  0.8105
   28SAPC   O21 3698   5.771   3.927   6.725 -0.8983 -0.5514  0.5322
   28SAPC   C21 3699   5.666   4.000   6.703  0.7144 -0.1537 -0.0700
   28SAPC   O22 3700   5.577   3.976   6.625  0.0090 -0.0491  0.9678
   28SAPC   C22 3701   5.662   4.124   6.796 -0.4991  0.1036 -0.5525
   28SAPC   H2R 3702   5.754   4.183   6.772  0.3270 -1.2455 -0.7807
   28SAPC   H2S 3703   5.571   4.182   6.769 -1.2050 -0.0492  1.3450
   28SAPC    C3 3704   5.902   3.718   6.742 -0.3060 -0.0015 -0.7882
   28SAPC    HX 3705   5.998   3.748   6.695 -0.5092 -2.0596 -2.6615
   28SAPC    HY 3706   5.876   3.616   6.708 -0.8762  0.5398 -2.0376
   28SAPC   O31 3707   5.915   3.731   6.883 -0.0606  0.0481  0.0718
   28SAPC   C31 3708   5.803   3.703   6.960  0.0258  0.0793 -0.1619
   28SAPC   O32 3709   5.710   3.643   6.920 -0.3228  0.6191  0.2856
   28SAPC   C32 3710   5.822   3.748   7.104 -0.0910  0.1403  0.1970
   28SAPC   H2X 3711   5.795   3.855   7.116 -0.5036  0.2448 -1.3989
   28SAPC   H2Y 3712   5.931   3.758   7.123  0.3322 -0.4785 -1.6445
   28SAPC   C23 3713   5.661   4.083   6.947 -0.1941  0.8861 -0.8136
   28SAPC   H3R 3714   5.700   4.170   7.004  0.6868  1.4529 -2.1953
   28SAPC   H3S 3715   5.743   4.011   6.966 -0.6246  0.9226  1.3180
   28SAPC   C24 3716   5.525   4.033   6.996  0.2262  0.9551  0.0436
   28SAPC   H4R 3717   5.508   4.053   7.104 -1.0761  1.7880 -0.2924
   28SAPC   H4S 3718   5.454   4.108   6.955  1.3854  2.2205  0.2637
   28SAPC   C25 3719   5.488   3.889   6.969  0.2775 -0.0222  0.3186
   28SAPC   H5R 3720   5.460   3.870   6.864 -2.8341  0.2841  0.9801
   28SAPC   C26 3721   5.445   3.800   7.056  0.5153  0.3550  0.2630
   28SAPC   H6R 3722   5.407   3.706   7.014 -0.1244  0.0376  1.4892
   28SAPC   C27 3723   5.428   3.821   7.207 -0.2634  0.2284 -0.2118
   28SAPC   H7R 3724   5.508   3.890   7.241  0.9701 -1.2171 -0.0302
   28SAPC   H7S 3725   5.459   3.730   7.263 -0.5620 -0.2804 -0.8578
   28SAPC   C28 3726   5.294   3.868   7.249  0.0835 -0.3792 -0.4105
   28SAPC   H8R 3727   5.232   3.907   7.167 -1.0151  1.1992  1.0939
   28SAPC   C29 3728   5.226   3.828   7.360  1.1030 -0.0105 -0.1060
   28SAPC   H9R 3729   5.123   3.865   7.370  1.6096  1.3983  0.0852
   28SAPC  C210 3730   5.275   3.746   7.475 -0.1825 -0.0718 -0.2327
   28SAPC  H10R 3731   5.301   3.645   7.436  1.5378  0.0211  0.5550
   28SAPC  H10S 3732   5.191   3.721   7.543  1.0326 -0.7139  1.0996
   28SAPC  C211 3733   5.398   3.803   7.552 -0.0565  0.9194 -0.6206
   28SAPC  H11R 3734   5.465   3.859   7.486  1.6076  0.5637  0.7201
   28SAPC  C212 3735   5.426   3.793   7.682  0.1710  0.0268  0.3799
   28SAPC  H12R 3736   5.525   3.823   7.720 -0.6567  1.9807  1.1110
   28SAPC  C213 3737   5.341   3.710   7.778 -0.5075  0.2249 -0.1161
   28SAPC  H13R 3738   5.274   3.649   7.714  1.4599  0.8024 -2.8799
   28SAPC  H13S 3739   5.273   3.774   7.838  0.5327 -1.3660  2.9618
   28SAPC  C214 3740   5.434   3.631   7.874  0.8156  0.2580 -0.3220
   28SAPC  H14R 3741   5.509   3.569   7.823 -0.3397 -2.1028  0.7361
   28SAPC  C215 3742   5.429   3.631   8.010  1.2067 -0.7831  0.4734
   28SAPC  H15R 3743   5.498   3.569   8.070  0.8647 -0.7015  0.9629
   28SAPC  C216 3744   5.325   3.699   8.099  0.1773 -0.5163 -0.5280
   28SAPC  H16R 3745   5.237   3.732   8.041 -0.2964  2.7864  1.8319
   28SAPC  H16S 3746   5.372   3.781   8.158 -1.6036 -1.3471  2.2388
   28SAPC  C217 3747   5.260   3.616   8.212  0.3792  0.4409 -0.3108
   28SAPC  H17R 3748   5.202   3.532   8.168 -0.8251  1.1587 -0.1291
   28SAPC  H17S 3749   5.190   3.672   8.277  1.1426 -0.1380  1.0465
   28SAPC  C218 3750   5.373   3.553   8.295  0.5606  0.6491 -0.1275
   28SAPC  H18R 3751   5.448   3.623   8.338  0.3073  0.5721  0.4501
   28SAPC  H18S 3752   5.423   3.476   8.233  2.3795  0.2503  1.7131
   28SAPC  C219 3753   5.321   3.470   8.413 -0.0695 -0.2079  0.3318
   28SAPC  H19R 3754   5.240   3.523   8.467 -0.7205  0.0881 -0.8825
   28SAPC  H19S 3755   5.412   3.460   8.475  0.8326  0.1847 -0.8947
   28SAPC  C220 3756   5.262   3.331   8.366 -0.2864 -0.4496  0.5916
   28SAPC  H20R 3757   5.164   3.359   8.321 -1.2311  0.6879  3.1676
   28SAPC  H20S 3758   5.255   3.271   8.459  2.8866  0.2434  1.3960
   28SAPC  H20T 3759   5.323   3.285   8.286 -0.7426 -1.2034  0.6693
   28SAPC   C33 3760   5.774   3.652   7.221 -0.3193  0.4688 -0.1055
   28SAPC   H3X 3761   5.820   3.555   7.194 -1.2509  0.0482 -0.2191
   28SAPC   H3Y 3762   5.666   3.627   7.213 -0.1365 -0.5232  0.4232
   28SAPC   C34 3763   5.803   3.697   7.361 -0.2445 -0.7171 -0.5856
   28SAPC   H4X 3764   5.740   3.783   7.393 -0.9943 -0.9669 -1.3469
   28SAPC   H4Y 3765   5.905   3.740   7.357 -1.1599  1.8545  1.0611
   28SAPC   C35 3766   5.792   3.591   7.470  0.9175  0.2324  0.0555
   28SAPC   H5X 3767   5.848   3.497   7.450 -0.1088 -0.2033 -0.9124
   28SAPC   H5Y 3768   5.682   3.575   7.479  0.7267  1.1012 -0.6917
   28SAPC   C36 3769   5.850   3.648   7.599  0.1629  0.2955 -0.8266
   28SAPC   H6X 3770   5.801   3.746   7.619 -1.0857 -0.3859 -0.4421
   28SAPC   H6Y 3771   5.960   3.656   7.586  0.1139  1.1832 -0.7909
   28SAPC   C37 3772   5.811   3.559   7.720 -0.0613  0.3628  0.2525
   28SAPC   H7X 3773   5.829   3.454   7.687 -0.1619  0.2694  0.4909
   28SAPC   H7Y 3774   5.703   3.564   7.746  0.4222 -0.9749  2.8788
   28SAPC   C38 3775   5.883   3.587   7.852  0.0839 -0.1141 -0.6121
   28SAPC   H8X 3776   5.859   3.691   7.882 -0.8178 -0.6826  0.7173
   28SAPC   H8Y 3777   5.994   3.580   7.856 -0.0043 -1.4344  0.0048
   28SAPC   C39 3778   5.826   3.498   7.963  0.0538  0.7847 -0.8512
   28SAPC   H9X 3779   5.852   3.395   7.932  2.2310  1.1116 -0.2718
   28SAPC   H9Y 3780   5.715   3.505   7.975 -0.0408 -0.9741 -0.4549
   28SAPC  C310 3781   5.900   3.516   8.096 -0.0170  0.6511  0.5370
   28SAPC  H10X 3782   5.900   3.626   8.107  1.0099  0.6704  0.4065
   28SAPC  H10Y 3783   6.006   3.489   8.075  0.0436 -0.1561  1.7436
   28SAPC  C311 3784   5.847   3.443   8.216 -0.4320  1.1999  0.0383
   28SAPC  H11X 3785   5.871   3.336   8.198 -0.5208  1.1808  0.0314
   28SAPC  H11Y 3786   5.736   3.446   8.216 -0.4849  0.3824  1.8348
   28SAPC  C312 3787   5.905   3.484   8.350 -0.6861 -0.4185 -0.2293
   28SAPC  H12X 3788   6.015   3.476   8.342 -0.6881 -2.1038  1.0520
   28SAPC  H12Y 3789   5.859   3.430   8.435  1.1567 -0.6476  0.6736
   28SAPC  C313 3790   5.864   3.636   8.381  0.2981  0.2709 -0.2729
   28SAPC  H13X 3791   5.754   3.628   8.372  0.1879 -0.2436  1.2848
   28SAPC  H13Y 3792   5.910   3.706   8.308  3.2534 -1.6772 -0.4421
   28SAPC  C314 3793   5.897   3.672   8.524 -0.9188  0.4810 -0.2623
   28SAPC  H14X 3794   6.005   3.680   8.549 -1.0251 -0.1130  0.4319
   28SAPC  H14Y 3795   5.874   3.580   8.582  1.7703 -1.0473 -1.4592
   28SAPC  C315 3796   5.826   3.798   8.564  0.6111 -0.1618 -0.0338
   28SAPC  H15X 3797   5.717   3.779   8.564  0.5392 -0.0930  2.3914
   28SAPC  H15Y 3798   5.847   3.877   8.489 -2.7879  3.4322  2.4270
   28SAPC  C316 3799   5.874   3.852   8.706  0.7907  0.0016  0.5868
   28SAPC  H16X 3800   5.815   3.945   8.721  0.2404 -0.3779  0.8056
   28SAPC  H16Y 3801   5.983   3.874   8.708  0.4565  2.6593 -2.6303
   28SAPC  C317 3802   5.851   3.759   8.826  0.0508 -0.1825  0.1733
   28SAPC  H17X 3803   5.865   3.818   8.919 -1.7073  0.5070  0.0446
   28SAPC  H17Y 3804   5.930   3.682   8.819  0.6506  0.6067 -4.1439
   28SAPC  C318 3805   5.713   3.688   8.833 -0.3572 -0.0024  0.1557
   28SAPC  H18X 3806   5.634   3.751   8.787  1.4432  1.1798 -1.4766
   28SAPC  H18Y 3807   5.692   3.659   8.938  1.0464  0.1366  0.5041
   28SAPC  H18Z 3808   5.715   3.590   8.781 -1.4365  0.0863 -0.0621
   29SAPC     N 3809   1.214   1.254   5.819 -0.3557 -0.3936 -0.6361
   29SAPC   C12 3810   1.280   1.194   5.948  0.5612 -0.3126  0.1128
   29SAPC  H12A 3811   1.296   1.276   6.017 -0.0996  1.2850 -1.5300
   29SAPC  H12B 3812   1.381   1.166   5.922  0.7596  0.5491 -0.0744
   29SAPC   C13 3813   1.172   1.152   5.723 -0.4825  0.0430  0.0771
   29SAPC  H13A 3814   1.098   1.086   5.765 -1.0392 -0.6149 -1.8260
   29SAPC  H13B 3815   1.132   1.187   5.629  0.0143 -1.2493 -0.6382
   29SAPC  H13C 3816   1.263   1.105   5.690 -0.3263  0.3330  0.0834
   29SAPC   C14 3817   1.085   1.325   5.864 -0.4493  0.6330  0.5791
   29SAPC  H14A 3818   1.023   1.267   5.932  0.1404 -1.9416 -0.9257
   29SAPC  H14B 3819   1.105   1.412   5.925 -0.1606  0.8496  0.1784
   29SAPC  H14C 3820   1.028   1.362   5.780 -0.5532  3.3005  1.7333
   29SAPC   C15 3821   1.286   1.356   5.746  0.0633  0.2935  0.1270
   29SAPC  H15A 3822   1.221   1.398   5.671 -2.0639  0.2289  1.8301
   29SAPC  H15B 3823   1.327   1.437   5.803 -0.6213  0.3357  0.5668
   29SAPC  H15C 3824   1.369   1.301   5.702 -1.5962 -2.1076 -0.2079
   29SAPC   C11 3825   1.206   1.085   6.026 -0.6711 -0.7600  0.6779
   29SAPC  H11A 3826   1.262   1.060   6.119 -0.4110 -0.5480  0.5784
   29SAPC  H11B 3827   1.215   0.996   5.960  1.1169 -1.3031  1.5795
   29SAPC     P 3828   0.958   1.041   6.131 -0.5579  0.0801 -0.1407
   29SAPC   O13 3829   0.864   1.124   6.208  0.0665  0.7305  0.1576
   29SAPC   O14 3830   0.900   0.948   6.035  0.6445 -0.9339  0.0755
   29SAPC   O12 3831   1.076   1.131   6.068  0.8661 -0.1758 -0.2286
   29SAPC   O11 3832   1.027   0.955   6.243  0.1389  0.0036  0.0322
   29SAPC    C1 3833   1.081   1.017   6.368  0.2209 -0.1317  0.2186
   29SAPC    HA 3834   1.098   1.126   6.354  0.3298 -0.2779 -0.8582
   29SAPC    HB 3835   1.006   1.012   6.450 -0.1414  1.8327  0.0641
   29SAPC    C2 3836   1.211   0.950   6.407  0.2588 -0.6395  0.3598
   29SAPC    HS 3837   1.281   0.958   6.321  0.2243  1.1507  0.4572
   29SAPC   O21 3838   1.198   0.815   6.444 -0.2448  0.3186  0.0765
   29SAPC   C21 3839   1.239   0.722   6.362  0.5211  0.2280 -0.3658
   29SAPC   O22 3840   1.291   0.739   6.252  0.0304 -0.8959  0.1838
   29SAPC   C22 3841   1.199   0.580   6.420 -0.0989  0.1755  0.6767
   29SAPC   H2R 3842   1.212   0.570   6.530 -0.4380  1.2093  0.8219
   29SAPC   H2S 3843   1.089   0.573   6.411  0.2016 -1.6840 -3.8194
   29SAPC    C3 3844   1.276   1.030   6.521  0.4199  1.0791  0.0919
   29SAPC    HX 3845   1.219   1.015   6.615 -1.9357  1.9597 -1.0919
   29SAPC    HY 3846   1.263   1.138   6.499 -1.0596  1.1892  1.3589
   29SAPC   O31 3847   1.418   0.998   6.528  0.2198 -0.0462 -0.0088
   29SAPC   C31 3848   1.473   1.012   6.657 -0.2852 -0.6030 -0.1771
   29SAPC   O32 3849   1.407   1.042   6.755  0.5386 -0.4386  0.3687
   29SAPC   C32 3850   1.624   0.976   6.659  0.2991 -0.1319 -0.6544
   29SAPC   H2X 3851   1.688   1.067   6.670 -0.6278  0.5160 -0.5214
   29SAPC   H2Y 3852   1.650   0.927   6.562 -2.5624  0.3714 -1.7635
   29SAPC   C23 3853   1.242   0.456   6.334  0.0645 -0.4144  0.3115
   29SAPC   H3R 3854   1.251   0.481   6.226 -0.1219 -0.4749  0.2810
   29SAPC   H3S 3855   1.173   0.370   6.341  1.2170 -1.4111 -0.1913
   29SAPC   C24 3856   1.383   0.405   6.370  0.7124 -0.1250 -0.0074
   29SAPC   H4R 3857   1.381   0.310   6.313 -0.2026 -0.2311  0.1804
   29SAPC   H4S 3858   1.391   0.382   6.479 -0.3076  1.5400  0.4544
   29SAPC   C25 3859   1.490   0.502   6.338 -0.4412  0.7653 -0.6017
   29SAPC   H5R 3860   1.489   0.528   6.231 -2.8185  1.6774 -0.4098
   29SAPC   C26 3861   1.579   0.559   6.426  0.2675  0.5563 -0.9531
   29SAPC   H6R 3862   1.651   0.628   6.380  2.0025 -0.2893  0.3515
   29SAPC   C27 3863   1.599   0.562   6.578 -0.2027  0.2297  0.5979
   29SAPC   H7R 3864   1.671   0.642   6.605 -1.7792  0.5577  4.6533
   29SAPC   H7S 3865   1.640   0.463   6.608  0.3048 -0.0994 -1.0711
   29SAPC   C28 3866   1.467   0.580   6.656 -0.3444  0.5707  0.2827
   29SAPC   H8R 3867   1.392   0.631   6.593 -0.6425 -0.3624 -0.1246
   29SAPC   C29 3868   1.436   0.540   6.772 -0.0407 -0.2565 -0.0670
   29SAPC   H9R 3869   1.332   0.557   6.805 -1.5686 -0.8615 -4.0201
   29SAPC  C210 3870   1.517   0.460   6.872 -0.9106  0.0130  0.1038
   29SAPC  H10R 3871   1.589   0.399   6.814  0.7261  2.7788 -0.9677
   29SAPC  H10S 3872   1.444   0.389   6.917 -0.1713 -1.1563 -0.4774
   29SAPC  C211 3873   1.597   0.539   6.973 -0.0808  0.8851 -0.8020
   29SAPC  H11R 3874   1.693   0.578   6.935  0.6129  2.1236  1.9609
   29SAPC  C212 3875   1.551   0.575   7.096 -0.9311  0.2892 -0.3434
   29SAPC  H12R 3876   1.627   0.615   7.164  1.2737  1.7210 -3.4376
   29SAPC  C213 3877   1.424   0.529   7.158  0.5924 -0.7772 -0.2282
   29SAPC  H13R 3878   1.429   0.419   7.178 -2.6227 -0.8613  0.7128
   29SAPC  H13S 3879   1.339   0.534   7.087 -1.8144 -1.1998  2.4039
   29SAPC  C214 3880   1.373   0.607   7.281 -0.0582  0.3322  0.6866
   29SAPC  H14R 3881   1.300   0.685   7.257  0.3669  0.0895 -1.5558
   29SAPC  C215 3882   1.396   0.576   7.407  0.5809  0.4225 -0.1164
   29SAPC  H15R 3883   1.341   0.638   7.479  0.0395  0.8427 -0.8776
   29SAPC  C216 3884   1.474   0.455   7.460 -0.1727  0.4693  0.5643
   29SAPC  H16R 3885   1.577   0.446   7.420 -0.2972 -1.4634  0.5779
   29SAPC  H16S 3886   1.428   0.365   7.414 -0.7911  1.6156 -1.1717
   29SAPC  C217 3887   1.457   0.436   7.616 -0.3516  0.2332 -0.3697
   29SAPC  H17R 3888   1.352   0.446   7.651  0.1087  0.7429  0.9384
   29SAPC  H17S 3889   1.521   0.516   7.660 -0.5145  0.9090 -1.3272
   29SAPC  C218 3890   1.502   0.296   7.662  0.2427  1.0201 -0.1671
   29SAPC  H18R 3891   1.605   0.277   7.623  0.1367  0.8584 -0.3654
   29SAPC  H18S 3892   1.436   0.217   7.621  1.9522  0.1021 -1.2606
   29SAPC  C219 3893   1.516   0.267   7.824 -1.0715 -0.0946  0.4142
   29SAPC  H19R 3894   1.551   0.161   7.817  1.4087  0.5561  1.6797
   29SAPC  H19S 3895   1.422   0.294   7.876  0.5753  0.4153  3.3248
   29SAPC  C220 3896   1.622   0.343   7.888  0.0652  0.2268  0.4354
   29SAPC  H20R 3897   1.644   0.301   7.988  1.0094 -0.2363  0.0503
   29SAPC  H20S 3898   1.586   0.448   7.901 -1.6764 -0.3836  0.7259
   29SAPC  H20T 3899   1.713   0.339   7.824 -0.6386  0.1962 -0.5836
   29SAPC   C33 3900   1.664   0.887   6.782  0.8278 -0.1429  0.4036
   29SAPC   H3X 3901   1.761   0.838   6.758  2.0206  1.7929  1.0349
   29SAPC   H3Y 3902   1.590   0.808   6.806 -1.0296  1.4359  0.1081
   29SAPC   C34 3903   1.673   0.976   6.911  0.1556  0.1825  0.9434
   29SAPC   H4X 3904   1.578   1.032   6.924  0.5393  1.0911 -0.0224
   29SAPC   H4Y 3905   1.746   1.057   6.890  1.3667 -0.7256  1.6062
   29SAPC   C35 3906   1.699   0.902   7.043 -0.6602  0.1958  0.3240
   29SAPC   H5X 3907   1.798   0.852   7.050  0.4719  2.3545  0.6123
   29SAPC   H5Y 3908   1.618   0.827   7.055  0.5085 -1.1043  0.4221
   29SAPC   C36 3909   1.705   0.991   7.170 -0.0732  0.0138 -0.3648
   29SAPC   H6X 3910   1.638   1.079   7.164 -0.4611 -0.0899  1.6880
   29SAPC   H6Y 3911   1.805   1.036   7.183  0.2840 -1.0266  0.6933
   29SAPC   C37 3912   1.681   0.916   7.303  0.2172 -0.4515  0.1193
   29SAPC   H7X 3913   1.760   0.841   7.325  0.2084 -0.4367  0.2001
   29SAPC   H7Y 3914   1.588   0.856   7.312 -0.9163  0.8063 -2.2762
   29SAPC   C38 3915   1.691   1.015   7.423  0.2248 -0.0996  0.2114
   29SAPC   H8X 3916   1.606   1.086   7.415  0.3085 -0.0297 -0.0839
   29SAPC   H8Y 3917   1.793   1.059   7.428  0.9477 -1.6915  0.1785
   29SAPC   C39 3918   1.661   0.937   7.553  0.1101  0.1316 -0.1137
   29SAPC   H9X 3919   1.555   0.907   7.567 -0.2407  1.4075  0.0414
   29SAPC   H9Y 3920   1.677   1.020   7.625  0.5375 -0.6154  0.6883
   29SAPC  C310 3921   1.757   0.818   7.588  0.5132 -0.0813  0.2148
   29SAPC  H10X 3922   1.863   0.847   7.568  0.6402  0.5476  1.7076
   29SAPC  H10Y 3923   1.737   0.726   7.529  0.7387 -0.6636  1.0310
   29SAPC  C311 3924   1.760   0.774   7.735  0.7656  0.1360  0.4973
   29SAPC  H11X 3925   1.658   0.740   7.765  1.4306 -1.4493  1.0418
   29SAPC  H11Y 3926   1.781   0.857   7.804 -0.6615 -1.6358  3.2547
   29SAPC  C312 3927   1.858   0.658   7.771 -0.3491 -0.2103  0.2100
   29SAPC  H12X 3928   1.960   0.676   7.734  0.0512 -0.5243  1.1189
   29SAPC  H12Y 3929   1.821   0.570   7.714 -0.4090  0.1178 -0.2590
   29SAPC  C313 3930   1.869   0.628   7.924  0.0968  0.3983  0.3334
   29SAPC  H13X 3931   1.763   0.610   7.950  0.1417 -1.1962 -0.5282
   29SAPC  H13Y 3932   1.905   0.721   7.975  1.5614  0.9079 -1.5094
   29SAPC  C314 3933   1.953   0.501   7.938 -0.1745 -0.0061  0.3723
   29SAPC  H14X 3934   2.054   0.538   7.907  0.2971 -0.4224  1.3419
   29SAPC  H14Y 3935   1.910   0.420   7.875 -1.2201  0.1302  0.8927
   29SAPC  C315 3936   1.967   0.442   8.081  0.2893  0.1081  0.2632
   29SAPC  H15X 3937   1.865   0.441   8.124 -1.2890  0.8587 -3.1131
   29SAPC  H15Y 3938   2.023   0.514   8.145  3.3120 -1.3034 -0.5675
   29SAPC  C316 3939   2.045   0.307   8.087  0.3679  1.5129 -0.2205
   29SAPC  H16X 3940   2.140   0.302   8.030 -0.3517  0.8126 -1.4023
   29SAPC  H16Y 3941   1.973   0.233   8.046 -0.3628  2.7244 -1.1495
   29SAPC  C317 3942   2.075   0.268   8.232 -0.1900 -0.6373  0.0606
   29SAPC  H17X 3943   1.972   0.255   8.273 -0.1850 -0.2902  0.1853
   29SAPC  H17Y 3944   2.118   0.352   8.291  0.6155 -0.4156 -0.8256
   29SAPC  C318 3945   2.168   0.143   8.265  0.3343 -0.0351 -0.1844
   29SAPC  H18X 3946   2.274   0.162   8.235  1.1108 -1.5042  1.4192
   29SAPC  H18Y 3947   2.129   0.064   8.197  1.4937 -0.8647  0.0778
   29SAPC  H18Z 3948   2.167   0.116   8.372  0.9757  0.2074 -0.1127
   30SAPC     N 3949   1.378   3.818   6.534  0.3108 -0.7334 -0.2660
   30SAPC   C12 3950   1.521   3.841   6.577 -0.4112  0.5307 -0.1448
   30SAPC  H12A 3951   1.521   3.896   6.670  0.1189  2.5312 -1.2803
   30SAPC  H12B 3952   1.548   3.912   6.501 -1.6988  0.1253 -1.0252
   30SAPC   C13 3953   1.302   3.951   6.523 -0.4917  0.0965  0.6234
   30SAPC  H13A 3954   1.320   4.012   6.611 -1.0344 -1.0998  1.5902
   30SAPC  H13B 3955   1.340   4.004   6.437 -0.4571 -0.4226  0.3136
   30SAPC  H13C 3956   1.198   3.929   6.506 -0.7494  1.5453  0.1744
   30SAPC   C14 3957   1.372   3.754   6.403 -0.0813 -0.6509  0.1480
   30SAPC  H14A 3958   1.436   3.812   6.338  0.6899 -1.4624  0.1681
   30SAPC  H14B 3959   1.419   3.657   6.406 -1.3658 -1.5392 -3.7618
   30SAPC  H14C 3960   1.270   3.758   6.369 -0.5327  1.3089  1.5072
   30SAPC   C15 3961   1.305   3.739   6.630  0.3172  0.4000 -0.1861
   30SAPC  H15A 3962   1.198   3.752   6.623 -0.1368 -1.7135  1.6224
   30SAPC  H15B 3963   1.313   3.633   6.614  0.9761  0.5084 -0.5796
   30SAPC  H15C 3964   1.336   3.754   6.732  1.7259  1.2560 -0.7183
   30SAPC   C11 3965   1.625   3.731   6.579 -0.3489  1.2021  0.3229
   30SAPC  H11A 3966   1.604   3.660   6.662  0.8688  0.0627 -0.2993
   30SAPC  H11B 3967   1.727   3.766   6.605 -0.0815  0.8469 -0.2216
   30SAPC     P 3968   1.727   3.667   6.343  0.4303  0.1864 -0.3071
   30SAPC   O13 3969   1.734   3.545   6.255 -0.1028 -0.4042 -0.1795
   30SAPC   O14 3970   1.690   3.793   6.267  0.1052  0.3679  0.9167
   30SAPC   O12 3971   1.623   3.653   6.461 -0.0248  0.2459 -0.0777
   30SAPC   O11 3972   1.857   3.697   6.413 -0.1728  0.3457  0.6528
   30SAPC    C1 3973   1.973   3.610   6.421  0.6402  0.3700  0.1175
   30SAPC    HA 3974   1.988   3.558   6.324 -1.3063  0.8259 -0.4836
   30SAPC    HB 3975   2.061   3.676   6.438  0.2150  0.8303  0.5401
   30SAPC    C2 3976   1.965   3.495   6.523 -0.1912 -0.3789 -0.4656
   30SAPC    HS 3977   1.884   3.427   6.488 -1.0758  0.4031  0.0389
   30SAPC   O21 3978   1.943   3.546   6.657 -0.6016  0.5647 -0.2880
   30SAPC   C21 3979   1.872   3.465   6.736 -0.4952  0.2265  0.9175
   30SAPC   O22 3980   1.815   3.367   6.701  0.2628 -0.1943  0.4009
   30SAPC   C22 3981   1.895   3.512   6.876  0.5396  0.4614  0.2236
   30SAPC   H2R 3982   1.897   3.419   6.936  0.7073  0.5583  0.3689
   30SAPC   H2S 3983   1.991   3.564   6.897  1.7637 -2.6358  3.1548
   30SAPC    C3 3984   2.095   3.410   6.516 -0.1209 -0.7541  0.1371
   30SAPC    HX 3985   2.172   3.486   6.542 -0.2553 -0.3891 -0.5121
   30SAPC    HY 3986   2.131   3.385   6.414  1.3032  3.4645 -0.5880
   30SAPC   O31 3987   2.101   3.293   6.609 -0.5769 -0.2432  0.2610
   30SAPC   C31 3988   2.030   3.190   6.565  0.2679 -0.0873  0.1968
   30SAPC   O32 3989   1.962   3.180   6.463 -0.4761 -0.6905  0.0762
   30SAPC   C32 3990   2.037   3.070   6.662 -0.2214 -0.0013  0.1174
   30SAPC   H2X 3991   2.045   3.105   6.767 -1.4995  0.8335 -0.0313
   30SAPC   H2Y 3992   2.129   3.019   6.627 -1.1485 -1.1425 -0.7445
   30SAPC   C23 3993   1.775   3.597   6.928 -0.0795  0.6029 -0.1235
   30SAPC   H3R 3994   1.681   3.542   6.904  0.0016  0.1550  0.5528
   30SAPC   H3S 3995   1.771   3.689   6.866 -1.3566  0.5383 -0.1667
   30SAPC   C24 3996   1.770   3.612   7.080  0.0921 -0.2253 -0.9316
   30SAPC   H4R 3997   1.794   3.515   7.128 -0.1197  1.0651  1.9800
   30SAPC   H4S 3998   1.665   3.642   7.101  0.1107  1.3638 -2.8291
   30SAPC   C25 3999   1.869   3.723   7.119  0.1198 -0.7644 -1.0457
   30SAPC   H5R 4000   1.852   3.817   7.064 -1.1325  0.2521  0.9899
   30SAPC   C26 4001   1.965   3.720   7.211  0.6270  0.3876 -0.2222
   30SAPC   H6R 4002   2.032   3.806   7.227  1.8537 -0.7781  1.1464
   30SAPC   C27 4003   1.998   3.597   7.291 -0.1282  0.6626  0.7177
   30SAPC   H7R 4004   2.108   3.597   7.304 -0.0036  0.6367 -0.2437
   30SAPC   H7S 4005   1.971   3.507   7.232 -1.0704  1.0178  0.5860
   30SAPC   C28 4006   1.925   3.587   7.424  0.0048 -0.1627 -0.2204
   30SAPC   H8R 4007   1.837   3.523   7.436 -2.1577  3.0764  3.4031
   30SAPC   C29 4008   1.965   3.637   7.540 -0.3080 -0.0854  0.6016
   30SAPC   H9R 4009   1.901   3.621   7.629 -2.3104 -2.7061 -1.1724
   30SAPC  C210 4010   2.096   3.708   7.542  0.6617  0.6716 -0.1805
   30SAPC  H10R 4011   2.107   3.772   7.452  1.8025 -1.0468 -1.3148
   30SAPC  H10S 4012   2.172   3.628   7.539 -0.6183 -0.5428 -1.5368
   30SAPC  C211 4013   2.126   3.793   7.670 -0.0753  0.0067  0.2602
   30SAPC  H11R 4014   2.146   3.900   7.656 -2.9600  0.4160 -1.8900
   30SAPC  C212 4015   2.146   3.746   7.795 -0.6710  0.6788 -0.4328
   30SAPC  H12R 4016   2.175   3.816   7.874  1.2957 -1.5105  0.9372
   30SAPC  C213 4017   2.121   3.601   7.846 -0.1474 -0.4767  0.0138
   30SAPC  H13R 4018   2.217   3.552   7.873 -0.3882 -2.8421 -2.9053
   30SAPC  H13S 4019   2.104   3.536   7.757  2.9203 -1.2604 -0.1132
   30SAPC  C214 4020   2.006   3.591   7.937 -0.2582  0.3042 -0.9227
   30SAPC  H14R 4021   1.901   3.591   7.906 -1.3346  0.7678  2.3598
   30SAPC  C215 4022   2.020   3.608   8.070  0.2471  0.4620  0.0974
   30SAPC  H15R 4023   1.931   3.599   8.134  0.8873 -0.9577  0.8222
   30SAPC  C216 4024   2.153   3.636   8.135 -0.3713 -0.5873 -0.5000
   30SAPC  H16R 4025   2.226   3.679   8.064 -0.3986  1.0017  0.3893
   30SAPC  H16S 4026   2.204   3.547   8.177 -0.9732 -1.6621 -1.9668
   30SAPC  C217 4027   2.161   3.745   8.240  0.4873 -0.4798  0.2807
   30SAPC  H17R 4028   2.113   3.703   8.332 -0.7193 -0.2948 -0.2426
   30SAPC  H17S 4029   2.092   3.824   8.202  0.7634 -0.2185  0.3232
   30SAPC  C218 4030   2.296   3.813   8.274 -0.7967 -0.6952 -0.7317
   30SAPC  H18R 4031   2.258   3.885   8.350 -2.5301 -0.5782 -1.6512
   30SAPC  H18S 4032   2.339   3.861   8.183 -0.4445  4.7087  1.8485
   30SAPC  C219 4033   2.403   3.729   8.345  0.0004  0.4340 -0.2672
   30SAPC  H19R 4034   2.458   3.657   8.281  0.4001  1.0694 -0.6433
   30SAPC  H19S 4035   2.372   3.675   8.437  1.0879  0.0041 -0.1271
   30SAPC  C220 4036   2.514   3.828   8.392 -0.6340  0.0684  0.6510
   30SAPC  H20R 4037   2.585   3.771   8.456  3.0879  2.7221 -0.7109
   30SAPC  H20S 4038   2.485   3.905   8.466 -0.0586  0.5193  0.4110
   30SAPC  H20T 4039   2.581   3.865   8.311  1.2733 -1.7920  1.2648
   30SAPC   C33 4040   1.911   2.978   6.641 -0.2766  0.5079 -0.9052
   30SAPC   H3X 4041   1.906   2.941   6.536 -1.6987  1.8148 -1.3518
   30SAPC   H3Y 4042   1.823   3.044   6.661  0.6430  1.4551  0.1751
   30SAPC   C34 4043   1.918   2.849   6.728 -0.1523  0.3311 -0.4786
   30SAPC   H4X 4044   2.006   2.860   6.795  0.0889 -1.1018 -0.5329
   30SAPC   H4Y 4045   1.932   2.759   6.665  1.6383  0.2362  0.0080
   30SAPC   C35 4046   1.798   2.817   6.808  0.2500  0.2307  0.6641
   30SAPC   H5X 4047   1.710   2.845   6.746  0.3133 -1.1858 -0.1075
   30SAPC   H5Y 4048   1.793   2.891   6.890  0.8711  3.1247 -1.7170
   30SAPC   C36 4049   1.784   2.679   6.871 -0.4594 -0.0006  0.3630
   30SAPC   H6X 4050   1.869   2.657   6.939 -1.4611  0.9747  1.9949
   30SAPC   H6Y 4051   1.778   2.605   6.788 -0.9256 -2.0798  2.1596
   30SAPC   C37 4052   1.647   2.660   6.933  0.1564 -0.1186  0.0523
   30SAPC   H7X 4053   1.602   2.571   6.883  1.4174 -1.6148  1.4909
   30SAPC   H7Y 4054   1.586   2.753   6.917 -2.0979 -1.4573  0.3712
   30SAPC   C38 4055   1.662   2.626   7.082  0.1234  0.2503 -0.0451
   30SAPC   H8X 4056   1.684   2.722   7.133  0.1641  0.8856 -1.2203
   30SAPC   H8Y 4057   1.739   2.548   7.102  0.1611 -0.2157 -1.8451
   30SAPC   C39 4058   1.534   2.573   7.140 -0.8380 -0.0743 -0.8621
   30SAPC   H9X 4059   1.531   2.469   7.100  1.0207 -0.0328 -1.1797
   30SAPC   H9Y 4060   1.449   2.637   7.108  0.0294  1.2308 -0.5785
   30SAPC  C310 4061   1.544   2.559   7.299  0.7079  0.3024  1.2353
   30SAPC  H10X 4062   1.448   2.521   7.339  1.1608  1.3057  3.4741
   30SAPC  H10Y 4063   1.543   2.665   7.331  0.8350  1.5901 -2.5471
   30SAPC  C311 4064   1.655   2.471   7.359  0.3759 -0.9760  0.2763
   30SAPC  H11X 4065   1.755   2.518   7.347  0.7337 -1.5477  0.9308
   30SAPC  H11Y 4066   1.650   2.369   7.315  0.9168 -0.7789 -0.2616
   30SAPC  C312 4067   1.645   2.463   7.513 -0.0769 -0.5947  0.5683
   30SAPC  H12X 4068   1.549   2.423   7.552 -0.5025  0.7783  0.9920
   30SAPC  H12Y 4069   1.646   2.570   7.542 -0.1790  0.1932 -2.1060
   30SAPC  C313 4070   1.759   2.381   7.573 -0.0213 -0.2817 -0.6450
   30SAPC  H13X 4071   1.863   2.419   7.558  0.0305  2.2002  3.9909
   30SAPC  H13Y 4072   1.737   2.284   7.524 -2.8668  0.0922 -0.2784
   30SAPC  C314 4073   1.735   2.384   7.726 -0.8941 -0.9062 -0.3596
   30SAPC  H14X 4074   1.641   2.339   7.763 -1.3436  0.9281  0.8571
   30SAPC  H14Y 4075   1.761   2.482   7.772  0.7551 -1.6263  0.3435
   30SAPC  C315 4076   1.839   2.306   7.804  0.4443  0.2619  0.6407
   30SAPC  H15X 4077   1.940   2.341   7.775 -0.1627  1.0822 -0.5774
   30SAPC  H15Y 4078   1.843   2.202   7.765  0.9918  0.0831  1.1685
   30SAPC  C316 4079   1.837   2.325   7.953  0.1615 -0.3622  0.1160
   30SAPC  H16X 4080   1.735   2.343   7.993  0.2302  2.0223 -0.6269
   30SAPC  H16Y 4081   1.882   2.425   7.972 -1.7332  0.5613 -0.0283
   30SAPC  C317 4082   1.912   2.220   8.030 -0.0447  0.0669 -0.4149
   30SAPC  H17X 4083   2.022   2.236   8.022  0.2354 -0.1874  2.0641
   30SAPC  H17Y 4084   1.880   2.127   7.979  2.3363 -1.1929  0.2172
   30SAPC  C318 4085   1.888   2.201   8.178  0.1178 -0.1116 -1.1759
   30SAPC  H18X 4086   1.909   2.293   8.235 -1.0633 -0.7546  0.3533
   30SAPC  H18Y 4087   1.959   2.127   8.220  0.6206  1.8360  1.6562
   30SAPC  H18Z 4088   1.783   2.174   8.203 -0.6059  1.3426 -2.4769
   31SAPC     N 4089   3.598   3.272   6.123  0.9887  0.3485  0.0223
   31SAPC   C12 4090   3.586   3.260   6.275  0.0166  0.2569  0.6143
   31SAPC  H12A 4091   3.503   3.196   6.300 -0.1878  0.6744  1.0140
   31SAPC  H12B 4092   3.565   3.355   6.321  2.1950 -0.7390  4.0393
   31SAPC   C13 4093   3.468   3.303   6.060  0.0911 -0.3471  0.0737
   31SAPC  H13A 4094   3.420   3.393   6.094  0.2582  0.0105 -0.6185
   31SAPC  H13B 4095   3.482   3.304   5.952 -1.7990 -0.3237 -0.2037
   31SAPC  H13C 4096   3.393   3.226   6.069  0.1247 -0.3949 -0.0498
   31SAPC   C14 4097   3.695   3.384   6.092  0.0908 -0.1796  0.5041
   31SAPC  H14A 4098   3.713   3.404   5.987  0.4083  0.5023  0.6832
   31SAPC  H14B 4099   3.655   3.478   6.127 -0.8016 -0.0644 -0.7498
   31SAPC  H14C 4100   3.795   3.375   6.133 -0.0412  1.2978  1.2021
   31SAPC   C15 4101   3.646   3.139   6.060  0.5506 -0.0367  0.0513
   31SAPC  H15A 4102   3.569   3.064   6.061 -0.4461  0.9681  0.3693
   31SAPC  H15B 4103   3.674   3.160   5.957  1.5867 -1.5022  0.0052
   31SAPC  H15C 4104   3.732   3.104   6.116  0.1691 -1.5042 -0.2459
   31SAPC   C11 4105   3.709   3.199   6.354 -0.3198  0.0334  0.0636
   31SAPC  H11A 4106   3.711   3.223   6.463  1.1702 -0.9523  0.2766
   31SAPC  H11B 4107   3.792   3.256   6.308 -0.1494 -1.5050 -1.6440
   31SAPC     P 4108   3.624   2.957   6.406  0.2429 -0.2599  0.4081
   31SAPC   O13 4109   3.514   3.027   6.473 -0.2190  0.1146  0.2044
   31SAPC   O14 4110   3.573   2.866   6.297  0.1351  0.3007 -0.5516
   31SAPC   O12 4111   3.723   3.061   6.337 -0.5053 -0.6081  0.4074
   31SAPC   O11 4112   3.715   2.882   6.514 -0.4225 -0.2938  0.6755
   31SAPC    C1 4113   3.841   2.825   6.481 -0.2546 -0.0241  0.7874
   31SAPC    HA 4114   3.821   2.745   6.406 -0.7761 -0.3507  1.2742
   31SAPC    HB 4115   3.906   2.892   6.420 -0.4267 -1.5090 -1.1360
   31SAPC    C2 4116   3.909   2.776   6.607 -0.1688 -0.0072  0.1585
   31SAPC    HS 4117   4.011   2.741   6.581 -0.0427 -1.2779  2.1366
   31SAPC   O21 4118   3.843   2.647   6.652 -0.5024 -0.1420 -0.0776
   31SAPC   C21 4119   3.922   2.567   6.718 -0.1537  0.6741  0.1752
   31SAPC   O22 4120   4.046   2.571   6.729  0.6139  0.0399  1.0511
   31SAPC   C22 4121   3.844   2.451   6.786 -0.6413  0.8228 -0.4765
   31SAPC   H2R 4122   3.762   2.415   6.719  0.0558  0.0191 -0.9143
   31SAPC   H2S 4123   3.920   2.372   6.797 -1.5974 -0.1040 -0.3358
   31SAPC    C3 4124   3.920   2.889   6.720 -0.1759 -0.5148  0.4623
   31SAPC    HX 4125   3.814   2.923   6.722  0.0004  0.0246  0.7708
   31SAPC    HY 4126   3.979   2.979   6.693  1.9448 -1.4888  1.6331
   31SAPC   O31 4127   3.963   2.834   6.843 -0.3865 -1.1244 -0.2042
   31SAPC   C31 4128   4.096   2.834   6.862  0.1130  0.3455 -0.2142
   31SAPC   O32 4129   4.176   2.877   6.783 -0.1997  0.1364 -0.1140
   31SAPC   C32 4130   4.127   2.785   7.000  0.4475  0.0721  0.0463
   31SAPC   H2X 4131   4.133   2.674   6.998  0.1102  0.0618 -0.6928
   31SAPC   H2Y 4132   4.041   2.800   7.068  0.0335  0.9765 -0.6484
   31SAPC   C23 4133   3.782   2.483   6.926 -0.6117  0.7365  0.3150
   31SAPC   H3R 4134   3.716   2.572   6.916  0.2407  1.5172  1.4258
   31SAPC   H3S 4135   3.862   2.503   7.000  0.6497  0.5944 -0.9581
   31SAPC   C24 4136   3.698   2.365   6.973 -0.3758  0.0276  0.2306
   31SAPC   H4R 4137   3.631   2.325   6.894 -1.2485  2.0892 -0.1141
   31SAPC   H4S 4138   3.631   2.399   7.055 -1.1832 -1.2446  0.1328
   31SAPC   C25 4139   3.783   2.265   7.044  0.1966  0.0510  0.0218
   31SAPC   H5R 4140   3.884   2.261   6.999 -0.1012 -1.5936 -0.5882
   31SAPC   C26 4141   3.773   2.202   7.170  0.3521  0.4356  0.6709
   31SAPC   H6R 4142   3.852   2.130   7.195 -0.0597 -0.3404 -0.1703
   31SAPC   C27 4143   3.659   2.207   7.270 -0.2620 -0.0446  0.2579
   31SAPC   H7R 4144   3.565   2.208   7.212  1.3144  0.9351 -2.4274
   31SAPC   H7S 4145   3.650   2.297   7.334  0.9354  0.8003 -0.7237
   31SAPC   C28 4146   3.675   2.105   7.372  0.3964  0.0690 -0.6705
   31SAPC   H8R 4147   3.746   2.134   7.451  0.9779 -0.6479 -0.9200
   31SAPC   C29 4148   3.601   1.997   7.400 -0.1758 -0.0467  0.0247
   31SAPC   H9R 4149   3.620   1.927   7.483 -1.7017 -2.2872 -1.4111
   31SAPC  C210 4150   3.471   1.947   7.330 -1.0613 -0.0665  1.0137
   31SAPC  H10R 4151   3.493   1.847   7.286 -3.7381  0.6510 -2.3364
   31SAPC  H10S 4152   3.453   2.010   7.241  0.9900  1.2778  1.4722
   31SAPC  C211 4153   3.338   1.945   7.404 -0.2450  0.0079 -0.1031
   31SAPC  H11R 4154   3.299   1.843   7.402  3.1601 -1.4209  0.1775
   31SAPC  C212 4155   3.284   2.059   7.465 -0.2186 -0.3199 -0.1584
   31SAPC  H12R 4156   3.191   2.045   7.523 -0.7916  1.4508 -0.6001
   31SAPC  C213 4157   3.339   2.194   7.484 -0.9582  0.1686  0.0631
   31SAPC  H13R 4158   3.251   2.261   7.480  0.0820  1.5549 -0.3213
   31SAPC  H13S 4159   3.409   2.232   7.407  1.2366 -0.7988  1.4723
   31SAPC  C214 4160   3.417   2.220   7.614  0.1096  0.6014  0.7148
   31SAPC  H14R 4161   3.480   2.140   7.656 -0.2437 -0.3418 -0.5063
   31SAPC  C215 4162   3.389   2.318   7.698 -0.3222 -0.0265  0.0091
   31SAPC  H15R 4163   3.450   2.319   7.789  2.9463  1.6421 -2.0158
   31SAPC  C216 4164   3.286   2.427   7.677 -0.8820  0.8867  0.2699
   31SAPC  H16R 4165   3.209   2.426   7.757 -0.9773  0.5288  0.1712
   31SAPC  H16S 4166   3.229   2.424   7.582  0.1670  1.3797 -0.3876
   31SAPC  C217 4167   3.352   2.565   7.681 -0.4249  0.2413  0.6001
   31SAPC  H17R 4168   3.282   2.643   7.642 -0.5202  0.5613  1.3939
   31SAPC  H17S 4169   3.437   2.552   7.611  1.4450  1.1163  2.6228
   31SAPC  C218 4170   3.410   2.611   7.813  0.3058 -0.2009 -0.6030
   31SAPC  H18R 4171   3.476   2.532   7.855 -2.5988 -2.2258  0.4087
   31SAPC  H18S 4172   3.331   2.626   7.889 -0.7616  0.1845 -1.7474
   31SAPC  C219 4173   3.484   2.749   7.787 -0.0748  0.4230 -0.2369
   31SAPC  H19R 4174   3.407   2.825   7.764 -1.3810 -0.1414  1.9545
   31SAPC  H19S 4175   3.563   2.739   7.709  1.0590  1.1064  0.7928
   31SAPC  C220 4176   3.562   2.798   7.917  0.4667  0.6832 -0.0059
   31SAPC  H20R 4177   3.580   2.906   7.903 -0.2568  1.2917  3.1598
   31SAPC  H20S 4178   3.653   2.738   7.940 -0.8354 -0.7143  1.7707
   31SAPC  H20T 4179   3.483   2.794   7.994 -0.3755 -1.8046 -0.8654
   31SAPC   C33 4180   4.258   2.846   7.062  1.1687  0.0836 -0.4671
   31SAPC   H3X 4181   4.250   2.957   7.065 -0.4696 -0.0205  0.1989
   31SAPC   H3Y 4182   4.338   2.819   6.990  1.0335 -1.8824  0.0545
   31SAPC   C34 4183   4.280   2.790   7.206 -0.4015  0.9661 -0.3723
   31SAPC   H4X 4184   4.391   2.789   7.218 -0.5040  3.1248  1.6738
   31SAPC   H4Y 4185   4.252   2.684   7.219  4.8290 -0.4394  2.4478
   31SAPC   C35 4186   4.231   2.876   7.318 -0.3126 -0.4878 -0.2058
   31SAPC   H5X 4187   4.120   2.870   7.322 -0.4219  0.9468 -0.4389
   31SAPC   H5Y 4188   4.258   2.983   7.306  0.6980 -0.4000  2.2115
   31SAPC   C36 4189   4.277   2.834   7.458  0.4046 -0.0304  0.2514
   31SAPC   H6X 4190   4.385   2.857   7.462  0.1161  1.7939 -1.2867
   31SAPC   H6Y 4191   4.258   2.725   7.465  0.2590 -0.0756 -0.7479
   31SAPC   C37 4192   4.207   2.911   7.575  1.1206 -0.6307  0.0355
   31SAPC   H7X 4193   4.096   2.911   7.565  0.8056  0.0155  2.6423
   31SAPC   H7Y 4194   4.232   3.019   7.569 -0.6772  0.0332  2.6881
   31SAPC   C38 4195   4.237   2.849   7.705 -0.0105  0.3880  0.1446
   31SAPC   H8X 4196   4.345   2.861   7.728  0.2215  2.5986 -1.8001
   31SAPC   H8Y 4197   4.215   2.740   7.698  2.1858 -0.0623 -0.7891
   31SAPC   C39 4198   4.164   2.918   7.816 -0.3594  0.1950 -0.1545
   31SAPC   H9X 4199   4.054   2.905   7.817 -0.5879  1.7634 -1.7199
   31SAPC   H9Y 4200   4.179   3.026   7.797 -0.8958  0.0102 -1.7762
   31SAPC  C310 4201   4.212   2.883   7.950  0.5084 -0.2427 -0.1325
   31SAPC  H10X 4202   4.321   2.902   7.955  1.0808 -2.9138 -0.6394
   31SAPC  H10Y 4203   4.204   2.775   7.976  2.6554 -0.8063 -1.5004
   31SAPC  C311 4204   4.149   2.974   8.057  0.1674 -0.1353 -0.1144
   31SAPC  H11X 4205   4.041   2.996   8.043  1.0464  4.4869 -1.2005
   31SAPC  H11Y 4206   4.199   3.073   8.049  0.6259 -0.4954 -2.4190
   31SAPC  C312 4207   4.166   2.918   8.197  0.3581  0.1927  0.4087
   31SAPC  H12X 4208   4.267   2.873   8.210 -0.1153 -0.7777  0.8059
   31SAPC  H12Y 4209   4.083   2.844   8.194  0.3458  0.2262 -1.6718
   31SAPC  C313 4210   4.139   3.019   8.313 -0.2622 -0.3272 -0.5248
   31SAPC  H13X 4211   4.045   3.077   8.305 -1.4372 -1.6780  2.2682
   31SAPC  H13Y 4212   4.232   3.080   8.312  0.6542 -1.4763  2.5392
   31SAPC  C314 4213   4.133   2.955   8.451 -0.2006  0.3633  0.4361
   31SAPC  H14X 4214   4.210   2.876   8.462  5.4205  4.9307 -1.1475
   31SAPC  H14Y 4215   4.032   2.909   8.460 -0.1870  0.2577  0.0653
   31SAPC  C315 4216   4.154   3.062   8.554  0.0129 -0.4438  0.4836
   31SAPC  H15X 4217   4.116   3.165   8.536  0.2357 -0.0477  2.1059
   31SAPC  H15Y 4218   4.263   3.085   8.544  0.3633 -2.8371 -2.2353
   31SAPC  C316 4219   4.117   3.001   8.694 -0.7339 -0.9116  1.1102
   31SAPC  H16X 4220   4.187   2.916   8.679  2.5674  1.5287  1.3966
   31SAPC  H16Y 4221   4.006   2.998   8.691 -0.9535  2.7745 -0.1390
   31SAPC  C317 4222   4.161   3.092   8.811 -0.5305  1.0904  0.2072
   31SAPC  H17X 4223   4.131   3.035   8.901 -2.5143  0.2756 -0.9184
   31SAPC  H17Y 4224   4.104   3.186   8.822 -0.6830  0.8360  1.9407
   31SAPC  C318 4225   4.309   3.125   8.819  0.6328 -0.1089  0.3268
   31SAPC  H18X 4226   4.333   3.203   8.894  2.5722  0.9325 -1.2566
   31SAPC  H18Y 4227   4.356   3.146   8.721 -0.0967  0.2234  0.0444
   31SAPC  H18Z 4228   4.358   3.030   8.849 -2.0209 -2.0004 -0.9022
   32SAPC     N 4229   5.307   3.250   6.124  0.3741  0.3734 -0.4394
   32SAPC   C12 4230   5.339   3.198   6.262  0.3454 -0.0213 -0.4364
   32SAPC  H12A 4231   5.334   3.090   6.251  0.1911 -0.1937  1.0955
   32SAPC  H12B 4232   5.268   3.229   6.337  0.8862  1.4221 -0.4971
   32SAPC   C13 4233   5.173   3.215   6.080 -0.0324 -0.2712 -0.1302
   32SAPC  H13A 4234   5.100   3.256   6.149 -1.2611 -2.7173  0.1251
   32SAPC  H13B 4235   5.153   3.260   5.984  0.7285 -0.4180 -0.3655
   32SAPC  H13C 4236   5.158   3.110   6.062  0.8115 -0.1647 -1.6798
   32SAPC   C14 4237   5.326   3.400   6.122 -0.3276 -0.5109  0.1961
   32SAPC  H14A 4238   5.299   3.456   6.210  1.6853 -0.3581  0.7586
   32SAPC  H14B 4239   5.429   3.429   6.108 -0.9019  1.5439 -0.0601
   32SAPC  H14C 4240   5.277   3.444   6.036 -0.5626  0.4451  0.8105
   32SAPC   C15 4241   5.392   3.193   6.017  0.1227 -0.2040 -0.2426
   32SAPC  H15A 4242   5.497   3.201   6.040 -0.1082 -2.8796  2.4092
   32SAPC  H15B 4243   5.375   3.086   6.011  2.2027 -0.5694 -0.5694
   32SAPC  H15C 4244   5.360   3.237   5.924  3.0179  1.3660 -0.6024
   32SAPC   C11 4245   5.467   3.247   6.322 -0.5500  0.1377  0.6224
   32SAPC  H11A 4246   5.470   3.198   6.422 -1.4137 -1.0158  0.0936
   32SAPC  H11B 4247   5.456   3.356   6.341  3.0051  0.3078  2.6784
   32SAPC     P 4248   5.642   3.068   6.261  0.1504 -0.0890 -0.5991
   32SAPC   O13 4249   5.526   2.976   6.279  0.0239  0.1553  0.1226
   32SAPC   O14 4250   5.738   3.038   6.159 -0.4570  0.4857 -0.7687
   32SAPC   O12 4251   5.581   3.216   6.238  0.3505  0.0411 -0.5932
   32SAPC   O11 4252   5.721   3.085   6.398 -0.2900 -0.0415 -0.1756
   32SAPC    C1 4253   5.830   3.172   6.397  0.1892  0.6546  0.5444
   32SAPC    HA 4254   5.914   3.113   6.354  0.1489  0.4667  0.7228
   32SAPC    HB 4255   5.808   3.263   6.338  1.3438  0.2107 -0.6155
   32SAPC    C2 4256   5.878   3.219   6.538  0.6505 -0.0522 -0.1295
   32SAPC    HS 4257   5.968   3.284   6.530 -1.0479  2.4661  0.0513
   32SAPC   O21 4258   5.892   3.110   6.624  0.4098  0.3517  0.0504
   32SAPC   C21 4259   5.995   3.040   6.608  0.2389  0.1140  0.6990
   32SAPC   O22 4260   6.082   3.056   6.519  0.0890 -0.5300 -0.0686
   32SAPC   C22 4261   6.005   2.930   6.722  0.3262  0.1803  0.3954
   32SAPC   H2R 4262   5.901   2.901   6.749  0.8466 -2.2653 -0.0248
   32SAPC   H2S 4263   6.059   2.845   6.676 -2.4514 -1.4545 -0.0987
   32SAPC    C3 4264   5.772   3.310   6.602  0.4815 -0.0832 -0.5110
   32SAPC    HX 4265   5.675   3.261   6.579  0.3313 -0.8665  1.5236
   32SAPC    HY 4266   5.776   3.406   6.547 -1.2344  1.3315  1.6570
   32SAPC   O31 4267   5.793   3.326   6.746 -0.2409  0.2125  0.3434
   32SAPC   C31 4268   5.707   3.268   6.832  0.0470 -0.4513  0.0341
   32SAPC   O32 4269   5.601   3.215   6.807 -0.2305 -0.2624 -0.6348
   32SAPC   C32 4270   5.770   3.284   6.969 -0.0492  0.3166  0.3246
   32SAPC   H2X 4271   5.802   3.390   6.954 -0.6953  0.1156 -3.4483
   32SAPC   H2Y 4272   5.854   3.212   6.960 -1.2129 -1.0285 -0.1637
   32SAPC   C23 4273   6.074   2.978   6.846  0.0551 -0.8554  0.2353
   32SAPC   H3R 4274   6.022   3.074   6.865  0.5458 -0.3803 -0.7056
   32SAPC   H3S 4275   6.179   3.008   6.825 -0.0181 -1.0996 -0.5136
   32SAPC   C24 4276   6.080   2.873   6.947  0.1673 -0.3733 -0.6846
   32SAPC   H4R 4277   6.147   2.788   6.926  0.3905 -0.4437  0.2887
   32SAPC   H4S 4278   5.979   2.827   6.958 -0.4222  0.2984 -2.7678
   32SAPC   C25 4279   6.118   2.924   7.086 -0.5862 -0.7634 -0.4649
   32SAPC   H5R 4280   6.196   3.001   7.079  0.0322 -1.3628 -0.2941
   32SAPC   C26 4281   6.068   2.898   7.205  0.3057  0.2439 -0.3723
   32SAPC   H6R 4282   6.102   2.957   7.292  0.7175 -0.4212 -0.0718
   32SAPC   C27 4283   5.948   2.807   7.226 -0.2038  0.1569  0.4219
   32SAPC   H7R 4284   5.968   2.709   7.178 -0.2365 -0.7571  2.2085
   32SAPC   H7S 4285   5.866   2.846   7.162  0.1998  1.6723  0.7775
   32SAPC   C28 4286   5.909   2.798   7.371 -0.3836 -1.1018  0.6476
   32SAPC   H8R 4287   5.819   2.847   7.411 -0.1797  0.4607 -0.6997
   32SAPC   C29 4288   5.993   2.745   7.469 -0.1742  0.3203  0.0832
   32SAPC   H9R 4289   5.950   2.735   7.569 -0.9215 -2.1177 -0.4068
   32SAPC  C210 4290   6.127   2.676   7.446 -0.7647 -0.4455  0.0103
   32SAPC  H10R 4291   6.158   2.671   7.339 -3.4964  2.0883 -1.0562
   32SAPC  H10S 4292   6.116   2.567   7.467  0.2424 -0.1323  2.3400
   32SAPC  C211 4293   6.238   2.733   7.535  0.1678 -0.0178  0.3297
   32SAPC  H11R 4294   6.296   2.815   7.490 -0.2746 -0.2001 -0.6075
   32SAPC  C212 4295   6.262   2.695   7.659  0.3596 -0.1120 -0.4224
   32SAPC  H12R 4296   6.347   2.735   7.715 -1.7064 -0.6092  3.3938
   32SAPC  C213 4297   6.193   2.584   7.734 -0.2179  0.3521 -0.5084
   32SAPC  H13R 4298   6.272   2.530   7.790 -1.0394  0.1825  0.5284
   32SAPC  H13S 4299   6.156   2.506   7.664  0.8297  0.3477 -1.0755
   32SAPC  C214 4300   6.082   2.642   7.825 -0.4352 -0.1845 -0.2267
   32SAPC  H14R 4301   5.987   2.685   7.789  0.4917  0.1239 -2.4039
   32SAPC  C215 4302   6.111   2.654   7.957 -0.0077 -1.4098  0.0798
   32SAPC  H15R 4303   6.036   2.686   8.030  1.9627 -0.9470  1.9950
   32SAPC  C216 4304   6.248   2.629   8.022  0.0600 -0.4770  0.2514
   32SAPC  H16R 4305   6.324   2.702   7.987  1.1892 -1.2165  1.0735
   32SAPC  H16S 4306   6.293   2.532   7.990  1.0966 -0.3228  1.1972
   32SAPC  C217 4307   6.231   2.657   8.173  0.4555  0.1205 -0.1594
   32SAPC  H17R 4308   6.135   2.614   8.209 -1.0102  1.4303 -2.2882
   32SAPC  H17S 4309   6.216   2.764   8.201 -1.4689 -0.1924  0.1033
   32SAPC  C218 4310   6.349   2.606   8.258 -0.1336 -0.3065 -0.0959
   32SAPC  H18R 4311   6.374   2.506   8.216  2.8527 -0.1900  1.0929
   32SAPC  H18S 4312   6.311   2.578   8.359 -0.6725 -3.2941 -1.0329
   32SAPC  C219 4313   6.469   2.702   8.277 -0.1437 -0.1002  0.3037
   32SAPC  H19R 4314   6.529   2.667   8.364 -0.3833 -1.5466 -0.0876
   32SAPC  H19S 4315   6.432   2.803   8.304  1.8839  0.8017 -0.0720
   32SAPC  C220 4316   6.563   2.701   8.155 -0.3760 -0.9571  0.5099
   32SAPC  H20R 4317   6.514   2.749   8.067 -1.3884  0.7452  1.9293
   32SAPC  H20S 4318   6.584   2.593   8.146 -0.3120 -0.8058 -1.7972
   32SAPC  H20T 4319   6.657   2.756   8.176 -1.5047  1.3410 -0.0528
   32SAPC   C33 4320   5.672   3.258   7.084  0.3372 -0.6937  0.2310
   32SAPC   H3X 4321   5.563   3.270   7.067  0.3652 -0.6898  0.0507
   32SAPC   H3Y 4322   5.704   3.327   7.165 -0.7354 -0.9163  0.8571
   32SAPC   C34 4323   5.694   3.116   7.138  0.1664  0.8432  0.3495
   32SAPC   H4X 4324   5.802   3.093   7.154 -0.0578  0.5478  1.5890
   32SAPC   H4Y 4325   5.658   3.044   7.061  1.3524  0.1589  0.4008
   32SAPC   C35 4326   5.630   3.085   7.277  0.2091  0.3890 -0.3542
   32SAPC   H5X 4327   5.613   2.975   7.284  1.6396  0.2746  3.3378
   32SAPC   H5Y 4328   5.537   3.145   7.280  0.6470  1.0479  2.0577
   32SAPC   C36 4329   5.714   3.127   7.396 -0.0772  0.0056 -1.1015
   32SAPC   H6X 4330   5.758   3.227   7.376 -0.8181  0.2990 -1.2971
   32SAPC   H6Y 4331   5.804   3.062   7.401  1.2407  1.7392 -1.3750
   32SAPC   C37 4332   5.632   3.128   7.524  0.4938  0.6014  0.3207
   32SAPC   H7X 4333   5.680   3.043   7.578 -0.5097 -1.2572 -1.5764
   32SAPC   H7Y 4334   5.529   3.090   7.506  1.2942 -1.9055  0.6529
   32SAPC   C38 4335   5.633   3.258   7.605  0.0753 -0.8402 -0.1318
   32SAPC   H8X 4336   5.606   3.336   7.530 -0.9013  0.2332  1.2861
   32SAPC   H8Y 4337   5.735   3.278   7.646 -0.4529 -0.5142  1.0566
   32SAPC   C39 4338   5.534   3.289   7.721  0.1731 -0.3655  0.2781
   32SAPC   H9X 4339   5.428   3.297   7.690 -0.5800  0.5641  2.8584
   32SAPC   H9Y 4340   5.558   3.383   7.775  0.8986 -0.3949  0.0278
   32SAPC  C310 4341   5.554   3.190   7.834  0.1727  0.0750  0.2513
   32SAPC  H10X 4342   5.652   3.202   7.885  0.9506 -2.5724 -0.4335
   32SAPC  H10Y 4343   5.546   3.085   7.798  0.2407  0.5284 -1.1477
   32SAPC  C311 4344   5.440   3.208   7.939 -0.0228  0.0097 -0.0699
   32SAPC  H11X 4345   5.346   3.190   7.884 -1.3213  0.2667  1.9750
   32SAPC  H11Y 4346   5.437   3.314   7.970  0.6233  0.3030 -0.9616
   32SAPC  C312 4347   5.438   3.102   8.048 -0.7949  0.1415 -0.1485
   32SAPC  H12X 4348   5.456   2.997   8.015 -0.6960  0.3081 -0.6359
   32SAPC  H12Y 4349   5.339   3.112   8.099  0.0198  2.2946  1.1209
   32SAPC  C313 4350   5.537   3.132   8.161 -0.0397  0.5551 -0.1182
   32SAPC  H13X 4351   5.517   3.229   8.210  1.5967  0.6881  0.3402
   32SAPC  H13Y 4352   5.644   3.127   8.131 -0.8661 -1.6078 -3.2683
   32SAPC  C314 4353   5.521   3.035   8.283 -0.2697  0.0793 -0.0428
   32SAPC  H14X 4354   5.551   2.940   8.234 -0.1593 -0.4031  0.9435
   32SAPC  H14Y 4355   5.416   3.032   8.320  0.7394 -0.1570  3.0607
   32SAPC  C315 4356   5.615   3.050   8.408  0.6695 -0.0902  0.0932
   32SAPC  H15X 4357   5.716   3.078   8.369  0.2890  2.3232  0.7088
   32SAPC  H15Y 4358   5.635   2.947   8.445  0.3969  0.3437  1.5061
   32SAPC  C316 4359   5.554   3.158   8.504 -0.0569 -0.0509 -0.1570
   32SAPC  H16X 4360   5.535   3.254   8.452  1.4595 -0.8910 -2.4286
   32SAPC  H16Y 4361   5.642   3.186   8.566 -0.5680  0.3757  0.3899
   32SAPC  C317 4362   5.443   3.092   8.589  0.1314 -0.7715 -0.6659
   32SAPC  H17X 4363   5.475   2.986   8.600 -0.4850 -1.2623 -2.9910
   32SAPC  H17Y 4364   5.346   3.081   8.534 -1.0295  0.6255  1.0019
   32SAPC  C318 4365   5.415   3.156   8.726  0.1815  0.1349  0.2726
   32SAPC  H18X 4366   5.495   3.135   8.801 -0.9049 -2.8516  0.7342
   32SAPC  H18Y 4367   5.334   3.099   8.777  1.8007 -1.4547  1.2178
   32SAPC  H18Z 4368   5.377   3.260   8.722  0.7358  0.4564  2.1642
   33POPC     N 4369   0.979   5.945  10.905 -0.6886  0.3249 -0.1631
   33POPC   C12 4370   1.111   5.901  10.834 -0.1440  0.6230 -0.4176
   33POPC  H12A 4371   1.143   5.814  10.890 -1.0814 -0.3227 -1.3160
   33POPC  H12B 4372   1.177   5.986  10.835 -0.2456  0.7104  1.1253
   33POPC   C13 4373   0.937   6.076  10.852  0.0687  0.2755  0.2006
   33POPC  H13A 4374   0.928   6.074  10.744  0.4851 -3.2322  0.1161
   33POPC  H13B 4375   0.836   6.094  10.885  0.2139 -0.3440  1.0079
   33POPC  H13C 4376   1.000   6.161  10.874  0.1683  1.1218 -2.8987
   33POPC   C14 4377   0.875   5.848  10.871 -0.0470  0.2070  0.1499
   33POPC  H14A 4378   0.790   5.883  10.928  0.4638  0.0164  1.0505
   33POPC  H14B 4379   0.851   5.838  10.766 -1.2269 -0.3736  0.4555
   33POPC  H14C 4380   0.904   5.749  10.905  1.0653 -0.2569 -2.0009
   33POPC   C15 4381   0.995   5.954  11.061 -0.1082 -0.5199  0.5212
   33POPC  H15A 4382   1.076   6.022  11.085  0.7859 -0.6081 -1.9654
   33POPC  H15B 4383   1.018   5.854  11.096  0.6184 -0.4989  0.1286
   33POPC  H15C 4384   0.905   5.991  11.107  0.4356  0.9522  0.4773
   33POPC   C11 4385   1.117   5.849  10.686  0.2946  0.3588 -0.4081
   33POPC  H11A 4386   1.055   5.758  10.674 -0.3988  0.8252 -0.4441
   33POPC  H11B 4387   1.218   5.812  10.659  0.0319 -0.2326 -0.5923
   33POPC     P 4388   1.165   6.055  10.531 -0.0824 -0.2953 -0.4997
   33POPC   O13 4389   1.262   6.115  10.632 -0.3085 -0.1358  0.3818
   33POPC   O14 4390   1.079   6.156  10.466  0.4247  0.6396  0.2702
   33POPC   O12 4391   1.068   5.949  10.604  0.5931 -0.2114  0.1622
   33POPC   O11 4392   1.245   5.967  10.431  0.1430  0.0552 -0.4597
   33POPC    C1 4393   1.188   5.876  10.332 -0.3336 -0.5957  0.0127
   33POPC    HA 4394   1.166   5.781  10.386  2.7080 -0.9571  0.8329
   33POPC    HB 4395   1.099   5.920  10.283  1.5254  2.5500 -0.8576
   33POPC    C2 4396   1.291   5.830  10.218  1.0486 -0.5177 -0.4804
   33POPC    HS 4397   1.393   5.825  10.262  0.9563 -2.1681 -0.4256
   33POPC   O21 4398   1.281   5.919  10.105  0.2410  0.0823  0.1366
   33POPC   C21 4399   1.378   5.911  10.015 -0.7580 -0.3368  0.1506
   33POPC   O22 4400   1.488   5.869  10.045  0.1254  0.0633 -0.0145
   33POPC   C22 4401   1.351   5.966   9.877  0.5898  0.3389 -0.5569
   33POPC   H2R 4402   1.302   6.064   9.896 -1.7568 -0.7697 -0.6153
   33POPC   H2S 4403   1.294   5.893   9.816 -1.3609  1.3050  0.0509
   33POPC    C3 4404   1.266   5.683  10.157 -0.7226  0.2403 -0.6421
   33POPC    HX 4405   1.265   5.622  10.250  3.7070  2.3654  1.1350
   33POPC    HY 4406   1.352   5.656  10.092 -0.6611 -1.6391  0.1619
   33POPC   O31 4407   1.140   5.665  10.095 -0.3150  0.2497 -0.3908
   33POPC   C31 4408   1.134   5.650   9.963  0.5444 -0.6388 -0.0257
   33POPC   O32 4409   1.231   5.651   9.892  0.5089  0.4609  1.4610
   33POPC   C32 4410   0.986   5.658   9.919 -0.4191 -0.3935 -0.1906
   33POPC   H2X 4411   0.936   5.744   9.968  1.5223 -0.3926  1.9994
   33POPC   H2Y 4412   0.933   5.569   9.961 -0.9456  0.3144  0.6666
   33POPC   C23 4413   1.487   6.023   9.820  0.5844  0.0119  0.2409
   33POPC   H3R 4414   1.558   5.940   9.802 -0.2160 -0.3669 -1.4259
   33POPC   H3S 4415   1.531   6.099   9.888 -0.2874 -0.5700  1.5014
   33POPC   C24 4416   1.454   6.085   9.683  0.0860 -0.7285 -0.3062
   33POPC   H4R 4417   1.387   6.020   9.624 -0.7778 -1.5929  1.5324
   33POPC   H4S 4418   1.549   6.093   9.627  0.4670  0.8423  0.4892
   33POPC   C25 4419   1.389   6.217   9.695  0.1203 -0.3240  0.1346
   33POPC   H5R 4420   1.461   6.283   9.747  0.7970 -1.0628  0.1496
   33POPC   H5S 4421   1.302   6.219   9.764 -0.5890 -0.9649 -0.7202
   33POPC   C26 4422   1.353   6.267   9.551 -0.3793  0.5422 -0.5278
   33POPC   H6R 4423   1.285   6.189   9.511 -0.1713 -1.2158  2.2861
   33POPC   H6S 4424   1.448   6.272   9.495  0.7025 -0.3407  1.1653
   33POPC   C27 4425   1.287   6.402   9.548  0.7686  0.0692 -0.6747
   33POPC   H7R 4426   1.357   6.466   9.607 -0.6359  2.1434 -1.1226
   33POPC   H7S 4427   1.188   6.405   9.599  1.2445  2.4728  0.2772
   33POPC   C28 4428   1.275   6.469   9.407 -0.1913 -0.0031  0.0408
   33POPC   H8R 4429   1.262   6.577   9.430 -0.1317 -0.2359  1.2461
   33POPC   H8S 4430   1.190   6.432   9.346  0.6875 -0.6110 -0.8470
   33POPC   C29 4431   1.399   6.451   9.321 -0.1832  0.7364  0.9361
   33POPC   H91 4432   1.488   6.456   9.384 -0.4247 -1.0026  1.4873
   33POPC  C210 4433   1.411   6.406   9.190  0.2810  0.0664 -0.2335
   33POPC  H101 4434   1.515   6.391   9.157  0.1719  3.1348 -2.3838
   33POPC  C211 4435   1.296   6.367   9.099  0.3359  0.3897 -0.3210
   33POPC  H11R 4436   1.324   6.384   8.993  2.0042  0.3561  0.0985
   33POPC  H11S 4437   1.206   6.432   9.108  0.6147  1.1264 -2.4011
   33POPC  C212 4438   1.251   6.221   9.138  0.8911  0.5832 -0.6931
   33POPC  H12R 4439   1.166   6.176   9.084  0.9007 -0.8340  0.4269
   33POPC  H12S 4440   1.225   6.215   9.245 -0.1608 -2.1518 -1.0463
   33POPC  C213 4441   1.368   6.120   9.120  0.7265 -0.0429 -0.5651
   33POPC  H13R 4442   1.454   6.162   9.177 -0.9543  1.5908  0.9190
   33POPC  H13S 4443   1.378   6.124   9.010 -1.2539 -0.8434 -0.8204
   33POPC  C214 4444   1.335   5.984   9.177 -0.8011 -0.4683  0.0743
   33POPC  H14R 4445   1.387   5.910   9.113  1.6981  1.0554  0.2019
   33POPC  H14S 4446   1.225   5.969   9.177 -1.0186  0.9177 -0.8619
   33POPC  C215 4447   1.378   5.974   9.326 -0.3350  0.6656 -0.0781
   33POPC  H15R 4448   1.304   6.028   9.388  0.1959  0.2485  0.9475
   33POPC  H15S 4449   1.482   6.013   9.333  0.0105 -0.5471  2.0635
   33POPC  C216 4450   1.376   5.824   9.376 -0.7145  0.5638 -0.0255
   33POPC  H16R 4451   1.431   5.827   9.472 -0.8856  2.1165  0.0458
   33POPC  H16S 4452   1.427   5.763   9.298 -2.2493 -0.1014 -0.5443
   33POPC  C217 4453   1.236   5.770   9.413 -0.2101  0.1390  0.1754
   33POPC  H17R 4454   1.163   5.778   9.330  0.3992  4.1760 -0.1748
   33POPC  H17S 4455   1.192   5.820   9.502  0.7824 -0.4681  1.0242
   33POPC  C218 4456   1.247   5.624   9.446 -0.4912  0.4428  0.1751
   33POPC  H18R 4457   1.285   5.566   9.360 -1.0624 -1.1662  0.9592
   33POPC  H18S 4458   1.143   5.593   9.470 -0.1690  0.0412  1.1458
   33POPC  H18T 4459   1.311   5.600   9.534 -1.4739 -0.5862  0.6333
   33POPC   C33 4460   0.976   5.659   9.770 -0.1247  0.6355 -0.9561
   33POPC   H3X 4461   1.041   5.583   9.721  0.3142 -0.2084  0.8631
   33POPC   H3Y 4462   1.008   5.760   9.734  1.8172 -0.3219 -2.1137
   33POPC   C34 4463   0.830   5.626   9.728 -0.0319 -0.3193 -0.1980
   33POPC   H4X 4464   0.764   5.714   9.742  0.8793  0.5388 -1.0749
   33POPC   H4Y 4465   0.800   5.547   9.800 -1.0819  0.3948  0.1645
   33POPC   C35 4466   0.826   5.565   9.590 -0.1518  0.2902 -0.2470
   33POPC   H5X 4467   0.736   5.501   9.588 -1.0655  1.5433 -1.7253
   33POPC   H5Y 4468   0.908   5.491   9.584 -0.3269  0.1643 -1.2982
   33POPC   C36 4469   0.846   5.668   9.474  0.1928 -0.0965 -0.4166
   33POPC   H6X 4470   0.932   5.735   9.498  0.4142 -0.3936 -0.3724
   33POPC   H6Y 4471   0.747   5.718   9.478 -0.4450 -1.3687  0.5629
   33POPC   C37 4472   0.871   5.612   9.337  0.3671  0.0350  0.3469
   33POPC   H7X 4473   0.789   5.546   9.302  1.3755 -0.2672 -1.6104
   33POPC   H7Y 4474   0.961   5.550   9.319 -0.6096 -0.9153 -1.7041
   33POPC   C38 4475   0.866   5.722   9.229 -0.0967  0.3561 -0.6692
   33POPC   H8X 4476   0.930   5.809   9.253  3.1656 -2.3086  1.1358
   33POPC   H8Y 4477   0.761   5.753   9.208 -1.3097 -3.3382 -0.8558
   33POPC   C39 4478   0.942   5.679   9.104  0.7411  0.4547 -0.3606
   33POPC   H9X 4479   0.894   5.588   9.063  4.3876 -1.5401 -0.5943
   33POPC   H9Y 4480   1.039   5.636   9.137  0.8898  0.5400 -0.6923
   33POPC  C310 4481   0.971   5.783   8.997 -0.1724  0.1839 -0.2967
   33POPC  H10X 4482   1.021   5.727   8.915 -0.6030  1.4701 -1.4594
   33POPC  H10Y 4483   1.045   5.856   9.037 -2.8934  1.9474  1.8902
   33POPC  C311 4484   0.852   5.864   8.958  0.4748 -0.7037  0.2106
   33POPC  H11X 4485   0.816   5.932   9.038  0.1402 -0.8211  0.1635
   33POPC  H11Y 4486   0.772   5.790   8.933 -0.2477  0.0125  0.3405
   33POPC  C312 4487   0.880   5.961   8.837 -0.0880  1.0790 -0.0791
   33POPC  H12X 4488   0.959   5.906   8.782 -0.4961  1.0924 -0.6852
   33POPC  H12Y 4489   0.915   6.055   8.885 -0.3594  1.1959 -0.1043
   33POPC  C313 4490   0.754   5.990   8.751  0.4936  1.0581 -1.0111
   33POPC  H13X 4491   0.767   6.077   8.683  1.5732 -1.1459 -3.8405
   33POPC  H13Y 4492   0.683   6.017   8.831  0.6931 -1.8466  0.2584
   33POPC  C314 4493   0.702   5.879   8.663  0.4198  0.2685  0.2347
   33POPC  H14X 4494   0.614   5.915   8.605  0.1447  2.5284  1.8886
   33POPC  H14Y 4495   0.653   5.796   8.717 -3.1217  2.2742  0.4434
   33POPC  C315 4496   0.788   5.831   8.549  0.1060 -0.0023 -0.3534
   33POPC  H15X 4497   0.876   5.897   8.537 -0.9787  1.3573 -1.0314
   33POPC  H15Y 4498   0.730   5.830   8.455  1.2944  0.2742 -1.1027
   33POPC  C316 4499   0.836   5.687   8.564  0.3238  0.1422 -0.0430
   33POPC  H16X 4500   0.892   5.656   8.473 -0.3139 -1.9524  0.2398
   33POPC  H16Y 4501   0.746   5.626   8.583  1.3440 -1.6856 -0.8435
   33POPC  H16Z 4502   0.902   5.669   8.652 -3.1461  0.3487  2.8485
   34POPC     N 4503   2.023   5.444  10.409  0.4488  0.0749  0.1838
   34POPC   C12 4504   2.147   5.526  10.384  0.0990  0.4515 -0.3615
   34POPC  H12A 4505   2.183   5.477  10.294  0.2297  0.9529 -0.5868
   34POPC  H12B 4506   2.218   5.508  10.463 -0.9529  0.4030  0.5844
   34POPC   C13 4507   2.064   5.303  10.417  0.1388 -0.4323 -0.2496
   34POPC  H13A 4508   2.128   5.280  10.333 -0.1416  2.3622 -1.3325
   34POPC  H13B 4509   2.122   5.275  10.504  0.3273 -1.9111 -0.8219
   34POPC  H13C 4510   1.986   5.229  10.411  1.7538 -2.2501  0.1808
   34POPC   C14 4511   1.971   5.481  10.547  0.0957 -0.3905 -0.2859
   34POPC  H14A 4512   1.868   5.450  10.554 -0.2724  0.8040 -0.3011
   34POPC  H14B 4513   2.030   5.444  10.630 -1.0469 -1.7152 -0.0183
   34POPC  H14C 4514   1.974   5.589  10.546 -2.8244 -0.1787  1.1255
   34POPC   C15 4515   1.927   5.472  10.301 -0.3539 -0.2851  0.2703
   34POPC  H15A 4516   1.871   5.563  10.316 -1.2401 -0.7039 -0.3735
   34POPC  H15B 4517   1.845   5.401  10.295 -1.5863  1.0920  0.1274
   34POPC  H15C 4518   1.966   5.462  10.201 -0.3689 -0.2404  0.2598
   34POPC   C11 4519   2.122   5.676  10.365  0.7051  0.0146  0.1743
   34POPC  H11A 4520   2.033   5.693  10.300  0.5911  0.7588  0.5171
   34POPC  H11B 4521   2.209   5.726  10.319  1.8150 -1.0790  1.0220
   34POPC     P 4522   2.196   5.793  10.583 -0.6878 -0.2075  0.0133
   34POPC   O13 4523   2.312   5.698  10.588 -0.3867  0.0024  0.4115
   34POPC   O14 4524   2.130   5.834  10.706 -0.5842 -0.2054  0.1936
   34POPC   O12 4525   2.086   5.740  10.489 -0.1562  0.1262 -0.0253
   34POPC   O11 4526   2.245   5.913  10.499 -0.5605 -0.0008  0.1169
   34POPC    C1 4527   2.191   6.039  10.497  0.1866 -0.4289 -0.0904
   34POPC    HA 4528   2.265   6.112  10.457 -0.2522 -0.2559 -0.5921
   34POPC    HB 4529   2.153   6.076  10.595 -3.9138 -1.2664 -1.1826
   34POPC    C2 4530   2.071   6.041  10.409  0.4709  0.4536  0.7404
   34POPC    HS 4531   2.008   5.953  10.434  1.1849 -0.6384 -1.0648
   34POPC   O21 4532   2.115   6.026  10.274 -0.3856 -0.3388 -0.6369
   34POPC   C21 4533   2.030   5.970  10.188 -0.2146 -0.2997  0.0210
   34POPC   O22 4534   1.915   5.936  10.210  0.8889  0.2871 -1.0329
   34POPC   C22 4535   2.095   5.950  10.045 -0.1658  0.1506 -0.3884
   34POPC   H2R 4536   2.134   5.846  10.045 -3.8538 -1.3919 -0.9820
   34POPC   H2S 4537   2.179   6.021  10.030  3.0050 -2.7617  2.0994
   34POPC    C3 4538   1.995   6.176  10.418 -0.0013  0.0746 -0.5547
   34POPC    HX 4539   2.043   6.253  10.354  0.7116 -1.8534 -2.4225
   34POPC    HY 4540   1.997   6.216  10.522 -2.1843  0.2324 -0.5087
   34POPC   O31 4541   1.863   6.169  10.364 -0.1395 -0.1918 -0.2505
   34POPC   C31 4542   1.772   6.098  10.423 -0.3048 -0.0598 -0.0388
   34POPC   O32 4543   1.789   6.037  10.527  0.6279  0.4390  0.2626
   34POPC   C32 4544   1.641   6.094  10.348  0.0443  0.5808  0.6928
   34POPC   H2X 4545   1.604   5.992  10.369  1.7491 -0.1000  0.5565
   34POPC   H2Y 4546   1.666   6.087  10.240  1.6322 -0.2534  1.0841
   34POPC   C23 4547   1.989   5.972   9.922  0.5007  0.3762 -0.0655
   34POPC   H3R 4548   1.997   6.080   9.896 -2.6209  0.1615 -2.5373
   34POPC   H3S 4549   1.885   5.953   9.955  0.3909  0.5676 -0.2970
   34POPC   C24 4550   2.027   5.890   9.793  0.4946 -0.0548 -0.3326
   34POPC   H4R 4551   2.011   5.784   9.822 -1.1763  0.1087 -0.5562
   34POPC   H4S 4552   2.132   5.921   9.773  0.1752  2.8051  1.7941
   34POPC   C25 4553   1.943   5.922   9.676  0.0472 -0.4967  0.0549
   34POPC   H5R 4554   1.950   6.028   9.642 -2.4535  1.1896  3.9916
   34POPC   H5S 4555   1.836   5.907   9.703 -0.1267 -3.1475 -1.8015
   34POPC   C26 4556   1.975   5.829   9.564 -0.2051  0.5222 -0.5761
   34POPC   H6R 4557   1.964   5.723   9.595  1.6102 -0.0267 -1.6462
   34POPC   H6S 4558   2.079   5.845   9.528 -0.6977  1.0107 -1.8115
   34POPC   C27 4559   1.880   5.858   9.441  0.0592 -0.6100 -0.1600
   34POPC   H7R 4560   1.878   5.964   9.407 -0.0695 -0.9287 -1.1755
   34POPC   H7S 4561   1.775   5.850   9.476  0.8104 -0.1369  2.3584
   34POPC   C28 4562   1.901   5.775   9.316 -0.3242 -0.4219  1.2423
   34POPC   H8R 4563   1.910   5.667   9.339  1.1456 -0.0919  2.4134
   34POPC   H8S 4564   2.005   5.802   9.291  0.4571 -1.8261  2.8005
   34POPC   C29 4565   1.795   5.797   9.205  0.5053  0.3605 -0.7643
   34POPC   H91 4566   1.696   5.754   9.225  0.0304  2.3584  1.7092
   34POPC  C210 4567   1.816   5.854   9.089  0.5128 -0.1544 -0.2197
   34POPC  H101 4568   1.729   5.858   9.021  0.5276  2.4458 -0.1696
   34POPC  C211 4569   1.937   5.925   9.038  0.4679 -0.1382 -0.7617
   34POPC  H11R 4570   2.031   5.922   9.097 -0.1748  0.3160  0.3178
   34POPC  H11S 4571   1.924   6.035   9.041  0.1495 -0.1910  0.0892
   34POPC  C212 4572   1.961   5.878   8.892  0.3476  0.4404 -0.9349
   34POPC  H12R 4573   1.865   5.880   8.836 -0.0153 -3.5981 -0.7543
   34POPC  H12S 4574   1.982   5.769   8.889 -1.9205 -0.1115  0.5637
   34POPC  C213 4575   2.068   5.966   8.827  0.8257 -0.0222  0.7262
   34POPC  H13R 4576   2.158   5.988   8.889  1.2152 -0.9186  0.4985
   34POPC  H13S 4577   2.015   6.062   8.811 -0.3728 -0.4248  2.0536
   34POPC  C214 4578   2.130   5.897   8.699 -0.5061 -0.2218 -0.2114
   34POPC  H14R 4579   2.171   5.806   8.747  0.7560  0.8380  0.8112
   34POPC  H14S 4580   2.221   5.949   8.662 -0.1902 -1.6765 -1.5625
   34POPC  C215 4581   2.041   5.860   8.590 -0.7092  0.2017 -0.0009
   34POPC  H15R 4582   2.005   5.950   8.535  0.9568  0.6490 -0.4109
   34POPC  H15S 4583   1.953   5.801   8.625  0.9041 -0.1322  4.0271
   34POPC  C216 4584   2.119   5.759   8.496  0.4741 -0.0813 -0.6988
   34POPC  H16R 4585   2.040   5.717   8.429  1.0034  0.8602 -1.9647
   34POPC  H16S 4586   2.163   5.673   8.550  0.8724 -0.6831 -1.9270
   34POPC  C217 4587   2.223   5.827   8.402  0.0226  0.3106  0.1363
   34POPC  H17R 4588   2.289   5.888   8.467 -0.3778 -0.4693  1.3074
   34POPC  H17S 4589   2.152   5.888   8.342 -0.4922 -1.0491 -0.7003
   34POPC  C218 4590   2.295   5.721   8.320 -0.0895  0.0455  1.6053
   34POPC  H18R 4591   2.360   5.650   8.375 -1.4257 -1.6918  1.0486
   34POPC  H18S 4592   2.360   5.768   8.243  0.1816  0.1304  1.8887
   34POPC  H18T 4593   2.212   5.664   8.273 -0.2588  1.0188  0.6917
   34POPC   C33 4594   1.527   6.201  10.383 -0.4150  0.4819  0.3236
   34POPC   H3X 4595   1.537   6.236  10.487  0.8622 -0.0229  0.3906
   34POPC   H3Y 4596   1.438   6.142  10.351  1.4369 -0.8856 -2.8621
   34POPC   C34 4597   1.549   6.322  10.289  0.0169  0.0978  0.6844
   34POPC   H4X 4598   1.557   6.289  10.183  0.0631  1.3227  0.2947
   34POPC   H4Y 4599   1.638   6.379  10.323  0.4508  0.5582 -1.1339
   34POPC   C35 4600   1.441   6.427  10.294 -0.2519 -0.3512  0.3507
   34POPC   H5X 4601   1.420   6.449  10.400 -0.3144 -2.8145  0.9015
   34POPC   H5Y 4602   1.343   6.384  10.263 -0.6669  1.0055 -0.3010
   34POPC   C36 4603   1.478   6.556  10.210  1.6242 -0.3429  0.3442
   34POPC   H6X 4604   1.503   6.542  10.103  2.6886  4.3844 -0.2452
   34POPC   H6Y 4605   1.563   6.614  10.253  2.0315  3.3771 -4.6575
   34POPC   C37 4606   1.357   6.648  10.219  0.1394  0.5899 -0.1973
   34POPC   H7X 4607   1.340   6.678  10.325  1.8304 -0.0491  0.2914
   34POPC   H7Y 4608   1.268   6.586  10.195  1.7810 -1.0238 -2.5610
   34POPC   C38 4609   1.355   6.763  10.121 -0.0207 -0.0600  0.0930
   34POPC   H8X 4610   1.458   6.804  10.112  0.3914 -0.6974  1.5414
   34POPC   H8Y 4611   1.290   6.847  10.155  0.7962  1.0829 -1.0866
   34POPC   C39 4612   1.332   6.720   9.975 -0.4352 -0.1528  0.3187
   34POPC   H9X 4613   1.386   6.626   9.952  1.7932  0.7943  1.4208
   34POPC   H9Y 4614   1.371   6.805   9.915  0.2505 -0.6096  0.1156
   34POPC  C310 4615   1.178   6.718   9.945  0.4047  0.6710  0.9882
   34POPC  H10X 4616   1.134   6.816   9.976  0.6067  1.3201 -0.6637
   34POPC  H10Y 4617   1.139   6.632  10.003  1.9549 -0.9369 -0.2599
   34POPC  C311 4618   1.149   6.708   9.795 -0.2731 -0.0754 -0.1351
   34POPC  H11X 4619   1.203   6.621   9.750 -1.5930  0.4066 -2.8749
   34POPC  H11Y 4620   1.198   6.795   9.747 -0.4111  0.2869  0.3780
   34POPC  C312 4621   1.001   6.703   9.754 -0.3109  0.1456 -0.5915
   34POPC  H12X 4622   0.943   6.782   9.807 -0.9068  0.2526 -1.3802
   34POPC  H12Y 4623   0.944   6.611   9.783 -2.1150  0.8070 -1.8488
   34POPC  C313 4624   0.970   6.730   9.604 -0.1638 -0.4601 -0.4134
   34POPC  H13X 4625   0.983   6.634   9.548 -1.8652 -0.4750 -0.8472
   34POPC  H13Y 4626   1.047   6.802   9.569  0.7793 -1.5912 -0.7518
   34POPC  C314 4627   0.826   6.771   9.578 -0.2068 -0.3967  0.3246
   34POPC  H14X 4628   0.801   6.844   9.658  0.6678  1.9680 -1.4475
   34POPC  H14Y 4629   0.753   6.688   9.589 -0.3341 -0.4438 -0.7829
   34POPC  C315 4630   0.799   6.830   9.445 -0.7622  0.5558  0.2755
   34POPC  H15X 4631   0.871   6.908   9.414  0.1634  0.0702  1.1674
   34POPC  H15Y 4632   0.704   6.886   9.458 -0.5644  0.7778  0.7968
   34POPC  C316 4633   0.780   6.726   9.332 -0.2156  0.2754 -0.3601
   34POPC  H16X 4634   0.781   6.774   9.232  0.3334 -1.6349 -1.3148
   34POPC  H16Y 4635   0.683   6.672   9.340 -0.5828  1.1738  2.2510
   34POPC  H16Z 4636   0.859   6.649   9.334 -0.4787 -0.0456  2.5527
   35POPC     N 4637   1.096   1.920  10.706 -0.0467  0.0199  0.6793
   35POPC   C12 4638   0.957   1.979  10.686  0.4569 -0.1558 -0.1235
   35POPC  H12A 4639   0.893   1.922  10.752  1.8373 -1.6076  0.0353
   35POPC  H12B 4640   0.927   1.942  10.589  2.2540 -0.9317 -0.4151
   35POPC   C13 4641   1.148   1.925  10.847 -0.4192 -0.7319 -0.3788
   35POPC  H13A 4642   1.144   2.024  10.890 -0.1068 -0.0748 -1.8092
   35POPC  H13B 4643   1.098   1.854  10.912  1.6690 -1.5219  0.4795
   35POPC  H13C 4644   1.250   1.889  10.846 -0.3725 -0.5915 -0.6007
   35POPC   C14 4645   1.086   1.779  10.661  0.2556  0.2511  0.5529
   35POPC  H14A 4646   1.035   1.763  10.567  0.0045 -3.6216  1.1927
   35POPC  H14B 4647   1.183   1.734  10.646 -1.0585 -1.8829 -2.8252
   35POPC  H14C 4648   1.027   1.717  10.727 -0.2596 -0.4756 -0.5399
   35POPC   C15 4649   1.186   1.995  10.615 -0.1801  0.7708  0.1419
   35POPC  H15A 4650   1.270   1.928  10.600 -1.9172 -1.7395  0.8680
   35POPC  H15B 4651   1.216   2.089  10.658  0.6513  0.8062 -0.4908
   35POPC  H15C 4652   1.141   2.003  10.517 -0.3024 -3.5539 -0.3732
   35POPC   C11 4653   0.931   2.128  10.691 -0.0555 -0.2129 -0.0172
   35POPC  H11A 4654   0.821   2.143  10.690 -0.0528  0.9769  3.5446
   35POPC  H11B 4655   0.964   2.184  10.601  0.1708  0.4005  0.4395
   35POPC     P 4656   0.919   2.243  10.929  0.2541 -0.5341 -0.5729
   35POPC   O13 4657   1.021   2.320  11.009  0.0849  1.2292  0.4270
   35POPC   O14 4658   0.841   2.140  10.999 -0.5836  0.2567  0.1279
   35POPC   O12 4659   0.997   2.182  10.806 -0.2544  0.0313  0.0943
   35POPC   O11 4660   0.809   2.337  10.860 -0.0910 -0.7468  0.7366
   35POPC    C1 4661   0.842   2.456  10.799  0.0579 -0.1661  0.5434
   35POPC    HA 4662   0.947   2.469  10.764  0.4790  0.1939  1.8912
   35POPC    HB 4663   0.818   2.533  10.875 -2.2642  1.7020 -1.8637
   35POPC    C2 4664   0.749   2.476  10.676 -1.2399 -0.1069 -0.2477
   35POPC    HS 4665   0.652   2.448  10.722 -1.2546  0.6448  0.1928
   35POPC   O21 4666   0.788   2.377  10.567 -0.5053 -1.0077 -0.5304
   35POPC   C21 4667   0.686   2.337  10.493  0.4171  0.3501 -0.4621
   35POPC   O22 4668   0.574   2.372  10.507  0.3734 -0.7229 -0.2973
   35POPC   C22 4669   0.739   2.237  10.388  0.4055 -0.3221  0.1014
   35POPC   H2R 4670   0.727   2.133  10.424  4.4580 -0.6271  1.0363
   35POPC   H2S 4671   0.844   2.266  10.366  0.9062 -2.0444  0.0795
   35POPC    C3 4672   0.763   2.623  10.635  0.6194  0.1008  1.1703
   35POPC    HX 4673   0.866   2.638  10.595 -0.2864  0.0790 -1.3773
   35POPC    HY 4674   0.746   2.685  10.725 -1.5534  1.9047 -0.3655
   35POPC   O31 4675   0.655   2.655  10.541 -0.3804  0.6111  0.5214
   35POPC   C31 4676   0.652   2.765  10.479 -0.0557  0.2717 -0.1804
   35POPC   O32 4677   0.741   2.851  10.467  0.3085 -0.0078  0.1488
   35POPC   C32 4678   0.517   2.791  10.419  0.4527  0.4142  0.1813
   35POPC   H2X 4679   0.523   2.882  10.356 -3.0841  0.2067 -0.6550
   35POPC   H2Y 4680   0.437   2.818  10.491 -1.1392 -2.8250 -0.1787
   35POPC   C23 4681   0.676   2.262  10.242 -0.0105  0.1262  0.8099
   35POPC   H3R 4682   0.739   2.239  10.154  2.2287  3.6975  1.2627
   35POPC   H3S 4683   0.648   2.369  10.227 -3.2893 -0.9421 -2.1005
   35POPC   C24 4684   0.549   2.183  10.220 -1.3396 -0.1695 -0.0177
   35POPC   H4R 4685   0.466   2.223  10.282 -2.1915  2.6202 -2.6737
   35POPC   H4S 4686   0.566   2.075  10.240 -2.1226 -0.2998 -0.0250
   35POPC   C25 4687   0.485   2.204  10.080  0.4404  0.3786  0.4816
   35POPC   H5R 4688   0.454   2.311  10.072  1.8039  0.6987 -0.9671
   35POPC   H5S 4689   0.384   2.158  10.090  0.4376  0.7097  2.3916
   35POPC   C26 4690   0.572   2.145   9.961 -0.4760 -0.3290  0.5750
   35POPC   H6R 4691   0.588   2.037   9.980 -1.2067  0.0507  3.9672
   35POPC   H6S 4692   0.668   2.200   9.951  0.3521 -1.2694  2.6383
   35POPC   C27 4693   0.488   2.165   9.833 -1.2039 -0.0073 -0.2596
   35POPC   H7R 4694   0.469   2.271   9.805  2.9541  1.0043  0.1107
   35POPC   H7S 4695   0.391   2.118   9.860 -0.7515 -0.2125  1.1103
   35POPC   C28 4696   0.547   2.091   9.714 -0.2738 -0.2016 -0.5455
   35POPC   H8R 4697   0.472   2.066   9.636  0.4730 -1.9182 -0.7591
   35POPC   H8S 4698   0.573   1.987   9.744 -1.9786 -1.3483 -2.7599
   35POPC   C29 4699   0.668   2.173   9.664 -0.0942 -0.6190 -1.0947
   35POPC   H91 4700   0.744   2.187   9.742 -1.5239 -2.6685  0.8022
   35POPC  C210 4701   0.681   2.217   9.539  0.3512 -0.1659  0.1564
   35POPC  H101 4702   0.773   2.270   9.511  1.6117 -1.3387  1.8984
   35POPC  C211 4703   0.583   2.211   9.429  0.4454 -0.0413  0.1124
   35POPC  H11R 4704   0.485   2.237   9.474  0.9346  1.5571  0.3281
   35POPC  H11S 4705   0.578   2.109   9.385 -2.8807  0.4199 -0.8572
   35POPC  C212 4706   0.607   2.327   9.324  0.3852 -0.0154  0.2638
   35POPC  H12R 4707   0.613   2.429   9.368  1.0615 -0.6489  1.7165
   35POPC  H12S 4708   0.512   2.326   9.266  0.4708 -2.2238  0.1135
   35POPC  C213 4709   0.728   2.325   9.227  0.2069  0.3550 -0.6211
   35POPC  H13R 4710   0.818   2.364   9.279  0.9920 -0.1985 -1.5423
   35POPC  H13S 4711   0.708   2.378   9.131 -1.6663  1.1577  0.1672
   35POPC  C214 4712   0.759   2.184   9.178  0.4132  0.2546 -0.1483
   35POPC  H14R 4713   0.660   2.139   9.153  0.7201 -0.9492  0.7437
   35POPC  H14S 4714   0.791   2.123   9.265 -2.2592 -1.2150 -0.0933
   35POPC  C215 4715   0.851   2.171   9.052  0.6316 -0.4017 -0.4827
   35POPC  H15R 4716   0.950   2.221   9.065  0.9138 -1.1035  0.2098
   35POPC  H15S 4717   0.793   2.223   8.974  0.1150 -1.0508 -0.5364
   35POPC  C216 4718   0.895   2.030   9.006  0.3982  0.5628 -0.6024
   35POPC  H16R 4719   0.952   1.985   9.090  1.2594  1.3802 -0.7275
   35POPC  H16S 4720   0.965   2.044   8.921 -0.2606  0.3323 -1.1965
   35POPC  C217 4721   0.782   1.942   8.965  0.7119 -0.2843 -0.8002
   35POPC  H17R 4722   0.707   1.950   9.046  0.8427  0.5970 -0.7481
   35POPC  H17S 4723   0.807   1.834   8.962 -0.2828 -0.5020 -1.4370
   35POPC  C218 4724   0.714   1.980   8.836 -0.7398  0.6781 -0.3119
   35POPC  H18R 4725   0.766   1.936   8.748  3.5163 -0.5990  2.5640
   35POPC  H18S 4726   0.711   2.091   8.833  2.8912  0.9609  1.3309
   35POPC  H18T 4727   0.612   1.936   8.829 -1.0992  1.3868  0.3327
   35POPC   C33 4728   0.459   2.676  10.324  0.3582  0.8187  0.5732
   35POPC   H3X 4729   0.348   2.674  10.329  0.1868  1.9324 -1.5342
   35POPC   H3Y 4730   0.502   2.575  10.340 -0.2141  0.6832  1.3309
   35POPC   C34 4731   0.472   2.709  10.168 -0.0153  0.1773  0.1130
   35POPC   H4X 4732   0.571   2.752  10.143  0.7712 -2.2339 -1.2992
   35POPC   H4Y 4733   0.398   2.789  10.149  0.8707  1.5809  2.1817
   35POPC   C35 4734   0.450   2.595  10.064 -0.1272 -0.6798 -0.1811
   35POPC   H5X 4735   0.347   2.556  10.077 -0.2210 -0.0778  1.0944
   35POPC   H5Y 4736   0.514   2.509  10.092  0.8886  0.2026  0.2884
   35POPC   C36 4737   0.472   2.639   9.915  0.3157  0.0572  0.5211
   35POPC   H6X 4738   0.415   2.732   9.898 -1.0001 -1.2986 -3.4775
   35POPC   H6Y 4739   0.429   2.557   9.854  0.5035  2.1839 -2.6569
   35POPC   C37 4740   0.618   2.667   9.863  0.1420 -0.1693  0.4084
   35POPC   H7X 4741   0.681   2.576   9.875  1.1877  0.3765 -0.8475
   35POPC   H7Y 4742   0.666   2.745   9.925 -3.3137  3.1025 -0.6489
   35POPC   C38 4743   0.628   2.723   9.719  0.7542  0.0203 -0.5219
   35POPC   H8X 4744   0.714   2.792   9.706  0.6482 -0.0430 -1.7316
   35POPC   H8Y 4745   0.536   2.783   9.702 -1.1182 -1.8822  2.2278
   35POPC   C39 4746   0.635   2.618   9.609  0.7972 -0.1815 -0.6978
   35POPC   H9X 4747   0.538   2.564   9.609  0.9584 -0.4878  0.3588
   35POPC   H9Y 4748   0.712   2.544   9.639  0.5297  0.0442  0.6040
   35POPC  C310 4749   0.642   2.686   9.470  0.4220  0.7665 -0.1342
   35POPC  H10X 4750   0.681   2.614   9.395 -1.4281  0.2007 -0.5984
   35POPC  H10Y 4751   0.702   2.778   9.482 -1.8817  2.3846 -0.5051
   35POPC  C311 4752   0.507   2.719   9.410 -0.3128  0.8203 -0.2269
   35POPC  H11X 4753   0.464   2.808   9.462 -1.3037  1.3064 -1.8010
   35POPC  H11Y 4754   0.435   2.634   9.412  0.8177 -0.2969 -2.8931
   35POPC  C312 4755   0.524   2.757   9.263  0.6630 -0.2818 -0.8607
   35POPC  H12X 4756   0.602   2.837   9.258 -0.4859  1.1248  1.7249
   35POPC  H12Y 4757   0.433   2.816   9.239  1.1544  0.5790 -0.6764
   35POPC  C313 4758   0.552   2.646   9.168  0.1827 -0.6052 -0.7562
   35POPC  H13X 4759   0.491   2.560   9.202 -0.7601 -0.1973 -1.3828
   35POPC  H13Y 4760   0.657   2.613   9.181  0.3180 -0.8310 -2.2604
   35POPC  C314 4761   0.512   2.680   9.022 -0.9803  0.0858 -0.1414
   35POPC  H14X 4762   0.401   2.689   9.020 -0.9903 -0.1169 -0.8711
   35POPC  H14Y 4763   0.544   2.605   8.947 -0.6537  0.6188 -0.5417
   35POPC  C315 4764   0.566   2.814   8.979 -0.0866 -0.2184 -0.3786
   35POPC  H15X 4765   0.530   2.897   9.045  0.5755  0.4394 -0.8216
   35POPC  H15Y 4766   0.535   2.836   8.874 -1.7599  0.9798  0.3111
   35POPC  C316 4767   0.717   2.823   8.977  0.1754 -0.2193  0.8696
   35POPC  H16X 4768   0.755   2.842   9.080  1.2883  0.9080  0.2741
   35POPC  H16Y 4769   0.753   2.904   8.910  0.2186 -1.5555 -0.7768
   35POPC  H16Z 4770   0.755   2.723   8.947 -1.0804 -0.6441  0.6284
   36POPC     N 4771   0.973   0.814  11.256  0.0239  0.8198  0.2627
   36POPC   C12 4772   1.060   0.930  11.208  0.5294  0.6697 -0.1435
   36POPC  H12A 4773   1.160   0.890  11.219 -0.5074 -1.4271  3.0902
   36POPC  H12B 4774   1.038   1.010  11.278 -2.9408  1.3857 -1.8571
   36POPC   C13 4775   0.995   0.697  11.164  0.3012  0.8862  0.0592
   36POPC  H13A 4776   0.970   0.703  11.060  0.3227 -1.4725 -0.1380
   36POPC  H13B 4777   1.094   0.657  11.179 -0.3334 -1.4058 -1.4531
   36POPC  H13C 4778   0.926   0.619  11.191  0.3146  0.0170 -2.2132
   36POPC   C14 4779   1.027   0.777  11.394  0.4161  0.7515 -0.4945
   36POPC  H14A 4780   1.127   0.742  11.377 -0.4816 -1.7644 -1.1139
   36POPC  H14B 4781   1.003   0.856  11.463 -1.0673 -0.1303  0.0620
   36POPC  H14C 4782   0.981   0.684  11.426  2.0205  0.2836  0.5658
   36POPC   C15 4783   0.824   0.840  11.246 -0.3425 -0.0341 -0.2630
   36POPC  H15A 4784   0.773   0.754  11.286  0.2985 -0.2906  0.0216
   36POPC  H15B 4785   0.786   0.866  11.148 -1.1210 -0.7067 -0.1477
   36POPC  H15C 4786   0.792   0.919  11.313 -0.0607  0.1815 -0.3796
   36POPC   C11 4787   1.045   1.002  11.064 -0.3713  0.1110 -0.4057
   36POPC  H11A 4788   1.129   1.073  11.047  0.0071 -0.2292  0.0085
   36POPC  H11B 4789   0.949   1.057  11.063 -1.2734 -1.3743  0.5379
   36POPC     P 4790   1.158   0.907  10.845  0.3287 -0.3403  0.3004
   36POPC   O13 4791   1.136   0.794  10.754 -0.7533 -0.2335 -0.3958
   36POPC   O14 4792   1.294   0.916  10.907  0.1926  0.1009 -0.4407
   36POPC   O12 4793   1.043   0.904  10.963  0.2811 -0.6828 -0.3190
   36POPC   O11 4794   1.134   1.044  10.767  0.2120 -0.1108  0.4788
   36POPC    C1 4795   1.012   1.101  10.722 -0.0054 -0.2969  0.3665
   36POPC    HA 4796   1.033   1.202  10.681 -1.5109 -0.8329 -1.9179
   36POPC    HB 4797   0.934   1.105  10.801 -2.3696 -1.1019 -1.7978
   36POPC    C2 4798   0.954   1.018  10.606  0.1209  0.9317 -0.2029
   36POPC    HS 4799   0.931   0.920  10.654  2.4535  0.4804  0.1400
   36POPC   O21 4800   1.050   1.017  10.498  0.0284  0.2259  0.1677
   36POPC   C21 4801   1.043   0.928  10.407  0.0088 -0.2930  0.0460
   36POPC   O22 4802   0.978   0.823  10.404  0.1049 -0.3537 -0.5616
   36POPC   C22 4803   1.148   0.981  10.305 -0.1946  0.1354  0.4599
   36POPC   H2R 4804   1.170   0.883  10.256 -0.7643 -0.4789  1.4058
   36POPC   H2S 4805   1.234   1.030  10.354  2.4375 -1.1694 -2.5298
   36POPC    C3 4806   0.826   1.093  10.560 -0.6288 -0.5379 -0.6578
   36POPC    HX 4807   0.863   1.186  10.511 -0.1222 -1.5002 -2.1642
   36POPC    HY 4808   0.759   1.105  10.648  0.1271  0.9056 -0.2420
   36POPC   O31 4809   0.756   1.032  10.452  0.2469  0.3119  0.2465
   36POPC   C31 4810   0.628   0.991  10.469  0.1387  0.3193  0.3602
   36POPC   O32 4811   0.561   1.012  10.566 -0.1802  0.5616  0.0619
   36POPC   C32 4812   0.586   0.915  10.350  0.1576  0.2481  0.4060
   36POPC   H2X 4813   0.658   0.832  10.332 -0.7724 -0.8121  1.4009
   36POPC   H2Y 4814   0.590   0.991  10.269  3.2189  0.0760  0.2683
   36POPC   C23 4815   1.091   1.064  10.194 -0.2268 -0.1661 -0.1292
   36POPC   H3R 4816   1.079   1.167  10.234  3.0596  0.6129 -0.7872
   36POPC   H3S 4817   1.005   1.016  10.142  0.0125 -0.5456 -0.1774
   36POPC   C24 4818   1.194   1.097  10.077  0.2267 -0.3021 -0.0159
   36POPC   H4R 4819   1.295   1.085  10.123  0.8434 -0.2904 -1.3169
   36POPC   H4S 4820   1.171   1.202  10.049 -0.9272 -0.4158  0.4554
   36POPC   C25 4821   1.182   1.007   9.957  0.3449  0.0401 -0.0214
   36POPC   H5R 4822   1.079   1.015   9.917  0.6257  0.7070 -0.6385
   36POPC   H5S 4823   1.206   0.903   9.989  2.6095  1.0141  1.8074
   36POPC   C26 4824   1.268   1.029   9.840 -0.3685 -0.2756  0.0076
   36POPC   H6R 4825   1.374   1.010   9.869 -0.5895  1.2142  2.0909
   36POPC   H6S 4826   1.255   1.129   9.793 -1.7395 -0.5313 -0.2002
   36POPC   C27 4827   1.229   0.942   9.723 -0.9502  0.0911 -0.4637
   36POPC   H7R 4828   1.124   0.957   9.690  0.2041  0.4860 -4.3966
   36POPC   H7S 4829   1.252   0.836   9.748  0.8144  0.9738  2.0484
   36POPC   C28 4830   1.321   0.955   9.595 -0.0019  0.4187 -0.0707
   36POPC   H8R 4831   1.287   0.877   9.523  1.8277  1.5134 -2.2420
   36POPC   H8S 4832   1.420   0.921   9.633 -0.0161 -0.8990 -1.1506
   36POPC   C29 4833   1.333   1.087   9.518  0.4003  0.3278 -0.6362
   36POPC   H91 4834   1.337   1.177   9.581  0.5849 -0.2279  0.1529
   36POPC  C210 4835   1.322   1.097   9.384 -0.5445 -0.4826 -0.3544
   36POPC  H101 4836   1.327   1.201   9.349 -2.4440 -0.1662  0.1970
   36POPC  C211 4837   1.314   0.992   9.285  0.7236 -0.4353  0.4387
   36POPC  H11R 4838   1.221   0.937   9.314  2.0933 -2.4454  1.2399
   36POPC  H11S 4839   1.401   0.926   9.307  0.0596 -1.2173  0.7979
   36POPC  C212 4840   1.288   1.048   9.145 -0.6579 -0.4708 -0.1973
   36POPC  H12R 4841   1.200   1.116   9.144 -0.3821 -0.0967  0.4316
   36POPC  H12S 4842   1.276   0.967   9.070  2.0139 -1.7350  0.6052
   36POPC  C213 4843   1.406   1.128   9.087 -0.7773 -0.6778  1.0042
   36POPC  H13R 4844   1.496   1.064   9.102 -0.8360 -1.5550 -1.8482
   36POPC  H13S 4845   1.419   1.225   9.140  2.1396 -0.2353 -0.3183
   36POPC  C214 4846   1.393   1.143   8.941  0.7429  0.6303 -0.2126
   36POPC  H14R 4847   1.293   1.186   8.918  1.0484  1.2812 -0.3611
   36POPC  H14S 4848   1.392   1.050   8.881 -2.0609  0.8843 -0.6924
   36POPC  C215 4849   1.502   1.242   8.887  0.7200  0.5049  0.0481
   36POPC  H15R 4850   1.599   1.189   8.881 -0.6708 -2.1551 -0.5831
   36POPC  H15S 4851   1.514   1.328   8.957 -2.5125  0.4916  0.7824
   36POPC  C216 4852   1.467   1.315   8.754 -0.5525  0.2604 -0.0629
   36POPC  H16R 4853   1.532   1.404   8.738  2.6013 -1.9321 -0.3959
   36POPC  H16S 4854   1.359   1.340   8.763 -0.8928 -1.9936  3.9847
   36POPC  C217 4855   1.486   1.232   8.629  0.3096  0.4460  0.2349
   36POPC  H17R 4856   1.422   1.142   8.647 -1.2215  1.1146 -1.6289
   36POPC  H17S 4857   1.595   1.219   8.615  0.5923  1.8621  0.9507
   36POPC  C218 4858   1.435   1.282   8.498 -0.5587  0.0993  0.4524
   36POPC  H18R 4859   1.330   1.316   8.497 -0.1367  1.4674 -1.1363
   36POPC  H18S 4860   1.435   1.213   8.410 -0.4191  1.0116 -0.2787
   36POPC  H18T 4861   1.498   1.373   8.482  1.7201 -1.3765  0.4527
   36POPC   C33 4862   0.444   0.845  10.355  0.6805 -0.5641  0.0885
   36POPC   H3X 4863   0.360   0.915  10.379  0.9006 -0.1090 -0.4539
   36POPC   H3Y 4864   0.437   0.786  10.449  1.1271 -1.3181 -0.3506
   36POPC   C34 4865   0.410   0.765  10.230  0.6561 -0.0390 -0.3616
   36POPC   H4X 4866   0.319   0.709  10.261 -0.8315  0.5976 -3.2687
   36POPC   H4Y 4867   0.489   0.689  10.211 -0.1037 -1.5444  1.9722
   36POPC   C35 4868   0.369   0.842  10.111 -0.9123 -0.0444 -0.3073
   36POPC   H5X 4869   0.436   0.924  10.078 -0.4196  0.1891  1.1697
   36POPC   H5Y 4870   0.278   0.895  10.148  1.9764  3.2482  2.8710
   36POPC   C36 4871   0.335   0.753   9.989  0.0942 -0.4847  0.6373
   36POPC   H6X 4872   0.263   0.670  10.006 -0.9913  0.0773 -1.0182
   36POPC   H6Y 4873   0.435   0.717   9.958  0.2530  0.9340 -0.5998
   36POPC   C37 4874   0.289   0.843   9.870 -0.6207 -0.2379  0.2310
   36POPC   H7X 4875   0.371   0.912   9.844  0.0260 -1.2089 -0.3937
   36POPC   H7Y 4876   0.212   0.909   9.915  1.9578  2.1382  1.4334
   36POPC   C38 4877   0.241   0.767   9.752 -0.1133 -0.5475 -0.4358
   36POPC   H8X 4878   0.140   0.731   9.783  0.2048 -1.3026 -0.2718
   36POPC   H8Y 4879   0.294   0.672   9.733 -0.6843 -1.1821  1.0078
   36POPC   C39 4880   0.218   0.846   9.626 -0.0358 -0.4267 -0.2091
   36POPC   H9X 4881   0.312   0.904   9.615  0.2894 -0.4295  2.0257
   36POPC   H9Y 4882   0.148   0.928   9.653  1.9302  1.3487 -0.2611
   36POPC  C310 4883   0.179   0.771   9.501 -0.2228 -0.9959  0.7707
   36POPC  H10X 4884   0.084   0.720   9.527 -0.3748  0.7973  4.3545
   36POPC  H10Y 4885   0.257   0.695   9.479  0.9589  1.0206 -2.8266
   36POPC  C311 4886   0.165   0.872   9.387  0.3386 -0.0508 -0.2404
   36POPC  H11X 4887   0.267   0.896   9.349  0.3000  1.0020  0.2869
   36POPC  H11Y 4888   0.126   0.969   9.424  0.3157  0.4690 -1.5489
   36POPC  C312 4889   0.089   0.812   9.265 -0.0512  0.0518  0.0156
   36POPC  H12X 4890  -0.011   0.767   9.282 -0.6805  1.6160  0.6950
   36POPC  H12Y 4891   0.147   0.725   9.229 -0.2452 -0.4221  0.8104
   36POPC  C313 4892   0.087   0.913   9.149  0.3123 -0.0785  0.1014
   36POPC  H13X 4893   0.184   0.967   9.138  0.8927 -1.0674  0.1728
   36POPC  H13Y 4894   0.004   0.981   9.175  1.2208  0.8172  0.7365
   36POPC  C314 4895   0.065   0.839   9.011  0.0002 -0.0748 -0.4568
   36POPC  H14X 4896  -0.029   0.783   9.032 -1.6481  2.1879 -1.4943
   36POPC  H14Y 4897   0.151   0.772   8.992 -1.3936 -1.2758 -2.9821
   36POPC  C315 4898   0.045   0.934   8.894  0.1733 -0.2418  0.9199
   36POPC  H15X 4899   0.133   1.001   8.889 -1.1139  1.4799  0.0021
   36POPC  H15Y 4900  -0.047   0.995   8.910 -0.8028 -1.1876 -0.7332
   36POPC  C316 4901   0.026   0.878   8.753 -0.1322 -0.1636 -0.7928
   36POPC  H16X 4902  -0.048   0.795   8.751  0.8184 -1.0473 -0.2790
   36POPC  H16Y 4903   0.125   0.846   8.712  0.4656  2.8008 -1.8710
   36POPC  H16Z 4904  -0.012   0.960   8.690 -0.9168  0.8724  0.9636
   37POPC     N 4905   0.523   3.638   6.637  0.0925  0.3839  0.0265
   37POPC   C12 4906   0.489   3.534   6.745 -0.3506  0.0793  0.6570
   37POPC  H12A 4907   0.398   3.487   6.711 -0.5469  0.5181  0.5706
   37POPC  H12B 4908   0.470   3.588   6.837  0.7773  0.0107  0.9472
   37POPC   C13 4909   0.618   3.739   6.685 -0.1628  0.1102 -0.2005
   37POPC  H13A 4910   0.587   3.781   6.779  0.4952 -1.1927  0.6249
   37POPC  H13B 4911   0.711   3.694   6.716  0.7850  1.7209 -0.5710
   37POPC  H13C 4912   0.634   3.818   6.612 -0.3683 -0.0011 -0.3660
   37POPC   C14 4913   0.562   3.582   6.496 -0.1037 -0.1849 -0.9455
   37POPC  H14A 4914   0.590   3.669   6.438  1.7351 -0.0208  0.1049
   37POPC  H14B 4915   0.649   3.518   6.496 -0.3773 -0.5569 -1.0085
   37POPC  H14C 4916   0.479   3.523   6.459 -0.3411 -0.6167  0.2446
   37POPC   C15 4917   0.396   3.715   6.614 -0.8339 -0.1556 -0.1011
   37POPC  H15A 4918   0.352   3.752   6.705  0.1762 -0.3152  0.4747
   37POPC  H15B 4919   0.333   3.642   6.564  0.0006  0.9447 -2.9701
   37POPC  H15C 4920   0.413   3.792   6.540  0.6108 -1.8882 -1.6826
   37POPC   C11 4921   0.597   3.427   6.780  0.5178 -0.5910 -0.5609
   37POPC  H11A 4922   0.605   3.358   6.693 -2.5435 -0.2476 -1.2382
   37POPC  H11B 4923   0.564   3.370   6.869  2.1367 -2.0491 -0.8382
   37POPC     P 4924   0.853   3.400   6.791  0.1425  0.0380 -0.0633
   37POPC   O13 4925   0.954   3.481   6.717  0.7121 -0.1535  0.0606
   37POPC   O14 4926   0.826   3.264   6.744  0.1127  0.2654  0.1640
   37POPC   O12 4927   0.719   3.486   6.817 -0.9278 -0.0621 -0.4325
   37POPC   O11 4928   0.911   3.394   6.938 -0.2499 -0.2360  0.0439
   37POPC    C1 4929   0.860   3.290   7.023  0.2485  0.6221 -1.2041
   37POPC    HA 4930   0.897   3.189   6.996  0.0936  0.2748 -0.1627
   37POPC    HB 4931   0.749   3.294   7.025  0.1018 -0.4010  2.9057
   37POPC    C2 4932   0.909   3.315   7.180  0.1135  0.3060  0.5185
   37POPC    HS 4933   0.880   3.229   7.244 -1.8399  1.3888  1.1675
   37POPC   O21 4934   0.851   3.437   7.230  0.1838  0.6012  0.3820
   37POPC   C21 4935   0.729   3.429   7.266  0.5181  0.3205  0.2163
   37POPC   O22 4936   0.661   3.330   7.247 -0.3254 -0.3071 -0.0298
   37POPC   C22 4937   0.682   3.560   7.325 -0.3342  0.3247 -0.1085
   37POPC   H2R 4938   0.597   3.593   7.261 -1.0799  0.6289  0.9986
   37POPC   H2S 4939   0.765   3.631   7.307  1.6013 -2.1484 -1.5233
   37POPC    C3 4940   1.064   3.327   7.179  0.3270  0.1829  0.6643
   37POPC    HX 4941   1.083   3.429   7.140  0.2678 -0.9226 -2.4752
   37POPC    HY 4942   1.105   3.245   7.116  0.7877 -1.6795  3.2145
   37POPC   O31 4943   1.124   3.310   7.312 -0.3167  0.3703  0.8215
   37POPC   C31 4944   1.130   3.184   7.353  0.3866  0.5646 -0.4481
   37POPC   O32 4945   1.092   3.089   7.291  0.0088  0.3277 -0.3590
   37POPC   C32 4946   1.202   3.171   7.481  0.8540  0.2731 -0.6074
   37POPC   H2X 4947   1.306   3.210   7.475  0.3179  1.9715  0.3873
   37POPC   H2Y 4948   1.206   3.061   7.493 -3.2572 -0.1558 -1.7388
   37POPC   C23 4949   0.653   3.545   7.474  0.2295 -0.3062 -0.3361
   37POPC   H3R 4950   0.576   3.468   7.495 -1.0627  0.8877 -0.5634
   37POPC   H3S 4951   0.612   3.643   7.504 -0.7816  0.0829 -2.7527
   37POPC   C24 4952   0.781   3.519   7.559  0.1900  0.2028 -0.0144
   37POPC   H4R 4953   0.852   3.604   7.544 -2.1484  2.2160 -0.3168
   37POPC   H4S 4954   0.841   3.438   7.513 -2.0435 -0.6344 -1.6279
   37POPC   C25 4955   0.739   3.475   7.697  0.1475 -0.0273 -0.6607
   37POPC   H5R 4956   0.693   3.375   7.702  0.1046 -0.0680 -1.7371
   37POPC   H5S 4957   0.678   3.548   7.754 -0.8408 -1.1340 -0.2744
   37POPC   C26 4958   0.869   3.457   7.783  0.7103  0.0208 -0.7086
   37POPC   H6R 4959   0.935   3.546   7.768  0.2522  0.1480 -2.1948
   37POPC   H6S 4960   0.923   3.371   7.738  0.6441  0.0794 -0.9006
   37POPC   C27 4961   0.842   3.437   7.930 -0.4894  0.3830 -1.3740
   37POPC   H7R 4962   0.775   3.348   7.931  1.4077 -1.1593 -3.1075
   37POPC   H7S 4963   0.773   3.518   7.965  0.1059  0.7055 -0.9254
   37POPC   C28 4964   0.955   3.409   8.026  0.3212  0.5678 -0.0445
   37POPC   H8R 4965   1.040   3.473   7.996 -0.1329  1.0531 -0.3013
   37POPC   H8S 4966   0.988   3.306   8.001  2.7613  0.7353  2.0446
   37POPC   C29 4967   0.907   3.418   8.166 -0.0707  0.1276 -0.1320
   37POPC   H91 4968   0.798   3.409   8.178  0.0146  0.5266  1.1124
   37POPC  C210 4969   0.978   3.469   8.271 -0.1340 -0.5576 -0.0974
   37POPC  H101 4970   0.923   3.465   8.366  2.5750 -0.1683  1.5924
   37POPC  C211 4971   1.121   3.516   8.285  0.3619  0.6895  0.0571
   37POPC  H11R 4972   1.134   3.595   8.362 -0.5062  0.1391  0.7869
   37POPC  H11S 4973   1.163   3.556   8.190  1.3853 -0.7600 -0.1352
   37POPC  C212 4974   1.234   3.412   8.320 -0.3443 -0.3828 -0.9775
   37POPC  H12R 4975   1.259   3.356   8.227 -1.6026 -0.4116 -1.3233
   37POPC  H12S 4976   1.211   3.335   8.397  0.0528  2.7876  2.5988
   37POPC  C213 4977   1.347   3.500   8.370 -1.0434 -0.5673 -0.3481
   37POPC  H13R 4978   1.344   3.597   8.315  2.0001 -0.2709 -0.1308
   37POPC  H13S 4979   1.439   3.442   8.349 -1.5286 -1.6434  0.4502
   37POPC  C214 4980   1.344   3.522   8.525 -0.3698  0.1509  0.3727
   37POPC  H14R 4981   1.363   3.426   8.576  0.5586  0.3038  0.3330
   37POPC  H14S 4982   1.248   3.569   8.554 -0.4131  1.8670 -2.1897
   37POPC  C215 4983   1.450   3.618   8.570  0.1982 -0.3907  0.0614
   37POPC  H15R 4984   1.442   3.717   8.520 -1.7651 -0.9571 -0.8607
   37POPC  H15S 4985   1.547   3.575   8.535 -1.2030 -3.2637 -0.6341
   37POPC  C216 4986   1.451   3.627   8.724 -0.2756  0.1528 -0.0008
   37POPC  H16R 4987   1.497   3.529   8.751  0.4256  0.2882 -0.6707
   37POPC  H16S 4988   1.351   3.640   8.771  0.5404 -1.6482  2.4817
   37POPC  C217 4989   1.525   3.748   8.789 -0.3031  1.0033  0.3318
   37POPC  H17R 4990   1.483   3.837   8.738  0.3363 -0.1133 -2.2823
   37POPC  H17S 4991   1.630   3.725   8.762 -0.3366 -1.6834  2.0498
   37POPC  C218 4992   1.485   3.741   8.936 -0.4809 -0.4323 -0.0686
   37POPC  H18R 4993   1.525   3.825   8.997  1.9810 -1.8911  0.4597
   37POPC  H18S 4994   1.526   3.646   8.977  1.5305 -0.3907 -1.8259
   37POPC  H18T 4995   1.376   3.752   8.952 -0.2613 -0.4678  1.6600
   37POPC   C33 4996   1.142   3.257   7.587 -0.3157 -0.2268 -0.5489
   37POPC   H3X 4997   1.047   3.221   7.634  0.0007 -0.0580  0.2480
   37POPC   H3Y 4998   1.116   3.354   7.541 -2.4230 -1.4973 -2.2065
   37POPC   C34 4999   1.231   3.282   7.712 -0.0153 -0.5249  0.4466
   37POPC   H4X 5000   1.172   3.327   7.795  2.1427  0.4077  1.5422
   37POPC   H4Y 5001   1.309   3.355   7.685  1.2219 -0.4168  3.7760
   37POPC   C35 5002   1.285   3.154   7.771 -0.2271  0.9835  0.5117
   37POPC   H5X 5003   1.375   3.124   7.715 -1.3253 -2.5509  0.3762
   37POPC   H5Y 5004   1.206   3.075   7.768 -2.9680  3.4437  1.8486
   37POPC   C36 5005   1.312   3.178   7.927  0.3761  0.2460  0.8774
   37POPC   H6X 5006   1.222   3.208   7.985  0.2306  1.7862 -0.0993
   37POPC   H6Y 5007   1.394   3.252   7.935  0.5523 -0.0134  1.5411
   37POPC   C37 5008   1.380   3.059   7.998  0.0363 -0.1517 -0.7903
   37POPC   H7X 5009   1.469   3.026   7.940  0.6472  1.6739 -0.9703
   37POPC   H7Y 5010   1.306   2.980   8.019 -0.6499  0.6974  0.0648
   37POPC   C38 5011   1.428   3.109   8.141 -0.0018  0.0974 -0.1639
   37POPC   H8X 5012   1.346   3.155   8.201  0.4844  1.3135 -0.4169
   37POPC   H8Y 5013   1.502   3.189   8.120 -0.2883  0.9228  1.7244
   37POPC   C39 5014   1.502   3.007   8.225 -1.2995  0.8999 -0.5026
   37POPC   H9X 5015   1.564   3.067   8.295 -0.7584 -0.8546  0.5833
   37POPC   H9Y 5016   1.582   2.956   8.167  0.8222  1.1110  2.0774
   37POPC  C310 5017   1.417   2.911   8.305  0.3162 -0.7291 -0.3734
   37POPC  H10X 5018   1.355   2.853   8.234 -0.5203  0.3301 -0.5494
   37POPC  H10Y 5019   1.356   2.980   8.369 -0.1641 -2.4785  1.1297
   37POPC  C311 5020   1.500   2.816   8.396 -0.4387  0.4909  0.1147
   37POPC  H11X 5021   1.439   2.747   8.456  0.6954 -2.0381 -1.4722
   37POPC  H11Y 5022   1.557   2.885   8.463 -3.2890  1.3809  1.7879
   37POPC  C312 5023   1.609   2.733   8.322  0.0034  0.0605  0.0932
   37POPC  H12X 5024   1.700   2.797   8.310  2.0930 -2.7922 -0.4596
   37POPC  H12Y 5025   1.580   2.693   8.222  3.5589 -2.4144 -0.1556
   37POPC  C313 5026   1.667   2.604   8.391 -0.1481  0.1068  0.7513
   37POPC  H13X 5027   1.749   2.555   8.334 -2.0656 -1.7587 -0.5299
   37POPC  H13Y 5028   1.574   2.544   8.384  0.2329 -0.3752 -0.5054
   37POPC  C314 5029   1.707   2.618   8.538 -0.0265  0.2149  0.1562
   37POPC  H14X 5030   1.742   2.519   8.575 -1.2319  0.7966  3.1472
   37POPC  H14Y 5031   1.620   2.648   8.600  0.0059 -1.3455  1.0066
   37POPC  C315 5032   1.818   2.721   8.556  0.4730  0.4080  0.3289
   37POPC  H15X 5033   1.788   2.819   8.512  1.9722  1.5457  1.7449
   37POPC  H15Y 5034   1.908   2.689   8.499 -0.3720  0.5309 -1.1402
   37POPC  C316 5035   1.855   2.747   8.701  0.7134 -0.5518 -0.3464
   37POPC  H16X 5036   1.904   2.662   8.754 -0.2461 -1.8441 -1.4473
   37POPC  H16Y 5037   1.769   2.772   8.766 -0.5458 -3.5460 -0.6853
   37POPC  H16Z 5038   1.920   2.837   8.703 -0.2481  0.1466 -0.2050
   38POPC     N 5039   0.855   0.226   5.906 -0.2546  0.1926 -0.2425
   38POPC   C12 5040   0.951   0.262   6.020  0.6196  0.0137  0.5465
   38POPC  H12A 5041   0.900   0.316   6.098  0.3595  0.4084  0.1108
   38POPC  H12B 5042   1.015   0.336   5.974 -1.3920 -1.0452 -4.7047
   38POPC   C13 5043   0.758   0.123   5.958  0.7867 -0.5219 -0.3214
   38POPC  H13A 5044   0.685   0.168   6.024  0.8157  0.1465 -0.7310
   38POPC  H13B 5045   0.699   0.080   5.878  3.1067  1.3143 -3.2460
   38POPC  H13C 5046   0.812   0.042   6.004  0.9366 -0.6762 -0.7701
   38POPC   C14 5047   0.777   0.344   5.859 -0.0504 -0.1769 -0.6995
   38POPC  H14A 5048   0.708   0.307   5.784  0.6243  0.0746 -1.4554
   38POPC  H14B 5049   0.713   0.380   5.938  0.6174  0.5731 -0.4817
   38POPC  H14C 5050   0.849   0.421   5.834  1.3186 -1.1397  0.1464
   38POPC   C15 5051   0.929   0.173   5.787  0.0596  0.1304 -0.1504
   38POPC  H15A 5052   1.002   0.243   5.749  0.7777 -1.3917 -1.7334
   38POPC  H15B 5053   0.869   0.164   5.698  1.6079 -1.5673 -1.1044
   38POPC  H15C 5054   0.972   0.074   5.793 -4.7934 -2.1990  1.3724
   38POPC   C11 5055   1.037   0.147   6.080  0.6034 -0.1638  0.4303
   38POPC  H11A 5056   1.121   0.190   6.139  2.9174 -4.5008  0.6473
   38POPC  H11B 5057   1.078   0.093   5.992 -2.6736  1.6966 -2.4803
   38POPC     P 5058   1.026  -0.071   6.229  0.3455  0.0496 -0.4173
   38POPC   O13 5059   1.098  -0.147   6.131 -0.1697 -0.1464  0.7159
   38POPC   O14 5060   0.918  -0.150   6.293  0.2650 -0.4702  0.1744
   38POPC   O12 5061   0.959   0.053   6.161  0.0181  0.4272 -0.0695
   38POPC   O11 5062   1.121  -0.022   6.342  0.8076  0.2504 -1.0304
   38POPC    C1 5063   1.263  -0.007   6.311  0.3144 -0.8229 -0.2658
   38POPC    HA 5064   1.294   0.082   6.370 -1.9067  0.4330 -0.8813
   38POPC    HB 5065   1.293   0.026   6.210  2.8098  0.2418  0.7429
   38POPC    C2 5066   1.344  -0.120   6.361 -0.4661 -0.1785  0.5688
   38POPC    HS 5067   1.310  -0.206   6.299  1.1933  0.8521 -1.8972
   38POPC   O21 5068   1.309  -0.137   6.504  0.7747  0.6339 -0.0890
   38POPC   C21 5069   1.364  -0.246   6.564  0.2850  0.8809 -0.0999
   38POPC   O22 5070   1.438  -0.328   6.514  0.2056  0.1040 -0.4769
   38POPC   C22 5071   1.312  -0.240   6.703 -0.3790 -0.2137 -0.4039
   38POPC   H2R 5072   1.204  -0.266   6.710 -1.0949  2.6134  0.4124
   38POPC   H2S 5073   1.315  -0.137   6.744  1.3339 -0.0041 -0.9758
   38POPC    C3 5074   1.496  -0.084   6.341 -0.4708  0.6524  0.0957
   38POPC    HX 5075   1.532  -0.046   6.242  0.7946  3.1059  1.3912
   38POPC    HY 5076   1.561  -0.174   6.346 -1.2619 -0.1115 -2.1326
   38POPC   O31 5077   1.530   0.024   6.428 -0.2379 -0.3115 -0.5864
   38POPC   C31 5078   1.648   0.035   6.478  0.7525  0.5207 -0.4990
   38POPC   O32 5079   1.739  -0.045   6.471  0.1334 -0.2333 -0.6851
   38POPC   C32 5080   1.643   0.172   6.543 -0.6821  0.2625 -0.8774
   38POPC   H2X 5081   1.540   0.210   6.561 -1.1754 -0.6092 -1.8208
   38POPC   H2Y 5082   1.711   0.235   6.481  0.0866 -1.1744 -1.5236
   38POPC   C23 5083   1.401  -0.328   6.787 -0.0142 -0.0673  0.1908
   38POPC   H3R 5084   1.506  -0.293   6.798 -0.3360  0.8781  0.3568
   38POPC   H3S 5085   1.409  -0.428   6.739 -2.7244  0.7239 -2.1223
   38POPC   C24 5086   1.336  -0.356   6.919  0.0949  0.2774 -0.1080
   38POPC   H4R 5087   1.234  -0.397   6.900 -0.1709  0.9563 -0.1698
   38POPC   H4S 5088   1.329  -0.263   6.978  2.6360  1.1735 -1.0784
   38POPC   C25 5089   1.418  -0.460   7.002  0.1020 -0.4212 -0.3609
   38POPC   H5R 5090   1.525  -0.430   7.007  0.0096  0.0157 -0.8872
   38POPC   H5S 5091   1.424  -0.556   6.946  2.7593 -0.8826  0.5678
   38POPC   C26 5092   1.354  -0.484   7.143 -0.5352  1.1291 -0.2752
   38POPC   H6R 5093   1.260  -0.543   7.135  0.9296 -1.5101  0.9300
   38POPC   H6S 5094   1.340  -0.380   7.180  2.9040  1.9063 -0.8457
   38POPC   C27 5095   1.454  -0.553   7.237 -0.0734  0.2355  0.3823
   38POPC   H7R 5096   1.537  -0.486   7.270  0.9417 -1.3555  1.1542
   38POPC   H7S 5097   1.503  -0.638   7.185  1.2959  2.1149 -1.5682
   38POPC   C28 5098   1.382  -0.604   7.363 -0.4129  0.4020 -0.3982
   38POPC   H8R 5099   1.459  -0.651   7.428  0.2448 -0.5932 -1.8344
   38POPC   H8S 5100   1.306  -0.684   7.351  0.4839 -0.4077 -0.8579
   38POPC   C29 5101   1.314  -0.492   7.435 -0.3326 -0.4349 -0.3678
   38POPC   H91 5102   1.380  -0.427   7.493 -2.1397  1.1403  0.0378
   38POPC  C210 5103   1.180  -0.474   7.466  0.2001  0.1310  0.3838
   38POPC  H101 5104   1.144  -0.394   7.533 -1.9628 -0.7481  0.3284
   38POPC  C211 5105   1.069  -0.559   7.418  0.1276 -0.2371 -0.7930
   38POPC  H11R 5106   1.016  -0.603   7.505  1.5282 -1.7823 -0.6685
   38POPC  H11S 5107   1.102  -0.645   7.357 -0.2576 -1.8915  1.1979
   38POPC  C212 5108   0.960  -0.481   7.341  0.4744  0.3036  0.2179
   38POPC  H12R 5109   0.920  -0.399   7.403 -0.6895  0.6992 -1.0011
   38POPC  H12S 5110   0.874  -0.547   7.316  1.5529 -0.4488 -1.7564
   38POPC  C213 5111   1.005  -0.405   7.213 -0.0635 -0.0332 -0.2847
   38POPC  H13R 5112   1.030  -0.471   7.127  0.9704  0.0857 -0.0954
   38POPC  H13S 5113   1.090  -0.335   7.233 -2.4706  2.1952  3.2718
   38POPC  C214 5114   0.888  -0.315   7.157  0.4038  0.1929 -0.6554
   38POPC  H14R 5115   0.840  -0.262   7.241 -2.0238 -2.6333 -0.1128
   38POPC  H14S 5116   0.812  -0.388   7.121  0.1737  0.9114 -1.6992
   38POPC  C215 5117   0.932  -0.215   7.049 -0.7269 -0.6850  0.0654
   38POPC  H15R 5118   0.974  -0.263   6.958  2.0178 -0.6141  1.1785
   38POPC  H15S 5119   1.012  -0.148   7.087 -0.7303 -0.0405 -1.0396
   38POPC  C216 5120   0.818  -0.130   7.000 -0.4386  0.0126  0.3562
   38POPC  H16R 5121   0.863  -0.038   6.955 -0.0436 -1.2257 -1.9243
   38POPC  H16S 5122   0.775  -0.088   7.093  3.3324  1.4043  1.6919
   38POPC  C217 5123   0.729  -0.200   6.898  0.6997  0.8131 -0.4852
   38POPC  H17R 5124   0.668  -0.278   6.949 -0.3076  2.4653  1.0045
   38POPC  H17S 5125   0.791  -0.246   6.819  0.4504 -0.4387  0.0297
   38POPC  C218 5126   0.631  -0.103   6.826  0.2052 -0.6332  0.4045
   38POPC  H18R 5127   0.566  -0.051   6.899  2.1043 -0.1996  1.8510
   38POPC  H18S 5128   0.566  -0.157   6.753  0.4143 -0.6592  0.2356
   38POPC  H18T 5129   0.688  -0.030   6.765  0.3000 -1.5219 -0.6003
   38POPC   C33 5130   1.702   0.157   6.686 -0.7584 -0.2162  0.1934
   38POPC   H3X 5131   1.728   0.252   6.737 -1.2448  0.0875 -0.1081
   38POPC   H3Y 5132   1.798   0.102   6.677 -0.4960  0.2026  0.4288
   38POPC   C34 5133   1.607   0.083   6.784 -0.1499  0.2506  0.6830
   38POPC   H4X 5134   1.607  -0.023   6.749 -1.1972  0.4081  0.1505
   38POPC   H4Y 5135   1.500   0.113   6.775 -0.2771  0.9286  3.6696
   38POPC   C35 5136   1.641   0.101   6.933  0.1016 -0.0506  0.5900
   38POPC   H5X 5137   1.642   0.210   6.955  1.0189 -0.0174  0.4252
   38POPC   H5Y 5138   1.741   0.056   6.952 -0.4567 -0.1275  3.9783
   38POPC   C36 5139   1.547   0.032   7.038 -0.1803  0.3459  0.0483
   38POPC   H6X 5140   1.548  -0.080   7.036  0.2372  0.3461  0.1510
   38POPC   H6Y 5141   1.445   0.071   7.015  0.6171  1.9264 -0.9790
   38POPC   C37 5142   1.570   0.075   7.183  0.3607 -0.3980 -0.4782
   38POPC   H7X 5143   1.492   0.024   7.243  0.5294  0.6377  0.6527
   38POPC   H7Y 5144   1.544   0.183   7.190 -0.2123 -0.4747 -1.2924
   38POPC   C38 5145   1.717   0.049   7.227  0.4199 -0.3391  0.6504
   38POPC   H8X 5146   1.801   0.082   7.162  1.1577 -1.0884  1.2038
   38POPC   H8Y 5147   1.730  -0.061   7.232 -1.9025 -0.7535 -0.7809
   38POPC   C39 5148   1.750   0.104   7.367  0.4193 -0.8740  0.1793
   38POPC   H9X 5149   1.690   0.061   7.451  1.7200 -0.9086  1.1305
   38POPC   H9Y 5150   1.741   0.214   7.374 -1.1026 -1.0396  1.2885
   38POPC  C310 5151   1.896   0.076   7.397 -0.5053  0.1698  0.2908
   38POPC  H10X 5152   1.947   0.129   7.313 -3.6280  0.3425 -1.6228
   38POPC  H10Y 5153   1.934  -0.028   7.390  0.6432  0.6739 -2.3713
   38POPC  C311 5154   1.925   0.133   7.537  0.2440 -0.3758  0.0370
   38POPC  H11X 5155   1.850   0.086   7.604 -0.9526  3.1450  1.3810
   38POPC  H11Y 5156   1.910   0.242   7.547  1.8085 -0.2690  1.8418
   38POPC  C312 5157   2.068   0.100   7.566 -0.3306 -0.0301  0.0950
   38POPC  H12X 5158   2.147   0.107   7.488  1.7785 -2.4456  1.8568
   38POPC  H12Y 5159   2.064  -0.006   7.598 -1.6811 -0.1887 -0.5207
   38POPC  C313 5160   2.112   0.164   7.698  0.0007 -0.2015 -0.1196
   38POPC  H13X 5161   2.039   0.137   7.777 -1.2507  0.9523 -0.8501
   38POPC  H13Y 5162   2.099   0.274   7.687 -0.1204 -0.1781  0.2512
   38POPC  C314 5163   2.251   0.139   7.742 -0.2894  0.4418  0.0898
   38POPC  H14X 5164   2.269   0.191   7.839 -0.3547 -0.6103  0.6810
   38POPC  H14Y 5165   2.309   0.179   7.657 -1.8538  0.0493 -1.2093
   38POPC  C315 5166   2.292  -0.007   7.764 -0.3339 -0.4171  0.0415
   38POPC  H15X 5167   2.260  -0.063   7.674 -1.1051 -0.1152  0.1211
   38POPC  H15Y 5168   2.241  -0.050   7.853  1.3055 -0.0634  1.2094
   38POPC  C316 5169   2.435  -0.024   7.809  0.2536  0.4186 -0.2922
   38POPC  H16X 5170   2.468   0.038   7.895 -1.9402 -1.1621  1.8234
   38POPC  H16Y 5171   2.520  -0.012   7.739  1.2245  0.2191  0.8183
   38POPC  H16Z 5172   2.442  -0.127   7.850 -0.1785  0.0577 -1.0980
   39POPC     N 5173   5.922   5.405   6.183 -0.0893  0.8456  0.3731
   39POPC   C12 5174   5.926   5.473   6.050 -0.4074  0.4136  0.5283
   39POPC  H12A 5175   6.030   5.483   6.023 -0.5875  0.5428 -0.1480
   39POPC  H12B 5176   5.893   5.575   6.051  0.8255  0.8696 -1.0131
   39POPC   C13 5177   5.792   5.422   6.246 -0.5643  0.1265  0.0163
   39POPC  H13A 5178   5.756   5.522   6.264 -0.2775  0.3775 -0.7960
   39POPC  H13B 5179   5.725   5.369   6.181  0.8104 -0.4162 -1.0022
   39POPC  H13C 5180   5.788   5.365   6.339  0.3818 -0.2715 -0.1719
   39POPC   C14 5181   5.955   5.259   6.175  0.1828  0.1472  0.7128
   39POPC  H14A 5182   5.963   5.212   6.272 -1.3050  0.5385  1.0455
   39POPC  H14B 5183   5.877   5.206   6.121  2.7009 -0.5729 -2.5701
   39POPC  H14C 5184   6.039   5.235   6.112 -1.5573 -1.8717 -1.0110
   39POPC   C15 5185   6.036   5.453   6.272 -0.0326 -0.4675  0.9114
   39POPC  H15A 5186   6.125   5.421   6.220 -0.7797  0.4942 -1.0357
   39POPC  H15B 5187   6.027   5.393   6.361  0.4249 -0.4636  0.9644
   39POPC  H15C 5188   6.037   5.560   6.287 -1.5583 -0.4010  0.7220
   39POPC   C11 5189   5.855   5.396   5.924 -0.1627  0.3051 -0.3847
   39POPC  H11A 5190   5.911   5.307   5.892 -2.2174 -1.0103 -0.5256
   39POPC  H11B 5191   5.844   5.474   5.846 -2.3963 -1.4770 -1.9928
   39POPC     P 5192   5.665   5.221   5.969  0.2054 -0.4250 -0.1753
   39POPC   O13 5193   5.776   5.119   5.987 -0.3274  0.1219  0.4745
   39POPC   O14 5194   5.586   5.201   5.844  0.7302  0.1010  0.0058
   39POPC   O12 5195   5.718   5.368   5.957  0.3813 -0.2113  0.1138
   39POPC   O11 5196   5.575   5.215   6.094 -0.0836 -0.4311 -0.0919
   39POPC    C1 5197   5.524   5.081   6.128  0.0842 -0.6409  0.3849
   39POPC    HA 5198   5.576   4.997   6.078  1.5887  0.7218 -0.4425
   39POPC    HB 5199   5.419   5.068   6.093  0.8782 -2.0386 -1.6571
   39POPC    C2 5200   5.544   5.052   6.281 -0.5717  0.1945  0.4160
   39POPC    HS 5201   5.506   4.949   6.301  0.7271 -0.2425  0.7267
   39POPC   O21 5202   5.467   5.155   6.361  0.2939  0.4427 -0.1807
   39POPC   C21 5203   5.347   5.119   6.386  0.2057 -0.0597  0.2976
   39POPC   O22 5204   5.295   5.014   6.343  0.2010 -0.0651  0.2357
   39POPC   C22 5205   5.271   5.217   6.480 -0.1331  0.0216  0.3319
   39POPC   H2R 5206   5.181   5.254   6.427 -1.2066 -2.0762  0.6184
   39POPC   H2S 5207   5.345   5.299   6.495  2.1366 -1.7518 -0.4998
   39POPC    C3 5208   5.686   5.053   6.324 -0.2909 -0.7525 -0.3214
   39POPC    HX 5209   5.743   5.136   6.275  2.1349 -3.3498 -2.2538
   39POPC    HY 5210   5.735   4.969   6.269 -0.8105 -0.9126 -0.5467
   39POPC   O31 5211   5.693   5.026   6.463 -0.9381  0.1002  0.4608
   39POPC   C31 5212   5.734   5.123   6.546 -0.1862 -0.0680  0.4546
   39POPC   O32 5213   5.755   5.244   6.520  0.0977  0.3386  0.4026
   39POPC   C32 5214   5.738   5.080   6.682  0.6570  0.1827 -0.6802
   39POPC   H2X 5215   5.791   4.982   6.687 -1.2716 -0.8747  0.7033
   39POPC   H2Y 5216   5.790   5.159   6.740 -3.2171  1.6678  1.1556
   39POPC   C23 5217   5.230   5.143   6.613  0.4053 -0.2090 -0.2424
   39POPC   H3R 5218   5.309   5.072   6.644 -0.8407 -1.3719  0.3694
   39POPC   H3S 5219   5.140   5.081   6.597 -1.0181  1.3481  1.2155
   39POPC   C24 5220   5.212   5.242   6.727  0.3278  0.8295  0.1044
   39POPC   H4R 5221   5.166   5.340   6.701  0.0274  0.5863 -0.2778
   39POPC   H4S 5222   5.315   5.266   6.763  0.0872  0.8822  0.7756
   39POPC   C25 5223   5.144   5.178   6.851 -0.5756  0.5525 -0.5363
   39POPC   H5R 5224   5.037   5.151   6.834 -0.5265 -0.1972  0.2578
   39POPC   H5S 5225   5.154   5.261   6.924 -0.7765  1.8583 -1.9511
   39POPC   C26 5226   5.206   5.044   6.897  0.5304 -0.0781 -0.6250
   39POPC   H6R 5227   5.314   5.068   6.910  0.4465 -0.0986  0.1609
   39POPC   H6S 5228   5.197   4.963   6.822  1.9238  0.7944 -1.7796
   39POPC   C27 5229   5.147   5.006   7.034  0.4523  0.1602  0.4115
   39POPC   H7R 5230   5.156   4.898   7.060  3.1749 -0.0447 -1.0677
   39POPC   H7S 5231   5.039   5.030   7.024  0.5065 -0.2823 -1.7410
   39POPC   C28 5232   5.214   5.082   7.153 -0.1491  0.2531 -0.3962
   39POPC   H8R 5233   5.217   5.189   7.125  2.3270 -0.1582 -1.9512
   39POPC   H8S 5234   5.320   5.054   7.166  0.6650  3.4897  0.9798
   39POPC   C29 5235   5.134   5.069   7.280 -0.5100 -0.4095  0.1202
   39POPC   H91 5236   5.043   5.131   7.290 -1.1148 -1.1012 -0.8806
   39POPC  C210 5237   5.151   4.979   7.373  1.0111 -0.1514 -1.1101
   39POPC  H101 5238   5.087   4.976   7.463  0.7601 -0.1335 -1.2874
   39POPC  C211 5239   5.249   4.867   7.372  0.0432 -0.1009  0.1645
   39POPC  H11R 5240   5.344   4.890   7.425 -1.0755  0.6222  1.9442
   39POPC  H11S 5241   5.278   4.834   7.270 -1.1629 -0.4241 -0.0909
   39POPC  C212 5242   5.204   4.730   7.436  0.0607  0.3727 -0.4226
   39POPC  H12R 5243   5.287   4.658   7.414 -0.4670 -0.7423  1.0924
   39POPC  H12S 5244   5.107   4.714   7.384 -0.6657  2.5317  0.1758
   39POPC  C213 5245   5.182   4.725   7.586 -0.0116 -0.1612  0.7198
   39POPC  H13R 5246   5.136   4.629   7.617 -2.9658  0.4446 -1.3600
   39POPC  H13S 5247   5.102   4.801   7.602 -0.3073  0.2226 -2.0038
   39POPC  C214 5248   5.302   4.763   7.669  0.3686 -0.1213  0.0155
   39POPC  H14R 5249   5.334   4.866   7.645 -0.2908  0.5967  2.0299
   39POPC  H14S 5250   5.376   4.689   7.631 -1.6428 -2.3926  0.2882
   39POPC  C215 5251   5.298   4.725   7.812 -0.7057  0.7613  0.2719
   39POPC  H15R 5252   5.401   4.707   7.848 -0.3733  0.2800 -0.8574
   39POPC  H15S 5253   5.244   4.629   7.829  1.3625 -1.0960 -2.7315
   39POPC  C216 5254   5.218   4.818   7.897 -0.1039  0.3007 -0.3668
   39POPC  H16R 5255   5.122   4.824   7.842  0.7260 -1.7105 -2.1458
   39POPC  H16S 5256   5.271   4.916   7.909 -0.5619  0.4885  0.1874
   39POPC  C217 5257   5.214   4.771   8.044  0.5862 -0.0428  0.4688
   39POPC  H17R 5258   5.315   4.780   8.089  0.4759  3.6704  0.2466
   39POPC  H17S 5259   5.171   4.668   8.047 -0.5965  0.2071 -3.1104
   39POPC  C218 5260   5.120   4.856   8.132  0.1703 -0.1235 -0.3809
   39POPC  H18R 5261   5.129   4.818   8.237 -1.6305  0.2274 -0.0758
   39POPC  H18S 5262   5.016   4.837   8.099 -0.3203  2.6517 -0.6378
   39POPC  H18T 5263   5.145   4.963   8.120 -0.4525 -0.1354 -2.0358
   39POPC   C33 5264   5.597   5.052   6.746  0.0077 -0.1193  0.1298
   39POPC   H3X 5265   5.536   4.991   6.676 -0.1697 -1.2805  1.2469
   39POPC   H3Y 5266   5.544   5.147   6.765  1.4507  0.3884  1.9231
   39POPC   C34 5267   5.611   4.978   6.883  0.3469 -0.5924 -0.1070
   39POPC   H4X 5268   5.695   4.906   6.883  2.8224  2.1165  0.8342
   39POPC   H4Y 5269   5.510   4.938   6.911  0.3760 -1.6266 -1.3737
   39POPC   C35 5270   5.636   5.084   6.993  0.3477 -0.0564 -0.5036
   39POPC   H5X 5271   5.558   5.164   6.993  1.0125  0.6757 -2.7912
   39POPC   H5Y 5272   5.730   5.141   6.977  2.1277 -3.1938 -2.1592
   39POPC   C36 5273   5.630   5.027   7.137 -0.3472  0.5253 -0.4983
   39POPC   H6X 5274   5.552   4.949   7.130  0.5334 -0.2436 -2.9339
   39POPC   H6Y 5275   5.608   5.107   7.211 -0.2701  0.8432 -0.8141
   39POPC   C37 5276   5.759   4.953   7.175  0.2249 -0.1281  0.3157
   39POPC   H7X 5277   5.836   5.033   7.185  0.4375 -0.5848  3.0230
   39POPC   H7Y 5278   5.791   4.887   7.092  1.1387 -0.7392  1.1402
   39POPC   C38 5279   5.756   4.876   7.313  0.0545 -0.1014  0.0282
   39POPC   H8X 5280   5.858   4.834   7.315  0.7606  1.0778 -3.7341
   39POPC   H8Y 5281   5.684   4.792   7.318  0.0264 -0.0250  1.2748
   39POPC   C39 5282   5.729   4.964   7.433 -0.0347  0.2057  0.2505
   39POPC   H9X 5283   5.628   5.009   7.430  1.2290  3.3645  1.0588
   39POPC   H9Y 5284   5.804   5.045   7.446 -0.4210  0.5586  0.2853
   39POPC  C310 5285   5.723   4.884   7.553  0.0036  0.7723  0.1120
   39POPC  H10X 5286   5.811   4.816   7.558  0.5592  1.4424 -0.4261
   39POPC  H10Y 5287   5.634   4.817   7.544  0.1515  0.5927 -0.0389
   39POPC  C311 5288   5.706   4.966   7.689 -0.2632 -0.1478  0.2874
   39POPC  H11X 5289   5.597   4.958   7.708 -0.5268 -0.7524 -1.3265
   39POPC  H11Y 5290   5.733   5.072   7.670 -0.8728  0.0780  0.6525
   39POPC  C312 5291   5.796   4.914   7.803 -0.1317 -0.3157 -0.7511
   39POPC  H12X 5292   5.897   4.919   7.757 -1.2148  0.7053 -3.1672
   39POPC  H12Y 5293   5.769   4.809   7.827  0.8517 -0.1343  1.4201
   39POPC  C313 5294   5.796   4.997   7.924 -0.2164  0.0070 -0.4870
   39POPC  H13X 5295   5.691   5.027   7.945 -0.1062  0.1607 -0.1493
   39POPC  H13Y 5296   5.876   5.074   7.925 -0.2945  0.1084 -1.2315
   39POPC  C314 5297   5.831   4.909   8.046 -0.0850 -0.7256  1.2156
   39POPC  H14X 5298   5.901   4.968   8.109 -0.3860  1.7462 -0.6447
   39POPC  H14Y 5299   5.877   4.810   8.023  0.7160 -0.3523  1.1788
   39POPC  C315 5300   5.705   4.881   8.132 -0.0396  0.3407  0.8720
   39POPC  H15X 5301   5.658   4.975   8.167 -1.6741 -1.1748  3.0345
   39POPC  H15Y 5302   5.734   4.836   8.229 -2.3554 -3.7144 -0.0681
   39POPC  C316 5303   5.600   4.797   8.064  0.6600  0.6173 -0.7327
   39POPC  H16X 5304   5.556   4.848   7.975 -1.2060  1.7140  0.7405
   39POPC  H16Y 5305   5.512   4.775   8.128 -0.0758  0.2583 -1.8459
   39POPC  H16Z 5306   5.635   4.694   8.045 -0.4248 -0.1463  1.1291
   40POPC     N 5307   2.978   2.428   6.132  0.1523  0.1478  0.2985
   40POPC   C12 5308   3.090   2.434   6.233 -0.2488 -0.1124  0.7431
   40POPC  H12A 5309   3.064   2.512   6.304  0.6466 -1.7163  2.9494
   40POPC  H12B 5310   3.177   2.460   6.174 -0.1796 -1.1921  0.3508
   40POPC   C13 5311   3.019   2.330   6.030  0.0976  0.2953  0.3158
   40POPC  H13A 5312   3.110   2.284   6.066 -0.1087  1.2671  2.2178
   40POPC  H13B 5313   2.945   2.254   6.010  0.9545  0.0554 -2.3940
   40POPC  H13C 5314   3.051   2.370   5.935  0.1358 -2.1754 -0.8052
   40POPC   C14 5315   2.851   2.386   6.188  0.1886 -0.1659 -0.2149
   40POPC  H14A 5316   2.847   2.289   6.235 -1.3319 -0.1663 -0.3095
   40POPC  H14B 5317   2.817   2.461   6.257  1.0387 -0.2461  0.3164
   40POPC  H14C 5318   2.780   2.377   6.108 -0.8952 -0.9678  0.8002
   40POPC   C15 5319   2.957   2.554   6.060 -0.0033 -0.3796 -0.9009
   40POPC  H15A 5320   2.867   2.557   6.001 -0.4606  2.8820 -0.2649
   40POPC  H15B 5321   3.039   2.574   5.993  0.0425 -1.0773 -1.0586
   40POPC  H15C 5322   2.949   2.640   6.125 -1.8841 -0.5531 -0.8607
   40POPC   C11 5323   3.120   2.306   6.310 -0.3942  0.7984 -0.0287
   40POPC  H11A 5324   3.027   2.257   6.348 -1.6550  1.5285 -2.0414
   40POPC  H11B 5325   3.163   2.335   6.408 -1.6936  2.0263  0.2189
   40POPC     P 5326   3.370   2.262   6.236 -0.1355 -0.0164  0.3498
   40POPC   O13 5327   3.383   2.409   6.221 -0.2008  0.1338  0.9658
   40POPC   O14 5328   3.444   2.179   6.138 -0.2084 -0.1343 -0.7832
   40POPC   O12 5329   3.206   2.224   6.228 -0.2886 -0.1502  0.8539
   40POPC   O11 5330   3.400   2.216   6.386  0.2430  0.5088  0.5274
   40POPC    C1 5331   3.390   2.075   6.427 -0.1012 -0.1122 -0.1186
   40POPC    HA 5332   3.489   2.034   6.457 -0.4540 -0.8181  0.1020
   40POPC    HB 5333   3.340   2.012   6.350 -3.3238  1.9177  0.1662
   40POPC    C2 5334   3.299   2.064   6.545  0.5764 -0.3011  0.7762
   40POPC    HS 5335   3.197   2.095   6.515  0.8687  0.1180  0.2069
   40POPC   O21 5336   3.351   2.144   6.648 -0.1067 -0.5354  0.6671
   40POPC   C21 5337   3.268   2.239   6.702  0.4937  0.4026  0.6315
   40POPC   O22 5338   3.157   2.266   6.663 -0.3232 -0.4400  0.3371
   40POPC   C22 5339   3.339   2.307   6.827  0.4799  0.1202 -0.7102
   40POPC   H2R 5340   3.406   2.394   6.810 -0.2909  0.6141 -1.2735
   40POPC   H2S 5341   3.412   2.229   6.859  2.0392  2.2166  1.1414
   40POPC    C3 5342   3.299   1.914   6.581 -0.5202  0.3301 -0.2540
   40POPC    HX 5343   3.403   1.884   6.606 -0.5775  0.4289  0.1066
   40POPC    HY 5344   3.272   1.860   6.487 -0.7909 -2.3785  1.2640
   40POPC   O31 5345   3.208   1.882   6.687  0.0898 -0.3187 -0.6667
   40POPC   C31 5346   3.087   1.853   6.649 -0.5794  0.0813 -0.0080
   40POPC   O32 5347   3.047   1.867   6.531 -0.1602 -0.2757 -0.8005
   40POPC   C32 5348   3.007   1.808   6.765 -0.7559  0.2128 -1.2629
   40POPC   H2X 5349   3.076   1.801   6.852 -0.4800  1.1311 -1.4006
   40POPC   H2Y 5350   2.979   1.701   6.755 -0.6662  0.0401  0.1554
   40POPC   C23 5351   3.238   2.364   6.936  0.1679  0.0183 -0.2691
   40POPC   H3R 5352   3.172   2.278   6.963  1.0512 -0.6643 -0.2541
   40POPC   H3S 5353   3.185   2.449   6.888 -0.3445 -0.4765 -0.5948
   40POPC   C24 5354   3.308   2.417   7.063  0.4926  0.0356  0.0836
   40POPC   H4R 5355   3.368   2.508   7.037  1.1503  0.3108  2.3676
   40POPC   H4S 5356   3.375   2.335   7.097  2.8614  2.4681  1.7698
   40POPC   C25 5357   3.221   2.447   7.183 -0.1520 -0.9806 -0.1245
   40POPC   H5R 5358   3.180   2.348   7.213  1.7520 -1.4123  1.2164
   40POPC   H5S 5359   3.151   2.529   7.152 -0.8405 -1.9821 -1.2978
   40POPC   C26 5360   3.303   2.521   7.301  0.0729 -0.1547  0.6225
   40POPC   H6R 5361   3.393   2.457   7.316  0.8382  0.0014 -2.5674
   40POPC   H6S 5362   3.235   2.525   7.389 -1.4864 -3.3041 -0.2888
   40POPC   C27 5363   3.340   2.660   7.259 -0.2359  0.3067  0.0250
   40POPC   H7R 5364   3.245   2.696   7.213 -1.2007 -2.6202 -0.4770
   40POPC   H7S 5365   3.418   2.642   7.183 -1.0235 -0.4203 -0.6412
   40POPC   C28 5366   3.371   2.767   7.370  0.6097  0.5302  0.1512
   40POPC   H8R 5367   3.445   2.714   7.433 -1.3215 -1.2794  1.0223
   40POPC   H8S 5368   3.290   2.780   7.446  0.0680  1.1939 -0.5160
   40POPC   C29 5369   3.407   2.904   7.329  0.1945 -0.3257  0.1277
   40POPC   H91 5370   3.506   2.921   7.285 -0.1348 -0.8209 -0.8514
   40POPC  C210 5371   3.338   3.020   7.362 -0.8243  0.6460  0.2626
   40POPC  H101 5372   3.386   3.115   7.334  1.3958 -0.5640 -0.2915
   40POPC  C211 5373   3.218   3.016   7.448  0.3531  0.0798  0.2492
   40POPC  H11R 5374   3.146   2.937   7.420  2.0982 -1.9673  1.2363
   40POPC  H11S 5375   3.166   3.114   7.451  1.5984  0.7617  0.0498
   40POPC  C212 5376   3.251   3.000   7.602 -0.2430  0.2517  0.7595
   40POPC  H12R 5377   3.317   2.910   7.608 -0.8747 -0.3114 -0.4125
   40POPC  H12S 5378   3.156   2.981   7.655  0.0254 -0.1196  1.1115
   40POPC  C213 5379   3.320   3.120   7.673  0.3318  0.6051  0.1677
   40POPC  H13R 5380   3.260   3.211   7.650  1.9675  1.3265 -1.5399
   40POPC  H13S 5381   3.414   3.133   7.614 -0.4765  5.2916 -0.4782
   40POPC  C214 5382   3.355   3.099   7.819 -0.2244 -0.1138  0.3409
   40POPC  H14R 5383   3.435   3.022   7.809  0.7611  0.9430 -0.0277
   40POPC  H14S 5384   3.276   3.063   7.890  1.2822 -1.6344  1.3211
   40POPC  C215 5385   3.404   3.227   7.885  0.0489  0.5159  0.2746
   40POPC  H15R 5386   3.316   3.294   7.894  0.7370  1.6011 -0.7939
   40POPC  H15S 5387   3.492   3.272   7.834  0.1543  1.3444  1.1835
   40POPC  C216 5388   3.452   3.188   8.026 -0.1702  0.6552  0.3849
   40POPC  H16R 5389   3.552   3.141   8.028 -0.1108  0.7655  0.0062
   40POPC  H16S 5390   3.376   3.120   8.072 -0.0642 -0.5080 -1.0689
   40POPC  C217 5391   3.459   3.306   8.123 -0.4858 -0.6438 -0.3061
   40POPC  H17R 5392   3.362   3.358   8.108 -1.6379 -1.8767  2.2629
   40POPC  H17S 5393   3.550   3.366   8.102 -0.5163 -0.9098 -1.2751
   40POPC  C218 5394   3.472   3.272   8.275  0.4611 -0.1924  0.0812
   40POPC  H18R 5395   3.403   3.187   8.293 -2.2334  1.8301 -0.1286
   40POPC  H18S 5396   3.455   3.363   8.337 -2.3998 -1.7323  1.7760
   40POPC  H18T 5397   3.577   3.236   8.284  0.0056 -1.8168 -0.8528
   40POPC   C33 5398   2.894   1.905   6.805  0.2298 -0.1799 -0.2180
   40POPC   H3X 5399   2.806   1.881   6.742 -0.5664  0.8487  0.4712
   40POPC   H3Y 5400   2.907   2.014   6.793  0.1324 -0.3490 -2.1627
   40POPC   C34 5401   2.849   1.873   6.957 -0.0786  0.1989  0.1232
   40POPC   H4X 5402   2.741   1.900   6.967 -0.2885 -0.8228  0.8488
   40POPC   H4Y 5403   2.888   1.951   7.025 -0.6485  1.2111 -0.6796
   40POPC   C35 5404   2.849   1.721   6.997  0.3492 -1.2500 -0.0704
   40POPC   H5X 5405   2.955   1.687   6.995  1.6602  2.3492  0.9924
   40POPC   H5Y 5406   2.787   1.663   6.925 -0.9852  0.8782 -0.7051
   40POPC   C36 5407   2.788   1.694   7.134 -0.4035 -0.2577 -0.6583
   40POPC   H6X 5408   2.804   1.585   7.151  2.5560 -0.0573 -1.6139
   40POPC   H6Y 5409   2.679   1.710   7.138 -0.3635  0.3941 -1.8343
   40POPC   C37 5410   2.851   1.783   7.244 -0.3530 -0.0675  0.0961
   40POPC   H7X 5411   2.797   1.880   7.247 -0.1890  0.0334 -0.1502
   40POPC   H7Y 5412   2.959   1.804   7.228  0.1692 -0.1429  2.9666
   40POPC   C38 5413   2.833   1.728   7.385  0.1613  0.2881 -0.1174
   40POPC   H8X 5414   2.856   1.619   7.384 -2.5194 -0.3517  0.5425
   40POPC   H8Y 5415   2.725   1.739   7.406 -0.1031 -1.3782 -0.4272
   40POPC   C39 5416   2.915   1.796   7.497 -0.5086 -0.1119 -0.2117
   40POPC   H9X 5417   2.884   1.903   7.494  0.6275  0.2319 -0.0814
   40POPC   H9Y 5418   3.020   1.775   7.469 -0.8071 -0.1060 -1.3773
   40POPC  C310 5419   2.886   1.738   7.635 -0.3630 -0.5004 -0.6630
   40POPC  H10X 5420   2.910   1.630   7.622  2.1339 -0.3306  1.6978
   40POPC  H10Y 5421   2.776   1.740   7.651 -0.1993 -2.0001  0.9191
   40POPC  C311 5422   2.957   1.802   7.758 -0.1176  0.0931 -0.5313
   40POPC  H11X 5423   2.929   1.741   7.847  0.2236  0.7641  0.0476
   40POPC  H11Y 5424   2.924   1.908   7.766 -0.1063 -0.0074  1.3115
   40POPC  C312 5425   3.108   1.807   7.747 -0.0064  0.2974 -0.2286
   40POPC  H12X 5426   3.128   1.841   7.643 -1.1884  0.8136 -0.3016
   40POPC  H12Y 5427   3.147   1.704   7.761 -0.7728 -0.3011 -2.2591
   40POPC  C313 5428   3.178   1.900   7.846  0.0011  0.5798 -0.1671
   40POPC  H13X 5429   3.150   1.849   7.941 -0.0141 -0.6012 -0.7888
   40POPC  H13Y 5430   3.133   2.002   7.843  0.8247  0.9262 -3.0721
   40POPC  C314 5431   3.325   1.904   7.827  0.3569  0.5808 -0.3515
   40POPC  H14X 5432   3.349   1.917   7.720  0.0526 -0.1389 -0.5081
   40POPC  H14Y 5433   3.363   1.804   7.856 -1.3225 -0.1796 -0.6846
   40POPC  C315 5434   3.402   2.011   7.903 -0.3938 -0.6679 -0.5212
   40POPC  H15X 5435   3.382   2.109   7.854 -0.4181  0.4308  1.5861
   40POPC  H15Y 5436   3.510   1.990   7.896 -0.5878 -1.9722  0.1095
   40POPC  C316 5437   3.375   2.028   8.057  0.2692  0.0287  0.0703
   40POPC  H16X 5438   3.394   1.929   8.104  0.5816 -0.2936 -0.7224
   40POPC  H16Y 5439   3.266   2.048   8.068  0.1355 -0.2321 -0.7560
   40POPC  H16Z 5440   3.431   2.107   8.111  0.6837 -1.5202  2.0429
   41CHL1    C3 5441   3.772   6.550  10.142 -0.4854 -0.6553 -1.0938
   41CHL1    H3 5442   3.810   6.652  10.164  0.2844 -0.5907 -2.5903
   41CHL1    O3 5443   3.780   6.492  10.270  0.1057 -0.2977  0.1107
   41CHL1   H3' 5444   3.838   6.417  10.252 -0.1864 -0.3968 -0.4558
   41CHL1    C4 5445   3.632   6.553  10.090  0.2946  0.0313  0.0990
   41CHL1   H4A 5446   3.598   6.448  10.093  1.1388 -0.3721 -2.2485
   41CHL1   H4B 5447   3.568   6.615  10.156 -1.4322 -1.2560 -0.3004
   41CHL1    C5 5448   3.618   6.619   9.948  0.2659  0.2042 -0.8082
   41CHL1    C6 5449   3.516   6.706   9.911 -0.1573 -0.0956 -0.6601
   41CHL1    H6 5450   3.442   6.739   9.986 -0.2643  0.3075 -0.9384
   41CHL1    C7 5451   3.509   6.764   9.776  0.0735 -0.7803 -0.9344
   41CHL1   H7A 5452   3.403   6.752   9.743 -1.3060 -1.9837  3.2920
   41CHL1   H7B 5453   3.528   6.873   9.769  4.8638 -1.4553 -1.2015
   41CHL1    C8 5454   3.586   6.684   9.668 -0.0582  0.1731  0.3811
   41CHL1    H8 5455   3.530   6.596   9.630  0.2086  0.6490 -1.2186
   41CHL1   C14 5456   3.609   6.763   9.540  0.5941 -0.2051 -0.4441
   41CHL1   H14 5457   3.666   6.851   9.578 -1.1782  0.0323  1.8944
   41CHL1   C15 5458   3.490   6.837   9.485  0.4518  0.6824 -1.3070
   41CHL1  H15A 5459   3.404   6.767   9.480  1.3635 -0.7612  1.3407
   41CHL1  H15B 5460   3.454   6.927   9.539 -0.5797  0.4187 -1.5324
   41CHL1   C16 5461   3.537   6.886   9.349 -0.0308 -0.9327 -0.5257
   41CHL1  H16A 5462   3.464   6.849   9.273 -0.7996  3.3784 -2.1469
   41CHL1  H16B 5463   3.548   6.996   9.343 -0.6310 -0.7628  0.9866
   41CHL1   C17 5464   3.678   6.813   9.323  1.4215 -0.2018 -0.2716
   41CHL1   H17 5465   3.749   6.886   9.367 -1.6725  0.8861  3.5127
   41CHL1   C13 5466   3.685   6.696   9.424 -0.0617 -0.1519  0.3645
   41CHL1   C18 5467   3.613   6.572   9.376 -0.2622  0.0290 -0.1390
   41CHL1  H18A 5468   3.596   6.505   9.463 -0.5686  1.7471  1.1795
   41CHL1  H18B 5469   3.517   6.599   9.327 -0.4742  1.1293  0.8307
   41CHL1  H18C 5470   3.678   6.521   9.302  0.2148  1.4957 -0.7665
   41CHL1   C12 5471   3.825   6.658   9.472  0.1867 -0.1231 -0.6198
   41CHL1  H12A 5472   3.870   6.593   9.394 -0.7249 -0.4281 -0.9041
   41CHL1  H12B 5473   3.881   6.751   9.495 -0.5195 -0.2218  1.7387
   41CHL1   C11 5474   3.802   6.571   9.599 -0.4329  0.1506  0.5373
   41CHL1  H11A 5475   3.766   6.470   9.574 -0.3092  0.5812 -1.5398
   41CHL1  H11B 5476   3.906   6.552   9.635 -1.1042 -2.4781  1.2609
   41CHL1    C9 5477   3.728   6.641   9.714  0.5055  0.0658 -0.7151
   41CHL1    H9 5478   3.769   6.737   9.750 -0.9240  1.1327 -1.7664
   41CHL1   C10 5479   3.712   6.563   9.850 -0.3378 -0.4962  0.4132
   41CHL1   C19 5480   3.666   6.414   9.822 -0.1896 -0.2086 -0.5522
   41CHL1  H19A 5481   3.639   6.352   9.910 -4.4432  0.1986 -1.3557
   41CHL1  H19B 5482   3.565   6.430   9.778 -0.9135 -0.5450  0.9236
   41CHL1  H19C 5483   3.737   6.359   9.757 -1.2720 -0.2991 -1.7017
   41CHL1    C1 5484   3.854   6.561   9.913 -0.0303 -0.5513  0.1682
   41CHL1   H1A 5485   3.927   6.526   9.837 -0.5308 -0.6413 -0.2815
   41CHL1   H1B 5486   3.883   6.666   9.932 -0.9382 -0.4491  1.1408
   41CHL1    C2 5487   3.863   6.484  10.041 -0.2849 -0.1273 -0.4696
   41CHL1   H2A 5488   3.969   6.470  10.070 -0.4346 -2.5853 -0.8652
   41CHL1   H2B 5489   3.828   6.378  10.040  0.0650 -0.2760 -3.4477
   41CHL1   C20 5490   3.713   6.780   9.172  0.5778 -0.2619  0.1971
   41CHL1   H20 5491   3.654   6.692   9.140 -0.0477  0.0460  0.4897
   41CHL1   C21 5492   3.864   6.767   9.151 -0.0851 -0.1116 -0.5021
   41CHL1  H21A 5493   3.922   6.860   9.173 -0.5057 -0.2160  1.1905
   41CHL1  H21B 5494   3.903   6.738   9.051  1.9720  1.0838 -0.1054
   41CHL1  H21C 5495   3.901   6.686   9.217  0.7510  1.2557  0.7854
   41CHL1   C22 5496   3.668   6.890   9.073  0.5931 -0.5364  0.5366
   41CHL1  H22A 5497   3.558   6.907   9.066  0.6800 -0.8255 -3.0062
   41CHL1  H22B 5498   3.708   6.989   9.102 -0.7192  0.3592 -0.5757
   41CHL1   C23 5499   3.694   6.860   8.929 -0.0111  0.2629  0.2547
   41CHL1  H23A 5500   3.805   6.859   8.927 -0.0006  1.3930 -1.3388
   41CHL1  H23B 5501   3.640   6.765   8.908 -1.9775  0.9546  1.8048
   41CHL1   C24 5502   3.637   6.972   8.839  0.4041 -0.5259 -0.3360
   41CHL1  H24A 5503   3.531   6.981   8.872  0.1467  2.0878 -1.5918
   41CHL1  H24B 5504   3.695   7.060   8.875 -0.3054 -0.3103  0.3117
   41CHL1   C25 5505   3.637   6.952   8.687 -0.4549 -0.3897 -0.0582
   41CHL1   H25 5506   3.577   6.864   8.655 -0.1740 -0.1845 -1.1978
   41CHL1   C26 5507   3.581   7.075   8.601  0.4384  0.0138 -0.4030
   41CHL1  H26A 5508   3.477   7.103   8.627  0.9664  1.6867  0.0304
   41CHL1  H26B 5509   3.652   7.160   8.611 -0.5000  0.8149 -0.4908
   41CHL1  H26C 5510   3.589   7.040   8.496  0.6438 -1.4837  0.0893
   41CHL1   C27 5511   3.784   6.931   8.641  0.1433  0.0676 -0.6488
   41CHL1  H27A 5512   3.834   6.848   8.696 -1.1024 -1.2091 -1.3677
   41CHL1  H27B 5513   3.785   6.903   8.533 -1.0080  0.4265 -0.7655
   41CHL1  H27C 5514   3.843   7.022   8.665 -0.1633 -0.1666  1.0983
   42CHL1    C3 5515   0.696   0.362   9.715 -0.3632 -0.6819 -0.4240
   42CHL1    H3 5516   0.781   0.433   9.718  0.1497 -1.2916  2.3498
   42CHL1    O3 5517   0.680   0.300   9.848  0.2732 -0.6505 -0.1761
   42CHL1   H3' 5518   0.759   0.245   9.854  0.9740 -0.0571 -2.5841
   42CHL1    C4 5519   0.564   0.420   9.685 -0.0923 -0.3767 -0.4052
   42CHL1   H4A 5520   0.491   0.338   9.690  2.6585 -2.9221  2.1167
   42CHL1   H4B 5521   0.559   0.497   9.765  0.2177  0.2796 -0.9943
   42CHL1    C5 5522   0.569   0.490   9.545  0.4250  0.2353  0.0193
   42CHL1    C6 5523   0.551   0.623   9.529  0.3200  0.5015  0.3970
   42CHL1    H6 5524   0.506   0.673   9.616  0.7631  0.4831  0.6359
   42CHL1    C7 5525   0.553   0.691   9.399 -0.1586 -0.1511  0.2324
   42CHL1   H7A 5526   0.477   0.771   9.398 -0.3153 -0.2805  1.0925
   42CHL1   H7B 5527   0.650   0.747   9.399 -0.2076  0.0059 -1.4834
   42CHL1    C8 5528   0.555   0.591   9.279 -0.1522 -0.4910 -0.2079
   42CHL1    H8 5529   0.452   0.550   9.273 -0.7588  1.0162 -0.4887
   42CHL1   C14 5530   0.581   0.659   9.151 -0.1630 -0.3107  0.6737
   42CHL1   H14 5531   0.685   0.691   9.172 -0.5676  1.4604  0.1306
   42CHL1   C15 5532   0.500   0.793   9.108 -0.1095 -0.5622 -0.4672
   42CHL1  H15A 5533   0.391   0.787   9.125 -0.2454  0.1592 -1.0517
   42CHL1  H15B 5534   0.543   0.879   9.164 -1.3089  0.6280 -1.3143
   42CHL1   C16 5535   0.526   0.801   8.957 -0.2375 -0.1522 -0.0123
   42CHL1  H16A 5536   0.425   0.795   8.912 -0.6395 -5.5676  0.9523
   42CHL1  H16B 5537   0.578   0.897   8.938  0.6360 -0.7285 -0.6262
   42CHL1   C17 5538   0.611   0.675   8.916 -0.0541  0.1512  0.0353
   42CHL1   H17 5539   0.722   0.687   8.913 -0.0920  0.2230 -2.4660
   42CHL1   C13 5540   0.586   0.574   9.030  0.4730  0.2005  0.5603
   42CHL1   C18 5541   0.451   0.500   9.004  0.4537  0.8066 -0.2205
   42CHL1  H18A 5542   0.445   0.452   8.903 -1.5833 -0.6831  0.5384
   42CHL1  H18B 5543   0.400   0.428   9.071 -0.3283  0.9897 -0.6123
   42CHL1  H18C 5544   0.375   0.580   9.004 -0.4424 -0.0231  0.0072
   42CHL1   C12 5545   0.704   0.479   9.045  0.8313  0.3812  0.5764
   42CHL1  H12A 5546   0.708   0.410   8.959  1.2081  1.6021 -0.4085
   42CHL1  H12B 5547   0.798   0.537   9.033  0.9119 -0.1001 -1.3405
   42CHL1   C11 5548   0.687   0.390   9.171  0.2635  0.3365  0.4745
   42CHL1  H11A 5549   0.598   0.324   9.160 -0.9728  1.7450  1.5096
   42CHL1  H11B 5550   0.773   0.325   9.196 -0.8936 -1.1027  0.8539
   42CHL1    C9 5551   0.652   0.480   9.303  0.2490  0.5440 -0.0854
   42CHL1    H9 5552   0.746   0.533   9.326  0.2789 -0.2663  1.8623
   42CHL1   C10 5553   0.612   0.395   9.430 -0.5500  0.3374  0.4524
   42CHL1   C19 5554   0.481   0.303   9.403 -1.5555  0.1752  0.6815
   42CHL1  H19A 5555   0.400   0.363   9.356 -1.5078  1.1661  1.8311
   42CHL1  H19B 5556   0.519   0.223   9.336 -1.0156  0.7885  0.2374
   42CHL1  H19C 5557   0.450   0.252   9.496 -0.3773 -0.7204  0.5953
   42CHL1    C1 5558   0.744   0.318   9.477 -0.2190 -0.0249  0.2921
   42CHL1   H1A 5559   0.769   0.245   9.397 -1.4699 -1.4953  1.1911
   42CHL1   H1B 5560   0.824   0.394   9.472  0.5185 -0.8464 -1.3317
   42CHL1    C2 5561   0.733   0.253   9.612  0.3646 -0.4051 -0.6455
   42CHL1   H2A 5562   0.830   0.213   9.646  0.4742  1.0812  0.9190
   42CHL1   H2B 5563   0.656   0.174   9.620 -1.7063  1.6102  0.7636
   42CHL1   C20 5564   0.595   0.630   8.770 -0.3057 -0.7825  0.2760
   42CHL1   H20 5565   0.613   0.521   8.771 -1.8023 -1.0536  2.1002
   42CHL1   C21 5566   0.701   0.687   8.675  0.0290  1.1377  0.3123
   42CHL1  H21A 5567   0.696   0.636   8.576 -0.4936  0.8926  0.4616
   42CHL1  H21B 5568   0.801   0.668   8.719 -0.0760  0.8497  0.4306
   42CHL1  H21C 5569   0.691   0.798   8.674 -1.1782  1.0537  1.0232
   42CHL1   C22 5570   0.456   0.651   8.708  0.0095 -0.0948  0.5425
   42CHL1  H22A 5571   0.379   0.620   8.782  0.2701 -0.9888  0.4523
   42CHL1  H22B 5572   0.455   0.761   8.692  1.5950 -0.1340 -0.0188
   42CHL1   C23 5573   0.427   0.574   8.578  0.2654 -0.8609 -0.7757
   42CHL1  H23A 5574   0.503   0.599   8.501 -0.7838  1.9289 -1.0186
   42CHL1  H23B 5575   0.434   0.465   8.598 -2.1911 -1.2778 -1.8361
   42CHL1   C24 5576   0.291   0.606   8.516 -0.4959 -0.4442 -0.5741
   42CHL1  H24A 5577   0.207   0.552   8.566  0.3924 -0.4672  0.9778
   42CHL1  H24B 5578   0.284   0.716   8.529  1.2292 -0.3473 -0.2074
   42CHL1   C25 5579   0.272   0.565   8.369 -0.1647  0.1406 -0.0757
   42CHL1   H25 5580   0.321   0.466   8.360  0.0104  0.2793 -0.6475
   42CHL1   C26 5581   0.124   0.565   8.326  0.6847 -0.3743  0.0821
   42CHL1  H26A 5582   0.110   0.528   8.222 -1.1408 -0.3725  0.2801
   42CHL1  H26B 5583   0.060   0.505   8.395  0.1046  1.1345  0.8906
   42CHL1  H26C 5584   0.097   0.672   8.329  0.1101 -0.5279  0.5720
   42CHL1   C27 5585   0.359   0.652   8.281  0.1627 -0.6917 -0.9235
   42CHL1  H27A 5586   0.467   0.648   8.306  0.0034  0.8024  0.1493
   42CHL1  H27B 5587   0.348   0.633   8.172  1.2986  2.3299 -1.6805
   42CHL1  H27C 5588   0.319   0.755   8.291  0.8821 -0.5117  0.3499
   43CHL1    C3 5589   2.790   5.282   9.923 -0.2868  0.0865  0.1034
   43CHL1    H3 5590   2.777   5.172   9.924  3.0306 -0.3848 -0.2600
   43CHL1    O3 5591   2.790   5.323  10.066  0.2061  0.0021  0.3681
   43CHL1   H3' 5592   2.842   5.404  10.069  1.0666 -0.5717  2.1241
   43CHL1    C4 5593   2.925   5.306   9.856  0.3043  0.6794  0.5487
   43CHL1   H4A 5594   2.951   5.414   9.863 -1.4730  1.1070  1.1254
   43CHL1   H4B 5595   3.007   5.253   9.909  2.2374  0.6962 -2.2229
   43CHL1    C5 5596   2.898   5.260   9.716  0.6371  0.7766  0.5755
   43CHL1    C6 5597   2.981   5.165   9.661  0.3229 -0.1697  0.0572
   43CHL1    H6 5598   3.063   5.123   9.721  0.7201  1.5953  0.7882
   43CHL1    C7 5599   2.967   5.135   9.516 -0.6774 -0.1472  0.3328
   43CHL1   H7A 5600   3.072   5.121   9.482 -0.8308  0.6378 -0.4974
   43CHL1   H7B 5601   2.915   5.039   9.499 -0.4894 -0.2790  0.4927
   43CHL1    C8 5602   2.902   5.245   9.432 -0.0780  0.1827  0.0827
   43CHL1    H8 5603   2.970   5.332   9.430  0.2719 -0.0865 -1.9233
   43CHL1   C14 5604   2.878   5.195   9.287 -1.0896 -1.2257  0.2341
   43CHL1   H14 5605   2.824   5.099   9.301 -0.9058 -1.3523  0.0859
   43CHL1   C15 5606   3.004   5.158   9.200 -0.7552 -0.6374  0.2422
   43CHL1  H15A 5607   3.079   5.235   9.227 -0.6327 -1.0756  1.2113
   43CHL1  H15B 5608   3.051   5.057   9.210  2.1719  0.6923  0.9992
   43CHL1   C16 5609   2.956   5.176   9.048  0.2008 -0.1401 -0.9357
   43CHL1  H16A 5610   3.008   5.264   9.006 -1.8811  0.6403 -2.0305
   43CHL1  H16B 5611   2.957   5.095   8.971 -1.3368  0.3138 -1.4747
   43CHL1   C17 5612   2.806   5.222   9.063 -0.6778  0.1515 -0.0678
   43CHL1   H17 5613   2.748   5.127   9.074  2.5825 -2.2050 -1.4904
   43CHL1   C13 5614   2.804   5.298   9.198  0.1243 -0.3502 -0.6121
   43CHL1   C18 5615   2.879   5.431   9.179  0.4052 -0.2329  0.0653
   43CHL1  H18A 5616   2.829   5.494   9.102  1.5689  0.2449 -0.3233
   43CHL1  H18B 5617   2.885   5.497   9.268  1.8010 -1.3533  0.8486
   43CHL1  H18C 5618   2.985   5.423   9.147  1.6569  0.0368  3.6637
   43CHL1   C12 5619   2.670   5.329   9.255 -0.1287 -0.6616 -0.5201
   43CHL1  H12A 5620   2.613   5.396   9.186  2.3226  1.1643 -0.8817
   43CHL1  H12B 5621   2.609   5.236   9.263 -0.3826 -0.3622  1.7768
   43CHL1   C11 5622   2.680   5.377   9.398  1.0705 -0.0972 -0.1898
   43CHL1  H11A 5623   2.730   5.475   9.384 -1.1846  1.0711 -0.5373
   43CHL1  H11B 5624   2.577   5.393   9.437  0.8728  1.9454 -1.4354
   43CHL1    C9 5625   2.769   5.286   9.491 -0.0077 -0.5193  0.1102
   43CHL1    H9 5626   2.712   5.190   9.496 -0.9065 -0.0345 -0.6150
   43CHL1   C10 5627   2.788   5.343   9.634  0.1539 -0.0658 -0.7264
   43CHL1   C19 5628   2.815   5.496   9.640 -0.1437  1.2160 -0.6951
   43CHL1  H19A 5629   2.829   5.538   9.742 -1.0821 -1.6411  0.7284
   43CHL1  H19B 5630   2.912   5.516   9.590  1.3944 -1.8516  0.7759
   43CHL1  H19C 5631   2.725   5.552   9.606 -1.7961 -0.8279  0.1166
   43CHL1    C1 5632   2.654   5.305   9.707 -0.6952 -0.1695  0.1162
   43CHL1   H1A 5633   2.568   5.359   9.663 -1.3561  0.4752  2.0839
   43CHL1   H1B 5634   2.641   5.195   9.707  1.5684 -0.5067 -1.0592
   43CHL1    C2 5635   2.664   5.348   9.857 -0.2991  0.0686  0.5089
   43CHL1   H2A 5636   2.582   5.304   9.918 -0.7225 -0.5200 -0.4628
   43CHL1   H2B 5637   2.667   5.458   9.871 -1.0966  0.2349 -0.4658
   43CHL1   C20 5638   2.749   5.293   8.941  0.5774 -0.4838 -0.2943
   43CHL1   H20 5639   2.781   5.399   8.937 -0.1696 -0.2005  0.8142
   43CHL1   C21 5640   2.591   5.299   8.933  0.4416 -0.5055  0.1991
   43CHL1  H21A 5641   2.560   5.197   8.964  0.3588 -1.1223 -1.8186
   43CHL1  H21B 5642   2.549   5.313   8.832  1.3937  0.6649 -0.0592
   43CHL1  H21C 5643   2.547   5.382   8.992  1.1645  0.8837 -1.1530
   43CHL1   C22 5644   2.813   5.238   8.805  0.0122 -1.4271 -0.9489
   43CHL1  H22A 5645   2.924   5.235   8.815 -0.1094 -2.9398  0.4682
   43CHL1  H22B 5646   2.782   5.131   8.807 -1.9834 -0.9066  1.7979
   43CHL1   C23 5647   2.789   5.314   8.675  0.2974 -0.8954 -0.1937
   43CHL1  H23A 5648   2.682   5.297   8.650  0.2870 -1.2528  0.0994
   43CHL1  H23B 5649   2.800   5.425   8.682 -2.8294 -0.2014 -3.3305
   43CHL1   C24 5650   2.862   5.256   8.554 -0.3624  0.1830  0.2122
   43CHL1  H24A 5651   2.971   5.241   8.569  0.3472  0.8934 -3.3007
   43CHL1  H24B 5652   2.812   5.158   8.537 -0.5325  0.2329  0.4176
   43CHL1   C25 5653   2.848   5.339   8.426  0.1076 -0.8086 -0.6119
   43CHL1   H25 5654   2.749   5.391   8.431  0.6303  0.1630 -0.0412
   43CHL1   C26 5655   2.956   5.448   8.416 -0.3965 -0.5248 -0.2523
   43CHL1  H26A 5656   2.953   5.511   8.507 -1.5549  0.4587 -0.9411
   43CHL1  H26B 5657   3.060   5.411   8.403 -0.0730  0.0893  0.5274
   43CHL1  H26C 5658   2.937   5.513   8.328  1.9830 -0.1266 -0.5278
   43CHL1   C27 5659   2.839   5.251   8.309 -0.2320  0.1703  0.4530
   43CHL1  H27A 5660   2.761   5.171   8.316 -1.1278  0.8118 -1.4955
   43CHL1  H27B 5661   2.817   5.301   8.212 -1.4119  0.3933  0.8148
   43CHL1  H27C 5662   2.935   5.198   8.290 -0.2309 -0.5764  2.2981
   44CHL1    C3 5663   4.348   5.922  10.145 -1.1280  0.7152  0.5870
   44CHL1    H3 5664   4.394   6.023  10.147 -0.1270  0.4456 -2.7276
   44CHL1    O3 5665   4.368   5.842  10.260  0.2959 -0.0836 -0.2615
   44CHL1   H3' 5666   4.300   5.776  10.268  0.5495 -0.1478  2.9627
   44CHL1    C4 5667   4.194   5.939  10.118 -0.0020  0.0593 -0.4287
   44CHL1   H4A 5668   4.141   5.844  10.144  0.8619 -1.2711 -3.1046
   44CHL1   H4B 5669   4.157   6.013  10.192 -1.6849  1.2867 -2.3750
   44CHL1    C5 5670   4.154   5.988   9.983  0.0879  0.4888  0.3722
   44CHL1    C6 5671   4.071   6.095   9.972 -0.5219  0.4185  0.1852
   44CHL1    H6 5672   4.032   6.130  10.068 -0.9662 -1.7820  0.8565
   44CHL1    C7 5673   4.019   6.151   9.843 -0.0145 -0.2017 -0.5418
   44CHL1   H7A 5674   3.910   6.171   9.833  0.1603  1.1186  0.0271
   44CHL1   H7B 5675   4.063   6.251   9.824 -1.3326  0.8035  1.2729
   44CHL1    C8 5676   4.055   6.057   9.726  0.9305 -0.0375 -0.1429
   44CHL1    H8 5677   3.978   5.977   9.737  0.9187  0.0956  0.8149
   44CHL1   C14 5678   4.042   6.132   9.592  0.4831  0.0762  0.1671
   44CHL1   H14 5679   4.135   6.193   9.593  0.5815 -0.0177 -1.4778
   44CHL1   C15 5680   3.922   6.223   9.557 -0.3510 -0.2510 -0.4382
   44CHL1  H15A 5681   3.828   6.172   9.586 -0.2984  0.1248  0.4549
   44CHL1  H15B 5682   3.913   6.323   9.605 -1.3244 -0.4633 -0.1514
   44CHL1   C16 5683   3.928   6.244   9.400 -0.2545  0.0106  0.0782
   44CHL1  H16A 5684   3.824   6.223   9.364 -0.3894  0.5183  0.1606
   44CHL1  H16B 5685   3.952   6.352   9.393  0.3013 -0.2080 -1.9707
   44CHL1   C17 5686   4.051   6.165   9.352  0.4866  0.7654 -0.4214
   44CHL1   H17 5687   4.144   6.226   9.359  0.2809  1.2567 -1.6116
   44CHL1   C13 5688   4.076   6.059   9.463  0.1152  0.3690 -0.3281
   44CHL1   C18 5689   3.973   5.938   9.446 -0.4087  0.0171  0.1575
   44CHL1  H18A 5690   3.874   5.982   9.420 -0.1772  0.3117 -0.2158
   44CHL1  H18B 5691   3.996   5.873   9.359 -1.4671 -0.8998  0.5354
   44CHL1  H18C 5692   3.966   5.875   9.537  2.1037 -1.2987 -0.4862
   44CHL1   C12 5693   4.220   6.003   9.472  0.3914  0.1138  0.4975
   44CHL1  H12A 5694   4.268   5.945   9.391  1.3326  1.6809 -0.1153
   44CHL1  H12B 5695   4.289   6.088   9.492 -0.4476  0.5522  1.6393
   44CHL1   C11 5696   4.228   5.921   9.604  0.8146  0.2295  0.4932
   44CHL1  H11A 5697   4.156   5.837   9.593  0.7353  0.3377  0.1758
   44CHL1  H11B 5698   4.324   5.866   9.607  0.3425 -0.7894 -1.3553
   44CHL1    C9 5699   4.192   5.999   9.735 -0.6491  0.1649  0.1847
   44CHL1    H9 5700   4.265   6.081   9.744  0.9766 -1.3129  1.0752
   44CHL1   C10 5701   4.226   5.916   9.867  0.4577 -0.0617  0.1880
   44CHL1   C19 5702   4.158   5.780   9.845 -0.0052 -0.2608 -0.1156
   44CHL1  H19A 5703   4.049   5.792   9.827 -0.1045  0.4710  0.8636
   44CHL1  H19B 5704   4.202   5.716   9.766 -0.0320 -1.2366  0.6404
   44CHL1  H19C 5705   4.169   5.709   9.929 -0.2814 -1.2826 -0.9282
   44CHL1    C1 5706   4.378   5.916   9.896  0.6618  0.6933  1.2520
   44CHL1   H1A 5707   4.424   5.874   9.804 -1.4792  0.3939  0.2706
   44CHL1   H1B 5708   4.420   6.018   9.906  1.6199  0.3247  1.1280
   44CHL1    C2 5709   4.413   5.844  10.024 -1.0734 -0.2127 -0.1625
   44CHL1   H2A 5710   4.524   5.843  10.028 -1.0307 -2.9409 -0.3948
   44CHL1   H2B 5711   4.394   5.735  10.039  2.1913 -0.9983 -0.9641
   44CHL1   C20 5712   4.033   6.118   9.203  0.3018  1.1619  0.2615
   44CHL1   H20 5713   3.928   6.085   9.184  1.1413 -2.1023  0.6357
   44CHL1   C21 5714   4.133   6.008   9.162  0.5361 -0.2359  0.4557
   44CHL1  H21A 5715   4.235   6.050   9.176  1.0626 -1.3463  0.0979
   44CHL1  H21B 5716   4.133   5.970   9.058  2.0205  1.4898 -0.2366
   44CHL1  H21C 5717   4.133   5.912   9.217 -0.2461 -1.0634 -0.9399
   44CHL1   C22 5718   4.040   6.239   9.115 -0.1244  0.2452 -0.3983
   44CHL1  H22A 5719   3.952   6.304   9.132  0.8063  1.0053  1.9134
   44CHL1  H22B 5720   4.125   6.304   9.144 -1.4224  1.0323  1.8918
   44CHL1   C23 5721   4.056   6.224   8.966  0.2518 -0.2788 -0.2646
   44CHL1  H23A 5722   4.153   6.175   8.943  0.3490  0.5420 -1.7155
   44CHL1  H23B 5723   3.985   6.147   8.926 -1.0314  1.0883 -0.7098
   44CHL1   C24 5724   4.033   6.360   8.889  0.5771  0.2671  0.0114
   44CHL1  H24A 5725   4.051   6.345   8.780 -0.1162 -0.8289  0.0306
   44CHL1  H24B 5726   3.924   6.379   8.897  0.5519  0.4293 -0.6488
   44CHL1   C25 5727   4.121   6.477   8.925 -0.3037  0.0678  0.1875
   44CHL1   H25 5728   4.100   6.492   9.033 -1.2779  0.9165 -0.1026
   44CHL1   C26 5729   4.268   6.446   8.899  0.9302  0.4751 -0.0868
   44CHL1  H26A 5730   4.331   6.538   8.898 -1.6520  2.3998 -2.8135
   44CHL1  H26B 5731   4.303   6.365   8.965  0.9015 -1.2902 -2.1433
   44CHL1  H26C 5732   4.265   6.411   8.794 -2.8215  2.3375 -0.7968
   44CHL1   C27 5733   4.068   6.607   8.850  0.1130 -0.2421  0.5892
   44CHL1  H27A 5734   4.102   6.703   8.895  0.5034 -0.2532  0.3227
   44CHL1  H27B 5735   4.114   6.611   8.749 -1.0983  0.8080  0.0448
   44CHL1  H27C 5736   3.958   6.598   8.832 -0.0463 -0.5546  1.6757
   45CHL1    C3 5737   0.100   4.767  10.113  0.5756 -0.3235  0.2139
   45CHL1    H3 5738   0.145   4.665  10.112 -0.2591 -0.7074 -0.8989
   45CHL1    O3 5739   0.087   4.823  10.240 -0.5179 -0.4538 -0.2457
   45CHL1   H3' 5740   0.125   4.912  10.239  0.7185 -0.9663 -1.2324
   45CHL1    C4 5741   0.175   4.857  10.012  0.3192  0.5477  0.1013
   45CHL1   H4A 5742   0.129   4.956   9.991 -1.7843 -0.3944 -0.0553
   45CHL1   H4B 5743   0.276   4.883  10.048 -0.6035  1.6767  2.0717
   45CHL1    C5 5744   0.178   4.791   9.875 -0.1312 -0.5174  0.0219
   45CHL1    C6 5745   0.304   4.761   9.819  0.5765  0.0577  0.0187
   45CHL1    H6 5746   0.393   4.787   9.878  2.0044 -0.8724 -1.6369
   45CHL1    C7 5747   0.317   4.668   9.701  0.0262  0.5932 -0.4062
   45CHL1   H7A 5748   0.418   4.667   9.656 -0.7840  1.4530 -2.3710
   45CHL1   H7B 5749   0.304   4.562   9.732 -0.5067  0.5969 -0.5938
   45CHL1    C8 5750   0.204   4.693   9.598 -0.2380 -0.2156 -0.6169
   45CHL1    H8 5751   0.216   4.615   9.520  0.9753 -1.8763  1.1460
   45CHL1   C14 5752   0.211   4.833   9.526  0.1324  0.0495  0.0507
   45CHL1   H14 5753   0.214   4.916   9.600 -0.3164  0.3454 -0.2506
   45CHL1   C15 5754   0.339   4.841   9.431  0.3945  0.4557 -0.3263
   45CHL1  H15A 5755   0.369   4.948   9.420  0.1476  0.6066  0.4560
   45CHL1  H15B 5756   0.417   4.784   9.486 -1.0291 -1.4164 -0.1774
   45CHL1   C16 5757   0.302   4.785   9.296 -0.2159 -0.3537 -0.3644
   45CHL1  H16A 5758   0.330   4.868   9.228 -1.9643  1.8683  1.4843
   45CHL1  H16B 5759   0.363   4.695   9.273 -0.3661 -0.4686 -0.3166
   45CHL1   C17 5760   0.147   4.766   9.302 -0.1267 -0.5183 -0.1585
   45CHL1   H17 5761   0.145   4.661   9.338  1.4029 -0.4091  0.3305
   45CHL1   C13 5762   0.096   4.851   9.418 -0.1605  1.1920 -0.0607
   45CHL1   C18 5763   0.079   5.000   9.386 -0.2351 -0.3433 -0.0835
   45CHL1  H18A 5764   0.167   5.051   9.342 -1.9056  1.0729 -1.9445
   45CHL1  H18B 5765  -0.008   5.013   9.318 -0.7710 -3.6299 -0.1993
   45CHL1  H18C 5766   0.060   5.043   9.487  0.2778 -1.5602  0.5495
   45CHL1   C12 5767  -0.041   4.793   9.466  0.2758  0.4452 -0.0758
   45CHL1  H12A 5768  -0.093   4.878   9.515  1.7087  0.9742  0.5828
   45CHL1  H12B 5769  -0.098   4.759   9.377 -1.3484  4.5775 -0.8517
   45CHL1   C11 5770  -0.038   4.667   9.560  0.0362 -0.5389 -0.2920
   45CHL1  H11A 5771  -0.134   4.632   9.603 -0.3285  0.9397  0.1275
   45CHL1  H11B 5772  -0.007   4.590   9.486  0.2889  0.3579 -1.1339
   45CHL1    C9 5773   0.067   4.677   9.670 -0.1193  0.5410 -1.0274
   45CHL1    H9 5774   0.073   4.576   9.715  2.4961  0.6868 -0.8907
   45CHL1   C10 5775   0.044   4.760   9.802 -0.8752 -0.5392  0.6328
   45CHL1   C19 5776  -0.029   4.892   9.763 -0.2730  0.3609  0.5551
   45CHL1  H19A 5777   0.021   4.952   9.684  0.1074  1.1471  1.3825
   45CHL1  H19B 5778  -0.131   4.859   9.734 -0.3688  0.1242  1.1517
   45CHL1  H19C 5779  -0.042   4.953   9.855  0.7646  1.2798  0.1160
   45CHL1    C1 5780  -0.035   4.687   9.913  0.1728  0.4818 -0.0215
   45CHL1   H1A 5781  -0.134   4.659   9.871  1.6479 -0.6540 -3.0348
   45CHL1   H1B 5782   0.006   4.585   9.930 -4.3558 -1.9750 -1.9381
   45CHL1    C2 5783  -0.044   4.744  10.057 -0.2456 -0.6214 -1.1477
   45CHL1   H2A 5784  -0.099   4.671  10.121 -1.4826  1.8932  0.8286
   45CHL1   H2B 5785  -0.104   4.837  10.063 -0.3912 -0.5593 -2.8870
   45CHL1   C20 5786   0.073   4.773   9.172  0.1422 -0.1232 -0.0992
   45CHL1   H20 5787  -0.013   4.842   9.188  0.3012 -0.0861  0.6551
   45CHL1   C21 5788   0.006   4.639   9.135 -0.0724 -0.5226  0.1669
   45CHL1  H21A 5789  -0.075   4.654   9.060 -1.5247  0.1590  1.8131
   45CHL1  H21B 5790  -0.045   4.599   9.225  1.4702  0.0190  1.3381
   45CHL1  H21C 5791   0.087   4.566   9.113  0.4853 -0.6549  2.4666
   45CHL1   C22 5792   0.153   4.839   9.053 -0.4349  1.0799  0.1272
   45CHL1  H22A 5793   0.165   4.947   9.078 -0.8944  1.1064  0.2317
   45CHL1  H22B 5794   0.239   4.777   9.020  0.1519  1.6236  0.6082
   45CHL1   C23 5795   0.083   4.849   8.912 -0.0263  0.1606 -0.0161
   45CHL1  H23A 5796   0.078   4.750   8.862  0.4239  0.2509 -0.2460
   45CHL1  H23B 5797  -0.023   4.872   8.936  0.0863  0.5879  0.0819
   45CHL1   C24 5798   0.144   4.937   8.804 -0.4542  0.1229  0.4904
   45CHL1  H24A 5799   0.172   5.035   8.848  1.6920 -1.3292  2.6620
   45CHL1  H24B 5800   0.242   4.891   8.777 -0.4957  0.6025 -0.5032
   45CHL1   C25 5801   0.049   4.933   8.677  0.1559 -0.4509  0.1531
   45CHL1   H25 5802  -0.007   4.838   8.688 -3.4689  1.5748  0.8039
   45CHL1   C26 5803  -0.052   5.044   8.679 -0.7767 -0.3231 -0.0456
   45CHL1  H26A 5804  -0.117   5.055   8.590  0.6127  1.2380 -0.9169
   45CHL1  H26B 5805  -0.123   5.051   8.764 -2.1088  0.1546 -1.1630
   45CHL1  H26C 5806   0.001   5.141   8.674 -0.5022 -0.5291 -2.2447
   45CHL1   C27 5807   0.138   4.934   8.541  0.8635 -0.1659 -0.6164
   45CHL1  H27A 5808   0.205   5.023   8.541  0.3172  0.3143 -3.2359
   45CHL1  H27B 5809   0.199   4.841   8.545  0.0008 -0.7146  0.4005
   45CHL1  H27C 5810   0.070   4.934   8.453 -1.2887  0.0314  0.9693
   46CHL1    C3 5811   3.396   0.833   9.984 -0.3615  0.4641  0.3003
   46CHL1    H3 5812   3.363   0.747   9.923 -2.5891  1.3776  0.1307
   46CHL1    O3 5813   3.358   0.793  10.114  0.6077  0.1730  0.7697
   46CHL1   H3' 5814   3.362   0.875  10.165 -2.5915  1.0426 -0.1436
   46CHL1    C4 5815   3.546   0.859   9.992 -0.0095 -0.0249  0.2848
   46CHL1   H4A 5816   3.562   0.931  10.075 -0.4886  0.2414  0.1485
   46CHL1   H4B 5817   3.592   0.767  10.034 -1.7760 -1.5433 -0.8981
   46CHL1    C5 5818   3.601   0.910   9.860  0.2085 -0.6599  0.2282
   46CHL1    C6 5819   3.698   0.840   9.793  0.7847 -0.2568 -0.0670
   46CHL1    H6 5820   3.735   0.751   9.847  0.4491  0.2627  1.0658
   46CHL1    C7 5821   3.757   0.874   9.656 -0.1008 -0.5957  0.3651
   46CHL1   H7A 5822   3.867   0.856   9.654  0.0600 -0.2313 -4.3732
   46CHL1   H7B 5823   3.737   0.814   9.565  3.2898 -1.5369  0.0884
   46CHL1    C8 5824   3.716   1.018   9.616 -0.6058  0.0388 -0.2438
   46CHL1    H8 5825   3.787   1.078   9.677  0.8019  0.8451 -2.5416
   46CHL1   C14 5826   3.750   1.043   9.465  0.1830  0.3844 -0.6668
   46CHL1   H14 5827   3.685   0.968   9.415  0.6871  0.3272 -1.2576
   46CHL1   C15 5828   3.896   1.010   9.411  0.1086 -0.4780 -0.8709
   46CHL1  H15A 5829   3.960   1.050   9.493 -2.1512 -1.3099  1.4605
   46CHL1  H15B 5830   3.922   0.903   9.397 -2.0912 -1.1808 -0.1102
   46CHL1   C16 5831   3.904   1.091   9.280 -0.8582  0.2261  0.4436
   46CHL1  H16A 5832   3.989   1.162   9.276 -0.4638 -0.1992  1.0525
   46CHL1  H16B 5833   3.910   1.031   9.186 -0.2862  1.3842 -0.2761
   46CHL1   C17 5834   3.766   1.169   9.266  0.4072 -0.0180  0.1368
   46CHL1   H17 5835   3.703   1.096   9.211  1.3826  0.9337 -2.3838
   46CHL1   C13 5836   3.717   1.179   9.411 -0.3818  0.0971 -0.3362
   46CHL1   C18 5837   3.805   1.284   9.489 -0.5627  0.0308  0.1332
   46CHL1  H18A 5838   3.914   1.264   9.476 -0.7983 -0.5210 -1.1097
   46CHL1  H18B 5839   3.786   1.385   9.448 -1.1460 -0.5933 -1.2029
   46CHL1  H18C 5840   3.780   1.283   9.597  0.5807 -1.1550  0.4162
   46CHL1   C12 5841   3.567   1.194   9.430  0.4660 -0.2502  0.0748
   46CHL1  H12A 5842   3.542   1.299   9.403 -2.1960 -1.1426 -1.2107
   46CHL1  H12B 5843   3.520   1.125   9.358 -1.1056 -0.1493  0.9600
   46CHL1   C11 5844   3.520   1.174   9.576  0.6200  0.3794  0.6178
   46CHL1  H11A 5845   3.556   1.259   9.638 -0.3379 -0.7074  2.7579
   46CHL1  H11B 5846   3.410   1.181   9.587  0.4747 -1.7394  1.0155
   46CHL1    C9 5847   3.569   1.044   9.637  0.1892  0.5634 -0.5745
   46CHL1    H9 5848   3.514   0.965   9.581 -2.7557  3.8842 -2.8258
   46CHL1   C10 5849   3.530   1.029   9.792  0.2425  0.6348  0.4216
   46CHL1   C19 5850   3.565   1.163   9.869 -0.3356  0.5644  0.3812
   46CHL1  H19A 5851   3.662   1.201   9.831 -0.8439  1.4828 -0.0198
   46CHL1  H19B 5852   3.489   1.243   9.857  0.0484  1.3970  2.8847
   46CHL1  H19C 5853   3.575   1.148   9.979  0.6297 -0.3612  0.1819
   46CHL1    C1 5854   3.375   1.003   9.798  0.1704 -0.3133  0.5194
   46CHL1   H1A 5855   3.326   1.096   9.761  0.6293 -0.0864  0.4723
   46CHL1   H1B 5856   3.347   0.919   9.731  0.1970  0.7842 -0.9087
   46CHL1    C2 5857   3.333   0.960   9.940  0.6656 -0.1387 -0.0962
   46CHL1   H2A 5858   3.223   0.947   9.928  0.8482 -0.8496 -1.1059
   46CHL1   H2B 5859   3.359   1.039  10.014 -1.6148 -0.1557  0.8103
   46CHL1   C20 5860   3.761   1.297   9.184  0.0041 -0.5517 -0.0104
   46CHL1   H20 5861   3.778   1.380   9.255  0.6202 -0.6788 -0.0013
   46CHL1   C21 5862   3.626   1.330   9.117 -0.2904  0.0398 -0.5409
   46CHL1  H21A 5863   3.548   1.336   9.196 -2.1004  2.1143 -2.3208
   46CHL1  H21B 5864   3.606   1.246   9.046 -1.7868 -0.9631  0.9923
   46CHL1  H21C 5865   3.624   1.426   9.061  0.0267  0.0564 -0.5234
   46CHL1   C22 5866   3.876   1.317   9.083 -0.0467  0.2649  0.2632
   46CHL1  H22A 5867   3.860   1.424   9.056  0.1790  0.8781  2.4399
   46CHL1  H22B 5868   3.977   1.316   9.127 -0.2655 -0.6453  0.7571
   46CHL1   C23 5869   3.873   1.225   8.957 -0.9171 -0.9287  0.1312
   46CHL1  H23A 5870   3.897   1.118   8.971 -0.0480 -1.1801 -2.7756
   46CHL1  H23B 5871   3.770   1.229   8.917 -1.1575  0.6124  0.8180
   46CHL1   C24 5872   3.976   1.276   8.854 -0.0613 -0.2065  0.6461
   46CHL1  H24A 5873   3.953   1.383   8.832 -1.2456  0.0021  2.6094
   46CHL1  H24B 5874   4.078   1.275   8.898  0.0771 -1.7049  0.3331
   46CHL1   C25 5875   3.958   1.199   8.722 -0.4961  0.7904 -0.3575
   46CHL1   H25 5876   3.851   1.200   8.690 -0.0212  3.2905 -2.2231
   46CHL1   C26 5877   4.029   1.284   8.617 -1.4972  0.5427  0.2145
   46CHL1  H26A 5878   4.139   1.287   8.634 -0.9072 -2.9012 -1.9541
   46CHL1  H26B 5879   4.013   1.248   8.513  0.8433 -0.9576  0.3139
   46CHL1  H26C 5880   3.985   1.385   8.631  2.2922  2.0138  4.0069
   46CHL1   C27 5881   4.001   1.050   8.722 -0.8801  0.5575 -0.3822
   46CHL1  H27A 5882   4.005   1.009   8.619 -0.2074 -1.2197  0.3197
   46CHL1  H27B 5883   4.100   1.029   8.767 -1.5840 -2.1229  0.0773
   46CHL1  H27C 5884   3.935   0.998   8.795  1.5173 -0.7259  1.0160
   47CHL1    C3 5885   2.867   6.096   9.970  0.7513 -0.0244 -0.1905
   47CHL1    H3 5886   2.883   6.206   9.961  1.4473 -0.1965 -1.2201
   47CHL1    O3 5887   2.845   6.069  10.110 -0.6987  0.3181  0.1620
   47CHL1   H3' 5888   2.852   5.974  10.113 -0.0765  0.3409 -0.2420
   47CHL1    C4 5889   2.747   6.047   9.884 -0.0715  0.1322 -0.6133
   47CHL1   H4A 5890   2.722   5.946   9.923 -1.3147  0.7407  0.2380
   47CHL1   H4B 5891   2.665   6.114   9.919 -0.2673 -0.4493  0.0589
   47CHL1    C5 5892   2.772   6.044   9.740  0.4906 -0.6305  0.3549
   47CHL1    C6 5893   2.684   6.105   9.660 -0.4427 -0.3605  0.1082
   47CHL1    H6 5894   2.590   6.155   9.688 -0.8151 -1.4928  0.9395
   47CHL1    C7 5895   2.686   6.105   9.514  0.1638 -0.7919  0.0678
   47CHL1   H7A 5896   2.587   6.080   9.470  0.0157  1.2529 -0.9110
   47CHL1   H7B 5897   2.714   6.206   9.476  0.1170 -0.3640  1.1525
   47CHL1    C8 5898   2.787   6.002   9.465  0.2906 -0.3510 -0.2411
   47CHL1    H8 5899   2.741   5.902   9.476 -1.0290  0.3201  0.6383
   47CHL1   C14 5900   2.826   6.022   9.315 -0.0484  0.6356 -0.4971
   47CHL1   H14 5901   2.869   6.124   9.310  1.5108  0.0755  0.9537
   47CHL1   C15 5902   2.710   6.036   9.206  0.1197 -0.2561  0.0398
   47CHL1  H15A 5903   2.632   5.957   9.216  1.1353 -1.4010 -0.7532
   47CHL1  H15B 5904   2.664   6.137   9.207 -0.8202 -0.6675  1.3842
   47CHL1   C16 5905   2.784   6.019   9.076 -0.7372  0.0761  0.4492
   47CHL1  H16A 5906   2.740   5.949   9.002 -0.3050 -0.4848  0.7166
   47CHL1  H16B 5907   2.799   6.113   9.020 -0.5007  0.6717  1.4834
   47CHL1   C17 5908   2.933   5.983   9.112  0.2054  0.3566  0.1130
   47CHL1   H17 5909   2.985   6.080   9.124 -2.3614  1.8560 -0.2165
   47CHL1   C13 5910   2.933   5.925   9.257 -0.1960 -0.5590  0.1409
   47CHL1   C18 5911   2.887   5.775   9.262  0.1444 -0.4506 -0.3899
   47CHL1  H18A 5912   2.793   5.769   9.205 -0.6590  2.3041  0.4742
   47CHL1  H18B 5913   2.970   5.709   9.229  0.2302  0.6053 -2.4499
   47CHL1  H18C 5914   2.861   5.739   9.364  0.1426 -0.3469 -0.3534
   47CHL1   C12 5915   3.066   5.942   9.331  0.7491  0.0008 -0.1517
   47CHL1  H12A 5916   3.141   5.867   9.299  1.4075  0.3135  0.6107
   47CHL1  H12B 5917   3.111   6.044   9.331 -1.4878  1.0816  1.1742
   47CHL1   C11 5918   3.039   5.916   9.485 -0.3714  0.2274  0.3669
   47CHL1  H11A 5919   3.017   5.807   9.485  2.5688 -0.5780 -3.0752
   47CHL1  H11B 5920   3.134   5.928   9.543 -0.3807  0.4518  0.3369
   47CHL1    C9 5921   2.922   5.998   9.547 -0.3667  0.3610 -0.4674
   47CHL1    H9 5922   2.966   6.100   9.542 -0.6781  0.5441  0.4202
   47CHL1   C10 5923   2.901   5.976   9.700 -0.2771 -0.3895 -0.3629
   47CHL1   C19 5924   2.890   5.827   9.722  0.5924  0.2192  0.2069
   47CHL1  H19A 5925   2.980   5.771   9.689 -0.1753  0.0858 -1.8093
   47CHL1  H19B 5926   2.861   5.804   9.827 -2.3601  1.4882 -0.2425
   47CHL1  H19C 5927   2.801   5.780   9.676 -0.2614 -1.3133  3.1676
   47CHL1    C1 5928   3.019   6.035   9.783  0.2679 -0.1197  0.3339
   47CHL1   H1A 5929   3.114   5.983   9.757  0.3542  0.4289 -0.4545
   47CHL1   H1B 5930   3.028   6.140   9.749  0.7157 -0.1271  0.4245
   47CHL1    C2 5931   2.997   6.021   9.932 -0.3933  0.8936 -0.3058
   47CHL1   H2A 5932   3.087   6.059   9.984  1.6715 -1.7486 -1.7119
   47CHL1   H2B 5933   2.980   5.915   9.963  2.3139  0.7099  0.7654
   47CHL1   C20 5934   2.997   5.894   9.004 -0.0423  0.3136  0.0439
   47CHL1   H20 5935   2.931   5.805   9.009  0.6781 -0.2381  0.0155
   47CHL1   C21 5936   3.154   5.865   9.014  0.6332 -0.5770  0.1487
   47CHL1  H21A 5937   3.170   5.791   9.095  1.9860  1.0286  1.4279
   47CHL1  H21B 5938   3.196   5.964   9.043 -0.5776  0.2077 -0.7004
   47CHL1  H21C 5939   3.194   5.834   8.916 -0.9659 -0.5676 -0.5312
   47CHL1   C22 5940   2.976   5.956   8.858 -0.2795  0.7869 -0.4555
   47CHL1  H22A 5941   3.029   5.882   8.794  0.4310  0.5973  0.3320
   47CHL1  H22B 5942   2.869   5.957   8.828  0.1545 -0.1977 -2.2395
   47CHL1   C23 5943   3.051   6.077   8.814  0.0193 -0.5013 -0.3199
   47CHL1  H23A 5944   3.041   6.154   8.894  1.5326  1.0031 -1.4932
   47CHL1  H23B 5945   3.160   6.061   8.801  0.2812  1.3053 -0.5515
   47CHL1   C24 5946   3.007   6.139   8.681  0.3534 -0.2302  0.0055
   47CHL1  H24A 5947   2.991   6.060   8.605 -0.9693  0.6008 -0.6293
   47CHL1  H24B 5948   2.904   6.182   8.690  0.0566 -0.5634 -1.5009
   47CHL1   C25 5949   3.108   6.234   8.627 -0.3000  0.1884  0.5927
   47CHL1   H25 5950   3.195   6.172   8.597 -0.9338  0.6894 -2.6108
   47CHL1   C26 5951   3.054   6.306   8.498 -0.1122  0.5150  0.3552
   47CHL1  H26A 5952   3.127   6.383   8.467 -1.5204  2.1539  0.9046
   47CHL1  H26B 5953   2.956   6.353   8.522 -0.1486  1.1855 -0.9787
   47CHL1  H26C 5954   3.022   6.228   8.426  1.4409  0.7752 -0.6430
   47CHL1   C27 5955   3.169   6.335   8.729 -0.1782 -0.0105  1.0257
   47CHL1  H27A 5956   3.084   6.398   8.765 -0.3448  0.3000  0.1068
   47CHL1  H27B 5957   3.197   6.277   8.820 -0.1767  0.3377  1.2496
   47CHL1  H27C 5958   3.250   6.400   8.689 -0.2227  0.5952  1.8894
   48CHL1    C3 5959   5.743   5.915  10.083  0.3173  0.7896 -0.3639
   48CHL1    H3 5960   5.654   5.858  10.050 -2.0574  2.4844  2.6324
   48CHL1    O3 5961   5.779   5.886  10.221 -0.2812  0.1660  0.3012
   48CHL1   H3' 5962   5.858   5.938  10.236  0.5021 -0.9528  0.1504
   48CHL1    C4 5963   5.872   5.893   9.993  0.2558 -1.1056  0.2342
   48CHL1   H4A 5964   5.960   5.953  10.027  0.1408 -0.4830 -0.5365
   48CHL1   H4B 5965   5.900   5.787  10.009  0.7277 -1.2686 -1.4932
   48CHL1    C5 5966   5.831   5.926   9.856 -0.9410  0.6007  1.0366
   48CHL1    C6 5967   5.823   5.829   9.759 -1.0472  0.1417  0.2983
   48CHL1    H6 5968   5.842   5.725   9.786 -0.5348  0.2049  0.1996
   48CHL1    C7 5969   5.813   5.848   9.610 -0.8415  0.0887  0.3283
   48CHL1   H7A 5970   5.895   5.796   9.556  0.1919  1.7834  0.2280
   48CHL1   H7B 5971   5.715   5.817   9.567 -0.6477  0.2025 -0.2081
   48CHL1    C8 5972   5.831   6.001   9.584  0.0227 -0.7344  0.2648
   48CHL1    H8 5973   5.941   6.016   9.599  0.3358 -0.6378 -1.9205
   48CHL1   C14 5974   5.788   6.037   9.442 -0.0974 -0.2494  0.3098
   48CHL1   H14 5975   5.677   6.034   9.442 -0.1289  0.1355 -1.3472
   48CHL1   C15 5976   5.837   5.947   9.333  0.2966 -0.1521  0.5101
   48CHL1  H15A 5977   5.938   5.901   9.338  0.7818  0.3650 -2.4184
   48CHL1  H15B 5978   5.766   5.862   9.325 -0.1894  0.4183 -2.8857
   48CHL1   C16 5979   5.815   6.027   9.204  0.2412 -0.0743  0.4646
   48CHL1  H16A 5980   5.909   6.038   9.146  0.1040  1.6644  0.5006
   48CHL1  H16B 5981   5.738   5.984   9.136  0.6305  0.3136 -0.2265
   48CHL1   C17 5982   5.786   6.179   9.248  0.4804  0.0540 -0.0637
   48CHL1   H17 5983   5.675   6.184   9.236  0.6241  0.7621 -1.2230
   48CHL1   C13 5984   5.820   6.184   9.400  0.1820  0.2185 -0.5058
   48CHL1   C18 5985   5.976   6.204   9.410  0.2404 -0.5050 -0.5920
   48CHL1  H18A 5986   6.012   6.188   9.514 -0.4389  0.5945 -0.1686
   48CHL1  H18B 5987   6.036   6.135   9.347 -0.7727 -1.2684 -0.7458
   48CHL1  H18C 5988   6.003   6.312   9.399 -0.1661 -0.3566 -0.1660
   48CHL1   C12 5989   5.728   6.271   9.488  0.1173  0.4800  0.5439
   48CHL1  H12A 5990   5.737   6.382   9.478  1.5093  0.4227  0.9566
   48CHL1  H12B 5991   5.620   6.247   9.476  0.4282 -1.0344  0.5982
   48CHL1   C11 5992   5.767   6.245   9.638  0.4037 -1.0709  0.2891
   48CHL1  H11A 5993   5.869   6.287   9.647 -0.3366  0.5891  1.6723
   48CHL1  H11B 5994   5.700   6.307   9.702 -0.1248  0.0282 -1.2571
   48CHL1    C9 5995   5.761   6.099   9.684  0.3543 -0.2058  0.2258
   48CHL1    H9 5996   5.653   6.072   9.690  0.4728 -0.3565  3.5433
   48CHL1   C10 5997   5.805   6.074   9.828 -0.1833  0.3227 -0.1046
   48CHL1   C19 5998   5.931   6.152   9.864 -0.4428 -0.4486  0.3567
   48CHL1  H19A 5999   5.919   6.262   9.859  0.3045 -0.2829  1.6086
   48CHL1  H19B 6000   5.952   6.133   9.972 -0.3090  2.0527  0.8292
   48CHL1  H19C 6001   6.021   6.122   9.807  0.3739  0.7919  0.9326
   48CHL1    C1 6002   5.685   6.107   9.926 -0.4477 -0.6215  0.2752
   48CHL1   H1A 6003   5.663   6.216   9.922 -0.5666 -0.6515  0.1334
   48CHL1   H1B 6004   5.597   6.050   9.891 -1.5300  0.5543  0.9936
   48CHL1    C2 6005   5.707   6.065  10.068  0.1326  0.1044 -0.2589
   48CHL1   H2A 6006   5.607   6.066  10.116  0.1014 -0.6533 -0.2913
   48CHL1   H2B 6007   5.777   6.134  10.120  1.9600 -0.9272 -1.2316
   48CHL1   C20 6008   5.836   6.292   9.159  0.6868 -0.3437 -0.0707
   48CHL1   H20 6009   5.947   6.297   9.169  0.6826  0.1060 -0.2415
   48CHL1   C21 6010   5.764   6.424   9.197  0.5954  0.1183  0.1257
   48CHL1  H21A 6011   5.791   6.461   9.298  0.7386 -0.8518  0.4513
   48CHL1  H21B 6012   5.654   6.413   9.188  0.5596  1.4968 -1.5544
   48CHL1  H21C 6013   5.788   6.502   9.122 -0.9711 -0.6422 -1.2363
   48CHL1   C22 6014   5.806   6.269   9.013 -0.4118  0.4302 -0.7414
   48CHL1  H22A 6015   5.868   6.180   8.989  0.2750  0.8454 -0.5209
   48CHL1  H22B 6016   5.699   6.245   8.996 -1.0414  2.3974  0.1274
   48CHL1   C23 6017   5.851   6.372   8.910 -0.7768  0.0283  0.0824
   48CHL1  H23A 6018   5.782   6.458   8.895 -0.4434  0.5765  1.5721
   48CHL1  H23B 6019   5.952   6.407   8.940  0.5259 -1.0040 -2.7292
   48CHL1   C24 6020   5.882   6.316   8.777  0.0599  0.8195 -0.0878
   48CHL1  H24A 6021   5.966   6.243   8.792 -1.2929 -0.5642  1.1118
   48CHL1  H24B 6022   5.799   6.254   8.736  0.9708 -0.1768 -0.4831
   48CHL1   C25 6023   5.933   6.417   8.668  0.1754 -0.4414 -0.0729
   48CHL1   H25 6024   5.964   6.510   8.721  3.2847 -0.1485 -2.0762
   48CHL1   C26 6025   6.058   6.374   8.596 -0.5526  0.5152 -0.4471
   48CHL1  H26A 6026   6.032   6.293   8.524  3.1881 -1.1094 -0.1925
   48CHL1  H26B 6027   6.106   6.454   8.536 -2.3574  1.4127 -0.7431
   48CHL1  H26C 6028   6.131   6.338   8.672 -0.1679  1.8943 -0.1396
   48CHL1   C27 6029   5.817   6.451   8.570 -0.5979 -0.3195  0.2871
   48CHL1  H27A 6030   5.793   6.363   8.507 -1.8496 -0.2860  0.6891
   48CHL1  H27B 6031   5.723   6.478   8.622 -0.9370 -1.7079  0.4255
   48CHL1  H27C 6032   5.856   6.536   8.510  0.5648 -0.2392  1.1030
   49CHL1    C3 6033   3.317   1.712   9.981 -0.4782 -0.4451  0.2747
   49CHL1    H3 6034   3.240   1.652   9.928  0.2760 -1.3785  0.2001
   49CHL1    O3 6035   3.310   1.689  10.125 -0.0208 -0.2613 -0.1599
   49CHL1   H3' 6036   3.403   1.701  10.145 -0.2046  1.0211  0.0207
   49CHL1    C4 6037   3.450   1.636   9.936  0.8732 -0.6437  0.6327
   49CHL1   H4A 6038   3.534   1.666  10.002  0.2936 -1.0359  1.5616
   49CHL1   H4B 6039   3.429   1.528   9.951  1.1598 -1.1016 -1.7994
   49CHL1    C5 6040   3.471   1.657   9.787  0.5865 -0.5810  0.5833
   49CHL1    C6 6041   3.494   1.561   9.695  0.2590 -0.4119 -0.0840
   49CHL1    H6 6042   3.511   1.462   9.740 -1.6072 -0.5920  0.3026
   49CHL1    C7 6043   3.515   1.584   9.547  0.1015 -0.3777  0.0416
   49CHL1   H7A 6044   3.583   1.512   9.498 -1.2626  1.1150 -4.4709
   49CHL1   H7B 6045   3.419   1.560   9.498  0.6096 -2.5090  0.0032
   49CHL1    C8 6046   3.557   1.733   9.502 -0.0148  0.4306  0.0369
   49CHL1    H8 6047   3.662   1.747   9.536 -0.2005 -0.3885  0.9863
   49CHL1   C14 6048   3.545   1.747   9.356  0.6292  1.0321 -0.9065
   49CHL1   H14 6049   3.437   1.740   9.334 -0.1817 -0.0508  2.7988
   49CHL1   C15 6050   3.619   1.647   9.266  0.3058 -0.3289 -0.1197
   49CHL1  H15A 6051   3.723   1.647   9.306  1.2276  1.0645 -2.3524
   49CHL1  H15B 6052   3.581   1.543   9.271  0.6940 -0.4221  1.6765
   49CHL1   C16 6053   3.626   1.718   9.127  0.1803  0.1526 -0.1242
   49CHL1  H16A 6054   3.731   1.724   9.091  0.1107 -0.9274 -0.5372
   49CHL1  H16B 6055   3.564   1.676   9.044 -1.0070 -0.6172  1.1059
   49CHL1   C17 6056   3.557   1.856   9.146 -0.0974  0.5785  0.4798
   49CHL1   H17 6057   3.449   1.834   9.136  0.4797 -2.6398  0.0821
   49CHL1   C13 6058   3.572   1.887   9.298 -0.6251  0.6240  0.1017
   49CHL1   C18 6059   3.716   1.930   9.337  0.1650 -0.4698 -0.3606
   49CHL1  H18A 6060   3.734   2.039   9.324  1.2443 -0.6662 -0.5672
   49CHL1  H18B 6061   3.738   1.906   9.442 -1.8968 -1.3164 -0.0690
   49CHL1  H18C 6062   3.795   1.880   9.277  1.2052 -1.1235  1.4821
   49CHL1   C12 6063   3.472   1.982   9.368  0.5837  0.2553 -0.3825
   49CHL1  H12A 6064   3.488   2.088   9.339  0.2330  0.9061  1.6665
   49CHL1  H12B 6065   3.369   1.950   9.341  0.6051 -0.9561  0.9055
   49CHL1   C11 6066   3.473   1.985   9.522  0.4067  0.3032  0.6718
   49CHL1  H11A 6067   3.565   2.024   9.572  0.3438 -2.1455  2.9341
   49CHL1  H11B 6068   3.392   2.053   9.558  0.1107  0.2866  0.0413
   49CHL1    C9 6069   3.462   1.833   9.581 -0.3967 -0.4867  0.8188
   49CHL1    H9 6070   3.356   1.818   9.550 -0.3261  1.1488 -0.3233
   49CHL1   C10 6071   3.463   1.808   9.738  0.4690  0.5571  0.9065
   49CHL1   C19 6072   3.589   1.884   9.795  0.5119 -0.6913  0.2306
   49CHL1  H19A 6073   3.681   1.858   9.740 -0.8442 -2.0364 -1.5133
   49CHL1  H19B 6074   3.575   1.994   9.791  0.4735 -0.7316 -1.0256
   49CHL1  H19C 6075   3.613   1.852   9.899  0.2313 -1.4834  0.0577
   49CHL1    C1 6076   3.340   1.876   9.798  0.8564  0.1775 -0.2946
   49CHL1   H1A 6077   3.343   1.983   9.767  0.0435  0.4964  0.7027
   49CHL1   H1B 6078   3.251   1.832   9.748 -1.8712  1.2632  3.1860
   49CHL1    C2 6079   3.318   1.857   9.947  0.5367 -0.2083 -0.1128
   49CHL1   H2A 6080   3.219   1.898   9.977 -0.1878 -2.0255  0.1316
   49CHL1   H2B 6081   3.386   1.925  10.001 -2.6198  4.7220 -1.7118
   49CHL1   C20 6082   3.605   1.956   9.045 -0.4721 -0.0271  0.1839
   49CHL1   H20 6083   3.715   1.968   9.055 -0.0894 -1.9529 -0.9990
   49CHL1   C21 6084   3.537   2.095   9.068  0.3698  0.5411  0.6557
   49CHL1  H21A 6085   3.426   2.089   9.066  0.3660  0.7106  0.2817
   49CHL1  H21B 6086   3.565   2.175   8.996  0.7399 -0.5858 -0.4805
   49CHL1  H21C 6087   3.576   2.145   9.160  1.3651 -0.8450  1.0055
   49CHL1   C22 6088   3.578   1.907   8.899  0.0703 -0.5056 -0.2450
   49CHL1  H22A 6089   3.622   1.806   8.886 -1.9312 -1.4992  0.2581
   49CHL1  H22B 6090   3.469   1.889   8.894  0.5381 -3.7153 -1.2700
   49CHL1   C23 6091   3.642   1.999   8.798 -0.0585 -0.0849  0.3558
   49CHL1  H23A 6092   3.599   2.101   8.807  3.4206  1.6143 -0.6638
   49CHL1  H23B 6093   3.751   2.008   8.818  0.1947  2.2089 -1.6365
   49CHL1   C24 6094   3.630   1.945   8.654  0.0937  0.6731  0.1250
   49CHL1  H24A 6095   3.690   1.853   8.639 -0.5466  0.5518 -2.1751
   49CHL1  H24B 6096   3.523   1.918   8.636  0.5802 -2.3702  1.2085
   49CHL1   C25 6097   3.681   2.032   8.549 -0.0571 -0.1227 -0.1198
   49CHL1   H25 6098   3.784   2.068   8.571 -0.3092  0.1024  0.7589
   49CHL1   C26 6099   3.691   1.958   8.417  0.1367 -0.3815  0.0744
   49CHL1  H26A 6100   3.770   2.006   8.356  1.9351 -1.9293  1.0609
   49CHL1  H26B 6101   3.711   1.849   8.425 -1.4167 -0.8175 -1.4048
   49CHL1  H26C 6102   3.592   1.957   8.367  1.0493  2.1273 -1.9605
   49CHL1   C27 6103   3.606   2.165   8.541  0.2933  0.1367 -0.3762
   49CHL1  H27A 6104   3.627   2.205   8.440 -0.0216  1.5360  0.0842
   49CHL1  H27B 6105   3.496   2.150   8.541  0.1782  0.9378  0.1282
   49CHL1  H27C 6106   3.636   2.241   8.616  0.4943  1.4258 -1.7140
   50CHL1    C3 6107   4.374   4.561   9.985 -0.1987  0.3467 -0.1575
   50CHL1    H3 6108   4.377   4.670   9.965  0.5095  0.4084  0.2307
   50CHL1    O3 6109   4.329   4.537  10.116 -0.4537  0.1177  0.0821
   50CHL1   H3' 6110   4.355   4.448  10.140 -1.9107 -0.5026 -0.5149
   50CHL1    C4 6111   4.285   4.482   9.877 -0.6937  0.1688 -0.1850
   50CHL1   H4A 6112   4.285   4.374   9.900  0.3873  0.8155  3.3705
   50CHL1   H4B 6113   4.182   4.520   9.894 -0.2174  0.8561  1.3269
   50CHL1    C5 6114   4.334   4.509   9.737  0.1686  0.2502  0.6322
   50CHL1    C6 6115   4.247   4.547   9.636  0.3047 -0.1774  0.2264
   50CHL1    H6 6116   4.142   4.570   9.658  0.5040  0.7246  0.2994
   50CHL1    C7 6117   4.281   4.550   9.489 -0.1330 -0.8617 -0.0708
   50CHL1   H7A 6118   4.199   4.506   9.429 -0.7891 -0.1245  0.2658
   50CHL1   H7B 6119   4.294   4.657   9.463 -1.5155 -0.5272  0.5073
   50CHL1    C8 6120   4.419   4.483   9.463  0.5590 -1.2012 -0.0069
   50CHL1    H8 6121   4.411   4.373   9.458  4.0653 -1.5608 -0.3236
   50CHL1   C14 6122   4.477   4.527   9.326 -0.0385 -0.3745 -0.3573
   50CHL1   H14 6123   4.501   4.634   9.339  2.8866 -1.1389  1.4604
   50CHL1   C15 6124   4.380   4.523   9.204 -0.1478  0.6908  0.4412
   50CHL1  H15A 6125   4.325   4.426   9.206  0.9533 -0.0061 -1.0660
   50CHL1  H15B 6126   4.308   4.607   9.211 -0.9158  0.0802 -0.0392
   50CHL1   C16 6127   4.466   4.519   9.074 -0.8889  0.3186 -0.1475
   50CHL1  H16A 6128   4.451   4.421   9.025 -0.1129 -0.8088  1.7512
   50CHL1  H16B 6129   4.445   4.604   9.006 -0.3457  0.6716  0.1132
   50CHL1   C17 6130   4.613   4.516   9.137  0.7484 -0.9397  0.1817
   50CHL1   H17 6131   4.644   4.621   9.158 -1.2595 -0.2806  0.0720
   50CHL1   C13 6132   4.609   4.461   9.283 -0.3297  0.2654 -0.1853
   50CHL1   C18 6133   4.603   4.307   9.284  0.7287  0.0544 -0.4560
   50CHL1  H18A 6134   4.599   4.252   9.380  0.5305  0.5225 -0.1945
   50CHL1  H18B 6135   4.515   4.277   9.222  2.0457 -2.3009 -1.3466
   50CHL1  H18C 6136   4.694   4.269   9.232 -0.2650 -0.1931 -2.1006
   50CHL1   C12 6137   4.715   4.510   9.381 -0.7155 -1.2628 -0.2527
   50CHL1  H12A 6138   4.816   4.480   9.346  0.0170 -0.0411  0.7071
   50CHL1  H12B 6139   4.711   4.621   9.370 -1.3366 -1.0794  1.5353
   50CHL1   C11 6140   4.676   4.470   9.526 -0.3173 -1.0360  0.6568
   50CHL1  H11A 6141   4.682   4.360   9.532  0.9674 -1.0528 -0.4823
   50CHL1  H11B 6142   4.741   4.512   9.605 -0.7829 -1.5201  1.3056
   50CHL1    C9 6143   4.529   4.509   9.570  1.5535 -0.1786 -0.6399
   50CHL1    H9 6144   4.528   4.619   9.588 -2.1254 -0.5779  2.9583
   50CHL1   C10 6145   4.486   4.465   9.711 -0.2175 -0.2672  0.8351
   50CHL1   C19 6146   4.503   4.315   9.725 -0.5168  0.6616 -0.1271
   50CHL1  H19A 6147   4.609   4.286   9.740  0.0793  2.2827 -1.0252
   50CHL1  H19B 6148   4.452   4.286   9.820 -0.8092  0.4972 -0.3339
   50CHL1  H19C 6149   4.461   4.261   9.637 -1.0050  0.5177  0.1871
   50CHL1    C1 6150   4.566   4.538   9.816  0.8632 -0.1411 -0.4726
   50CHL1   H1A 6151   4.671   4.501   9.810  1.4891  1.6064 -1.0116
   50CHL1   H1B 6152   4.566   4.648   9.799 -1.6390 -0.3130 -2.1163
   50CHL1    C2 6153   4.526   4.514   9.969 -0.8282 -0.0359  0.3479
   50CHL1   H2A 6154   4.586   4.571  10.044  0.6533 -0.7448 -0.2634
   50CHL1   H2B 6155   4.518   4.404   9.978 -2.9508 -0.0258 -0.7612
   50CHL1   C20 6156   4.724   4.457   9.053  0.1270 -0.2466 -0.2919
   50CHL1   H20 6157   4.810   4.423   9.115 -0.7712  0.3150  1.3059
   50CHL1   C21 6158   4.769   4.574   8.967  0.1826 -0.1602 -0.0119
   50CHL1  H21A 6159   4.684   4.618   8.910  0.7384  4.0794  2.0376
   50CHL1  H21B 6160   4.849   4.551   8.895  1.9501  1.6310  1.2563
   50CHL1  H21C 6161   4.798   4.662   9.029 -1.9156  0.6592 -0.0993
   50CHL1   C22 6162   4.679   4.342   8.960 -0.3248  0.0382 -0.3585
   50CHL1  H22A 6163   4.621   4.279   9.031 -0.3164 -0.8790 -1.1513
   50CHL1  H22B 6164   4.610   4.379   8.883  0.7651  0.8383 -0.9765
   50CHL1   C23 6165   4.790   4.252   8.909 -0.1852  0.2218 -0.1401
   50CHL1  H23A 6166   4.845   4.321   8.841 -1.5628 -0.1549 -1.7044
   50CHL1  H23B 6167   4.861   4.220   8.988 -1.1182 -1.0780  0.1943
   50CHL1   C24 6168   4.746   4.141   8.822 -0.5756  0.6449  0.5663
   50CHL1  H24A 6169   4.683   4.074   8.885 -0.7579  0.5426  0.2743
   50CHL1  H24B 6170   4.688   4.176   8.734  3.6793  0.3040 -2.6734
   50CHL1   C25 6171   4.870   4.066   8.759 -0.4542  0.0499  0.3417
   50CHL1   H25 6172   4.942   4.050   8.842  1.7306 -0.7522 -1.6176
   50CHL1   C26 6173   4.816   3.935   8.708  0.1466  0.2953  0.8879
   50CHL1  H26A 6174   4.901   3.868   8.682  1.2154  1.1541  2.0550
   50CHL1  H26B 6175   4.760   3.889   8.793  1.6176  0.1316  1.8068
   50CHL1  H26C 6176   4.749   3.960   8.624 -0.1066  2.0868  1.5784
   50CHL1   C27 6177   4.941   4.144   8.642 -0.2605  0.4078  0.0680
   50CHL1  H27A 6178   4.875   4.156   8.554 -2.1754 -1.1353  1.2145
   50CHL1  H27B 6179   4.990   4.239   8.673  0.3465 -0.6496  2.6392
   50CHL1  H27C 6180   5.020   4.071   8.617 -2.1958 -1.4415 -0.9326
   51CHL1    C3 6181   1.012   6.379  10.173 -0.4547  0.4359 -0.1703
   51CHL1    H3 6182   0.979   6.483  10.156  0.7530  1.0987  1.2707
   51CHL1    O3 6183   1.078   6.377  10.302  0.3996 -0.3586  0.6947
   51CHL1   H3' 6184   1.091   6.286  10.331 -0.9096 -1.1975 -1.1348
   51CHL1    C4 6185   0.891   6.282  10.166 -0.4598 -0.8256  0.5028
   51CHL1   H4A 6186   0.936   6.184  10.191  1.8851 -0.4567 -1.8822
   51CHL1   H4B 6187   0.824   6.301  10.253 -0.8856  0.0113  0.0018
   51CHL1    C5 6188   0.827   6.285  10.034 -0.4654  0.1806  0.2099
   51CHL1    C6 6189   0.701   6.317  10.017  0.4961 -0.5307  0.8200
   51CHL1    H6 6190   0.642   6.326  10.109  1.3980 -2.4792  1.6486
   51CHL1    C7 6191   0.631   6.306   9.884  0.8359 -0.2785  0.5982
   51CHL1   H7A 6192   0.535   6.251   9.890  0.7989 -0.1842  0.8637
   51CHL1   H7B 6193   0.610   6.407   9.842 -0.4566 -1.5927 -2.1624
   51CHL1    C8 6194   0.714   6.232   9.772  0.3372 -0.1388 -0.0191
   51CHL1    H8 6195   0.700   6.125   9.800 -2.6769  0.3176  0.5977
   51CHL1   C14 6196   0.657   6.270   9.629  0.2101  0.1759  0.1486
   51CHL1   H14 6197   0.674   6.380   9.624 -0.2983  0.2178 -1.1140
   51CHL1   C15 6198   0.510   6.251   9.595 -0.3309  0.1259 -0.3234
   51CHL1  H15A 6199   0.484   6.147   9.626  0.6225 -0.0343 -0.0112
   51CHL1  H15B 6200   0.454   6.326   9.654  1.1056  1.1503 -0.2087
   51CHL1   C16 6201   0.512   6.266   9.441  0.5430 -0.2730 -0.2628
   51CHL1  H16A 6202   0.474   6.169   9.401 -1.6588  0.1593  0.6092
   51CHL1  H16B 6203   0.446   6.352   9.417  1.8004  0.8835  0.3064
   51CHL1   C17 6204   0.657   6.284   9.393 -0.0772  0.2336  0.1593
   51CHL1   H17 6205   0.685   6.391   9.392  2.3540 -0.3378  0.3989
   51CHL1   C13 6206   0.746   6.214   9.510  0.4853 -0.5576  0.3833
   51CHL1   C18 6207   0.742   6.056   9.506 -0.7737 -0.0336  0.2037
   51CHL1  H18A 6208   0.799   6.011   9.422 -1.5475 -0.2194 -0.2356
   51CHL1  H18B 6209   0.784   6.013   9.599 -1.5783  2.5578  1.8564
   51CHL1  H18C 6210   0.635   6.031   9.490 -0.8737  1.1893 -1.3756
   51CHL1   C12 6211   0.889   6.271   9.536  0.6894  1.0099  0.3232
   51CHL1  H12A 6212   0.958   6.237   9.456  1.3295  1.8659  0.4981
   51CHL1  H12B 6213   0.882   6.382   9.529 -0.0823  0.9712  0.3958
   51CHL1   C11 6214   0.949   6.223   9.662  0.4443  0.6912 -0.6950
   51CHL1  H11A 6215   0.954   6.112   9.660  1.6907  0.7370 -0.5293
   51CHL1  H11B 6216   1.053   6.261   9.672 -0.0500  1.7406  0.9767
   51CHL1    C9 6217   0.861   6.271   9.784  0.1894  0.6232  0.6235
   51CHL1    H9 6218   0.860   6.381   9.769 -1.1071  0.8901  2.2903
   51CHL1   C10 6219   0.929   6.246   9.921 -0.1193 -1.3471  0.8094
   51CHL1   C19 6220   0.971   6.097   9.931 -0.0373 -0.2921 -0.2366
   51CHL1  H19A 6221   1.035   6.089  10.021 -0.8525 -1.5930  0.2587
   51CHL1  H19B 6222   0.890   6.024   9.954  0.4111 -0.5369  0.6112
   51CHL1  H19C 6223   1.032   6.060   9.846  0.2246 -0.4393  0.0159
   51CHL1    C1 6224   1.054   6.346   9.934  0.6588 -0.1657  0.3316
   51CHL1   H1A 6225   1.126   6.335   9.851 -0.9057 -2.0973 -0.8609
   51CHL1   H1B 6226   1.005   6.446   9.927  0.0486 -0.5545 -1.2068
   51CHL1    C2 6227   1.115   6.344  10.071  0.0123 -0.8312  0.1060
   51CHL1   H2A 6228   1.206   6.408  10.071 -0.1212 -0.6033 -1.3485
   51CHL1   H2B 6229   1.159   6.247  10.101  0.9182 -0.4448  0.0572
   51CHL1   C20 6230   0.672   6.235   9.249 -0.3470  0.5577 -0.1335
   51CHL1   H20 6231   0.664   6.124   9.251 -0.0269  0.5260 -0.3911
   51CHL1   C21 6232   0.810   6.282   9.186  1.0127  0.0420  0.4187
   51CHL1  H21A 6233   0.854   6.208   9.115  3.1707  0.2789  1.4210
   51CHL1  H21B 6234   0.880   6.292   9.272  0.7461  0.1911  0.6185
   51CHL1  H21C 6235   0.790   6.380   9.139 -0.4552 -1.3740 -2.1132
   51CHL1   C22 6236   0.558   6.302   9.165  0.2852  0.3307  0.1318
   51CHL1  H22A 6237   0.452   6.288   9.197  0.1540 -1.2777 -0.8530
   51CHL1  H22B 6238   0.580   6.411   9.163  0.4485  0.3042 -2.1413
   51CHL1   C23 6239   0.561   6.263   9.012 -0.0085 -0.0120  0.1106
   51CHL1  H23A 6240   0.664   6.280   8.976 -0.1606  2.5459  0.7133
   51CHL1  H23B 6241   0.534   6.155   9.007 -0.2933  0.1067 -1.3243
   51CHL1   C24 6242   0.460   6.345   8.934  0.0574  0.3906  0.5128
   51CHL1  H24A 6243   0.356   6.349   8.974 -0.5212 -1.1605 -0.6971
   51CHL1  H24B 6244   0.496   6.449   8.944 -1.5021  1.0937 -0.6142
   51CHL1   C25 6245   0.445   6.307   8.786  0.3195  0.6413 -0.0475
   51CHL1   H25 6246   0.543   6.317   8.734  0.3687  1.5532  0.2006
   51CHL1   C26 6247   0.377   6.168   8.780  0.5316  0.0362  0.0276
   51CHL1  H26A 6248   0.269   6.179   8.804  0.1895  4.2421 -2.3299
   51CHL1  H26B 6249   0.384   6.135   8.675 -2.3343 -0.1317 -0.1923
   51CHL1  H26C 6250   0.426   6.091   8.842  0.3835  0.7923  1.1193
   51CHL1   C27 6251   0.349   6.409   8.718 -0.6911  0.2832 -0.1479
   51CHL1  H27A 6252   0.250   6.412   8.767 -0.7165  0.9693 -0.2217
   51CHL1  H27B 6253   0.392   6.511   8.728  1.3134 -0.6773  2.0018
   51CHL1  H27C 6254   0.343   6.399   8.607  2.6102 -0.7063 -0.3361
   52CHL1    C3 6255   2.008   5.266   9.940  0.4210 -0.5593  0.3248
   52CHL1    H3 6256   1.900   5.245   9.927  0.4727 -1.1142  0.7356
   52CHL1    O3 6257   2.032   5.259  10.078 -0.5531 -0.2546 -0.6830
   52CHL1   H3' 6258   2.122   5.292  10.083 -0.2168 -1.1568 -0.4782
   52CHL1    C4 6259   2.103   5.165   9.873  0.4430  0.5667  0.2193
   52CHL1   H4A 6260   2.204   5.189   9.913  0.1065  0.1671  1.3509
   52CHL1   H4B 6261   2.087   5.065   9.919 -0.1152 -0.5229 -2.1644
   52CHL1    C5 6262   2.096   5.173   9.724 -0.5547 -0.2785 -0.3635
   52CHL1    C6 6263   2.075   5.060   9.650  0.9227  0.0302  0.1338
   52CHL1    H6 6264   2.046   4.969   9.704  0.7439 -0.0364 -0.0741
   52CHL1    C7 6265   2.062   5.065   9.499 -0.9984  0.4504  0.1120
   52CHL1   H7A 6266   2.104   4.972   9.455 -1.6452  1.6172 -3.2618
   52CHL1   H7B 6267   1.958   5.062   9.460 -1.0663  0.6086  0.2807
   52CHL1    C8 6268   2.125   5.188   9.432 -0.0255  0.3372 -0.5448
   52CHL1    H8 6269   2.236   5.184   9.438  0.0972  1.8716 -1.4562
   52CHL1   C14 6270   2.079   5.195   9.292 -0.2631 -0.6235 -0.6989
   52CHL1   H14 6271   1.968   5.198   9.285 -0.4545 -1.0144  1.3924
   52CHL1   C15 6272   2.100   5.069   9.203 -0.0911  0.0643  0.1321
   52CHL1  H15A 6273   2.204   5.030   9.210  1.0543  2.5783 -1.5974
   52CHL1  H15B 6274   2.032   4.987   9.234  1.6081 -2.6434 -2.7093
   52CHL1   C16 6275   2.075   5.124   9.062 -0.0992 -0.2592 -0.6730
   52CHL1  H16A 6276   2.143   5.093   8.981 -0.4225  1.8882 -1.8220
   52CHL1  H16B 6277   1.969   5.108   9.031 -0.6031  1.7342 -0.1601
   52CHL1   C17 6278   2.070   5.286   9.072 -0.2022  0.8873 -0.0710
   52CHL1   H17 6279   1.968   5.329   9.083 -0.0778  0.8359  1.5364
   52CHL1   C13 6280   2.131   5.312   9.213 -0.0954  0.4191 -0.1568
   52CHL1   C18 6281   2.288   5.292   9.195  0.4255  0.1613  0.2357
   52CHL1  H18A 6282   2.336   5.282   9.295 -0.8872 -0.0875  0.8682
   52CHL1  H18B 6283   2.313   5.199   9.141  0.5551 -0.8122  1.9203
   52CHL1  H18C 6284   2.345   5.375   9.148  0.8720 -0.5245 -0.4357
   52CHL1   C12 6285   2.093   5.442   9.285 -0.0752  0.1704  0.3647
   52CHL1  H12A 6286   2.152   5.530   9.253  0.6028  0.0467  1.2380
   52CHL1  H12B 6287   1.985   5.463   9.265  0.4721  1.8156 -1.1122
   52CHL1   C11 6288   2.135   5.433   9.436 -0.3674 -0.6971 -0.4344
   52CHL1  H11A 6289   2.245   5.428   9.453 -0.2638 -0.7268 -1.0905
   52CHL1  H11B 6290   2.090   5.523   9.483 -1.2781 -2.5237  2.4593
   52CHL1    C9 6291   2.081   5.309   9.515 -0.4777 -0.3263 -0.2814
   52CHL1    H9 6292   1.971   5.321   9.518 -0.4384  1.1228 -2.4976
   52CHL1   C10 6293   2.134   5.304   9.665  0.5053 -0.4515  0.4346
   52CHL1   C19 6294   2.282   5.330   9.683 -0.9825 -0.5230  0.2279
   52CHL1  H19A 6295   2.298   5.437   9.659 -1.2723 -0.7319 -0.9969
   52CHL1  H19B 6296   2.308   5.313   9.789 -0.0077 -1.1748 -0.1017
   52CHL1  H19C 6297   2.334   5.252   9.623 -1.2095 -1.0450  0.7017
   52CHL1    C1 6298   2.045   5.414   9.737 -0.2585  0.4243  0.4048
   52CHL1   H1A 6299   2.086   5.511   9.700  0.0524 -0.1502 -0.8196
   52CHL1   H1B 6300   1.942   5.399   9.697  0.3153 -1.7309 -0.4015
   52CHL1    C2 6301   2.041   5.410   9.890  0.8040  0.5592 -1.0541
   52CHL1   H2A 6302   1.960   5.466   9.941  1.3414  1.3513 -1.0594
   52CHL1   H2B 6303   2.142   5.430   9.933  0.9785  0.3910 -1.3832
   52CHL1   C20 6304   2.131   5.351   8.943 -0.2163  0.2401 -0.0284
   52CHL1   H20 6305   2.240   5.332   8.931 -0.0166  1.9777 -1.3526
   52CHL1   C21 6306   2.115   5.506   8.959 -0.1647  0.2935  0.1453
   52CHL1  H21A 6307   2.188   5.548   9.032  0.9548 -0.8027 -0.3090
   52CHL1  H21B 6308   2.012   5.534   8.991  0.3189  1.5887  0.6229
   52CHL1  H21C 6309   2.129   5.554   8.860  2.3126  1.3087  0.9254
   52CHL1   C22 6310   2.057   5.317   8.812  0.0820  0.5719 -0.2963
   52CHL1  H22A 6311   2.008   5.217   8.809 -0.1413  0.6717  0.0599
   52CHL1  H22B 6312   1.975   5.391   8.807 -0.5321 -0.1002 -0.3566
   52CHL1   C23 6313   2.145   5.328   8.691 -0.2408 -0.1093  0.1392
   52CHL1  H23A 6314   2.188   5.430   8.679 -2.2586  0.6848 -0.9276
   52CHL1  H23B 6315   2.232   5.260   8.701  0.2382  0.4090 -0.4096
   52CHL1   C24 6316   2.063   5.290   8.557 -0.3060  0.1136 -0.0969
   52CHL1  H24A 6317   2.041   5.181   8.557 -1.9051  0.4076 -0.3444
   52CHL1  H24B 6318   1.964   5.339   8.566  0.6923  2.5430 -1.4217
   52CHL1   C25 6319   2.138   5.339   8.432  0.1372 -0.2869  0.1087
   52CHL1   H25 6320   2.104   5.445   8.429 -2.4016 -1.0107  1.0089
   52CHL1   C26 6321   2.293   5.330   8.442  0.2234 -0.0627  0.0192
   52CHL1  H26A 6322   2.313   5.231   8.490 -1.1908 -1.1331 -1.4931
   52CHL1  H26B 6323   2.341   5.342   8.342 -2.2702  0.3734 -1.1931
   52CHL1  H26C 6324   2.330   5.412   8.507 -1.3609  1.6422 -1.1365
   52CHL1   C27 6325   2.073   5.274   8.309 -0.0483  0.1265 -0.3331
   52CHL1  H27A 6326   2.070   5.163   8.305  1.6391  0.0780 -0.7573
   52CHL1  H27B 6327   1.966   5.304   8.305  0.0522  0.4698 -0.5061
   52CHL1  H27C 6328   2.119   5.323   8.220 -0.4613  0.9617 -0.0985
   53CHL1    C3 6329   3.368   4.433   9.935  0.4444 -0.5440  0.3458
   53CHL1    H3 6330   3.375   4.324   9.955 -0.3170 -0.9632 -1.4217
   53CHL1    O3 6331   3.357   4.491  10.063  0.5751 -0.3243  0.6590
   53CHL1   H3' 6332   3.279   4.545  10.058  0.6576 -0.3484 -1.7861
   53CHL1    C4 6333   3.494   4.477   9.862 -0.1344 -0.0067  0.2113
   53CHL1   H4A 6334   3.500   4.588   9.863 -2.0806  0.1324  1.2333
   53CHL1   H4B 6335   3.577   4.441   9.926  1.5347  1.8590 -0.7932
   53CHL1    C5 6336   3.504   4.418   9.721  0.1206 -0.2858  0.9548
   53CHL1    C6 6337   3.613   4.349   9.673  1.0334 -0.5272 -0.1425
   53CHL1    H6 6338   3.701   4.333   9.737  0.7980 -1.0527  0.0609
   53CHL1    C7 6339   3.628   4.305   9.527 -0.2893 -0.2386 -0.8205
   53CHL1   H7A 6340   3.726   4.320   9.477  0.4764 -0.3620  0.5906
   53CHL1   H7B 6341   3.620   4.194   9.521  0.0862 -0.3237  0.0065
   53CHL1    C8 6342   3.512   4.344   9.436  0.3248 -0.3248 -0.3322
   53CHL1    H8 6343   3.535   4.446   9.400 -2.1366  0.0302 -1.0999
   53CHL1   C14 6344   3.500   4.258   9.308  0.1710 -0.4627  0.3854
   53CHL1   H14 6345   3.462   4.160   9.343 -0.5854 -0.3256 -0.0252
   53CHL1   C15 6346   3.633   4.235   9.229  0.2317  0.7431 -0.1518
   53CHL1  H15A 6347   3.673   4.339   9.229 -2.1111  1.6961  0.7741
   53CHL1  H15B 6348   3.704   4.165   9.280 -2.4305 -2.3971 -0.4312
   53CHL1   C16 6349   3.585   4.179   9.095 -0.4493  0.1776  0.2310
   53CHL1  H16A 6350   3.641   4.238   9.020  1.5282 -1.6171  0.2091
   53CHL1  H16B 6351   3.590   4.068   9.088 -0.1292  0.2884 -1.8411
   53CHL1   C17 6352   3.433   4.210   9.087 -0.1980  0.1417  0.4003
   53CHL1   H17 6353   3.381   4.114   9.108  2.5482 -1.2318  1.3997
   53CHL1   C13 6354   3.401   4.309   9.197  0.6431 -0.2804 -0.2724
   53CHL1   C18 6355   3.434   4.456   9.156 -0.0081  0.4654 -0.1557
   53CHL1  H18A 6356   3.350   4.493   9.094  0.2594  0.1233 -0.7400
   53CHL1  H18B 6357   3.452   4.521   9.244  2.1807 -2.7411  2.0017
   53CHL1  H18C 6358   3.528   4.467   9.098 -0.3789  1.0139 -0.6604
   53CHL1   C12 6359   3.261   4.303   9.279 -0.1285 -0.3853  0.2499
   53CHL1  H12A 6360   3.179   4.332   9.209 -1.1685  0.4488  1.7452
   53CHL1  H12B 6361   3.255   4.198   9.316  0.6613  0.2173  2.2228
   53CHL1   C11 6362   3.263   4.394   9.403  0.7611 -0.0135  0.2450
   53CHL1  H11A 6363   3.265   4.500   9.368 -0.7728  0.1339  0.4952
   53CHL1  H11B 6364   3.167   4.374   9.455 -0.2525  3.4080 -0.0565
   53CHL1    C9 6365   3.378   4.356   9.503  0.4770 -0.9891 -0.0650
   53CHL1    H9 6366   3.349   4.252   9.531  0.9151 -1.1975 -0.3702
   53CHL1   C10 6367   3.375   4.441   9.637 -0.1152  0.1691 -0.3285
   53CHL1   C19 6368   3.364   4.591   9.597 -0.2467 -0.2507 -0.4388
   53CHL1  H19A 6369   3.273   4.608   9.536 -0.4505 -0.0207 -0.0748
   53CHL1  H19B 6370   3.364   4.652   9.691 -0.7626  0.2708 -0.7714
   53CHL1  H19C 6371   3.452   4.633   9.544  0.4995 -0.5073  0.5499
   53CHL1    C1 6372   3.248   4.392   9.727 -0.6278  0.0317  0.3027
   53CHL1   H1A 6373   3.155   4.419   9.672 -1.3931 -0.0104  1.5200
   53CHL1   H1B 6374   3.249   4.283   9.750 -0.2421 -0.0374 -0.0416
   53CHL1    C2 6375   3.239   4.466   9.863  0.5483 -0.2052  0.2220
   53CHL1   H2A 6376   3.143   4.437   9.912  0.7773  0.8998  1.3482
   53CHL1   H2B 6377   3.219   4.572   9.839 -2.1951 -0.8190 -0.6554
   53CHL1   C20 6378   3.391   4.247   8.941 -0.4701 -0.2570 -0.5767
   53CHL1   H20 6379   3.443   4.341   8.912  0.5551 -1.0226 -1.2842
   53CHL1   C21 6380   3.239   4.272   8.939 -0.7673 -0.0899 -0.5363
   53CHL1  H21A 6381   3.181   4.179   8.960  0.0988 -0.9732 -1.9381
   53CHL1  H21B 6382   3.215   4.301   8.834 -0.2637 -0.0261 -0.6349
   53CHL1  H21C 6383   3.204   4.353   9.006 -0.8897  1.1358 -2.0227
   53CHL1   C22 6384   3.436   4.138   8.842  0.9996  0.1686 -0.0074
   53CHL1  H22A 6385   3.498   4.059   8.890 -0.2608  1.0944  3.3983
   53CHL1  H22B 6386   3.340   4.086   8.820 -0.4968  1.4008  3.0649
   53CHL1   C23 6387   3.517   4.204   8.719 -0.2943 -0.5707 -1.0250
   53CHL1  H23A 6388   3.442   4.239   8.645 -0.5220 -2.5088 -1.7644
   53CHL1  H23B 6389   3.581   4.288   8.754 -1.3957  0.1285 -0.6269
   53CHL1   C24 6390   3.610   4.109   8.637 -0.4470  0.6379  0.2997
   53CHL1  H24A 6391   3.549   4.026   8.595  0.1403  0.4780 -0.2419
   53CHL1  H24B 6392   3.649   4.167   8.551 -2.1346 -3.2829 -3.4634
   53CHL1   C25 6393   3.724   4.042   8.722  0.1153  0.7440  0.2938
   53CHL1   H25 6394   3.683   3.986   8.809  1.0934  0.0545  0.3143
   53CHL1   C26 6395   3.794   3.934   8.642  0.2586 -0.2623 -0.2137
   53CHL1  H26A 6396   3.833   3.964   8.542 -0.5759  2.1915  0.1448
   53CHL1  H26B 6397   3.878   3.910   8.712  1.6301  0.8529 -1.4199
   53CHL1  H26C 6398   3.724   3.848   8.643 -2.0927  1.5109  2.3688
   53CHL1   C27 6399   3.819   4.145   8.776  0.0761 -0.4687  0.3550
   53CHL1  H27A 6400   3.761   4.232   8.813  1.3838  0.3559  0.5626
   53CHL1  H27B 6401   3.867   4.096   8.863  1.7769 -0.0717 -0.3191
   53CHL1  H27C 6402   3.881   4.194   8.697 -0.2199  1.2163  1.1078
   54CHL1    C3 6403   4.090   5.096  10.148  0.4285 -0.6061 -0.1611
   54CHL1    H3 6404   4.034   5.001  10.161 -0.1511 -0.2059  0.3282
   54CHL1    O3 6405   4.115   5.147  10.279 -0.3493 -1.1211  0.1097
   54CHL1   H3' 6406   4.025   5.173  10.303 -0.7600 -1.2193 -1.2378
   54CHL1    C4 6407   4.224   5.066  10.075 -0.0700  0.5043 -0.2377
   54CHL1   H4A 6408   4.301   5.141  10.105  1.0996  0.0619 -1.9855
   54CHL1   H4B 6409   4.252   4.972  10.125 -0.9311  0.5263  0.3078
   54CHL1    C5 6410   4.223   5.041   9.923  0.6164  0.5890  0.3897
   54CHL1    C6 6411   4.280   4.938   9.865  0.4290  0.4349  0.1223
   54CHL1    H6 6412   4.332   4.852   9.909  0.1384 -0.0239 -0.4139
   54CHL1    C7 6413   4.298   4.933   9.721 -1.0764 -0.0763  0.7059
   54CHL1   H7A 6414   4.407   4.928   9.699 -1.1644  2.4180 -0.5341
   54CHL1   H7B 6415   4.241   4.843   9.687 -1.3190 -0.4993  2.1524
   54CHL1    C8 6416   4.250   5.057   9.639  0.4419 -0.1324 -0.3821
   54CHL1    H8 6417   4.336   5.127   9.641 -0.4147  0.9536 -0.5741
   54CHL1   C14 6418   4.222   5.023   9.495  1.0984 -0.0386  0.1249
   54CHL1   H14 6419   4.136   4.953   9.501 -2.0655  3.5546  0.5144
   54CHL1   C15 6420   4.335   4.955   9.408  0.9781 -0.0480  0.0743
   54CHL1  H15A 6421   4.428   5.014   9.419 -0.1960  1.6135  1.8881
   54CHL1  H15B 6422   4.360   4.853   9.444  0.2310 -0.1762  0.2477
   54CHL1   C16 6423   4.285   4.977   9.269  0.2670  0.1875  0.2968
   54CHL1  H16A 6424   4.364   5.030   9.211  0.9776 -2.3467 -1.2470
   54CHL1  H16B 6425   4.268   4.886   9.207  1.2342 -0.1998  0.5666
   54CHL1   C17 6426   4.155   5.065   9.273  0.0292  0.1117  0.1789
   54CHL1   H17 6427   4.072   4.991   9.277 -0.3255  0.3666 -1.5247
   54CHL1   C13 6428   4.165   5.140   9.406  0.2519  0.3687  0.0456
   54CHL1   C18 6429   4.261   5.257   9.408 -0.1385 -0.7620 -0.4166
   54CHL1  H18A 6430   4.352   5.227   9.351 -0.1723 -0.7911 -0.4550
   54CHL1  H18B 6431   4.211   5.338   9.352  0.4220 -0.4296 -0.4444
   54CHL1  H18C 6432   4.273   5.298   9.511  0.4459 -2.1810  0.1123
   54CHL1   C12 6433   4.035   5.188   9.464  0.0090 -0.2515  0.0974
   54CHL1  H12A 6434   4.010   5.279   9.405  1.4830 -0.7137 -1.3563
   54CHL1  H12B 6435   3.947   5.121   9.451 -0.0515  0.3252 -3.4155
   54CHL1   C11 6436   4.050   5.218   9.616 -0.4334  0.6629 -0.3050
   54CHL1  H11A 6437   4.114   5.308   9.630  1.6936 -0.9370  0.7787
   54CHL1  H11B 6438   3.948   5.241   9.654 -1.2022 -2.3749 -0.3183
   54CHL1    C9 6439   4.121   5.106   9.707 -0.4215 -0.8052  0.0889
   54CHL1    H9 6440   4.045   5.025   9.704 -2.4739  0.9131  2.1070
   54CHL1   C10 6441   4.146   5.145   9.856  0.5347  0.0929 -0.2400
   54CHL1   C19 6442   4.227   5.285   9.859  0.1518 -0.0410  1.1057
   54CHL1  H19A 6443   4.177   5.365   9.799  1.1670 -0.3779 -0.2291
   54CHL1  H19B 6444   4.220   5.303   9.969  0.6305 -0.6344  1.2367
   54CHL1  H19C 6445   4.331   5.265   9.828  0.3906  0.6301  1.4402
   54CHL1    C1 6446   4.004   5.161   9.923  0.3428  0.4784  0.1988
   54CHL1   H1A 6447   3.952   5.246   9.875 -0.4054 -0.3632 -0.5285
   54CHL1   H1B 6448   3.935   5.075   9.907 -1.8092  2.2035 -0.2951
   54CHL1    C2 6449   4.005   5.197  10.070 -0.0780  0.3487 -0.3762
   54CHL1   H2A 6450   3.902   5.193  10.111 -0.4175 -0.7163 -1.2893
   54CHL1   H2B 6451   4.042   5.300  10.094 -0.5589  0.8139 -1.5585
   54CHL1   C20 6452   4.105   5.153   9.146 -0.1829  0.2756 -0.2955
   54CHL1   H20 6453   4.130   5.259   9.167  1.7391  0.2430 -2.1501
   54CHL1   C21 6454   3.956   5.132   9.131 -0.6738 -0.7007  0.2093
   54CHL1  H21A 6455   3.906   5.218   9.081  1.9828  0.6876 -0.2288
   54CHL1  H21B 6456   3.897   5.114   9.224 -0.5655  0.2903  0.4777
   54CHL1  H21C 6457   3.920   5.047   9.069 -1.0280  0.5148 -1.3020
   54CHL1   C22 6458   4.166   5.112   9.004  0.4014  0.0976 -0.7338
   54CHL1  H22A 6459   4.269   5.081   9.028  0.0027 -0.8381 -0.2001
   54CHL1  H22B 6460   4.109   5.028   8.958 -0.0345  1.2559 -2.4498
   54CHL1   C23 6461   4.153   5.231   8.906  1.0743  1.1763  0.2824
   54CHL1  H23A 6462   4.047   5.245   8.876  0.9727  0.4998  0.3139
   54CHL1  H23B 6463   4.189   5.324   8.954 -0.6955  2.1072 -0.0878
   54CHL1   C24 6464   4.223   5.199   8.780 -0.3665 -0.4347 -0.6254
   54CHL1  H24A 6465   4.327   5.171   8.804  1.1594  2.8620 -2.6993
   54CHL1  H24B 6466   4.177   5.105   8.743 -0.9649 -0.3075 -0.2254
   54CHL1   C25 6467   4.215   5.317   8.680  0.5567  0.6107  0.2729
   54CHL1   H25 6468   4.175   5.405   8.734  2.9287  0.0486  3.2183
   54CHL1   C26 6469   4.358   5.353   8.632 -0.6343  0.1911 -0.0953
   54CHL1  H26A 6470   4.417   5.369   8.724 -0.1238  0.5028 -0.4729
   54CHL1  H26B 6471   4.404   5.269   8.576 -0.5063  0.3663 -0.2564
   54CHL1  H26C 6472   4.363   5.445   8.570 -0.1803  0.4951  0.3826
   54CHL1   C27 6473   4.127   5.282   8.554  0.0326  0.4410 -0.0813
   54CHL1  H27A 6474   4.149   5.184   8.507 -2.4193 -0.7043  1.0008
   54CHL1  H27B 6475   4.020   5.278   8.583 -0.4803  2.1389 -1.5699
   54CHL1  H27C 6476   4.148   5.362   8.480  2.0874 -2.2408 -2.6354
   55CHL1    C3 6477   5.402   3.485  10.210  0.2460 -0.5349  0.0340
   55CHL1    H3 6478   5.327   3.563  10.186 -1.0181 -1.6572  0.1949
   55CHL1    O3 6479   5.403   3.477  10.353 -0.1811  0.9477  0.1152
   55CHL1   H3' 6480   5.493   3.448  10.367 -1.0101 -1.3392  1.2371
   55CHL1    C4 6481   5.372   3.354  10.142  0.7790 -0.0711  0.3896
   55CHL1   H4A 6482   5.434   3.273  10.187  0.7015  0.4005  1.3694
   55CHL1   H4B 6483   5.268   3.322  10.163  0.8448 -0.8277 -0.4075
   55CHL1    C5 6484   5.395   3.365   9.995 -0.5488 -0.1297  0.0902
   55CHL1    C6 6485   5.299   3.319   9.905  0.2555 -0.3426  0.8882
   55CHL1    H6 6486   5.205   3.278   9.942  0.4521 -0.7021  0.9928
   55CHL1    C7 6487   5.320   3.318   9.758  0.4681 -0.6085  0.0050
   55CHL1   H7A 6488   5.270   3.227   9.719  0.4314  0.2765 -2.1784
   55CHL1   H7B 6489   5.266   3.396   9.699 -0.2607 -1.1444 -0.0516
   55CHL1    C8 6490   5.469   3.327   9.726 -0.0328  0.3290  0.3483
   55CHL1    H8 6491   5.518   3.229   9.742  2.0959  1.2527 -0.1188
   55CHL1   C14 6492   5.474   3.353   9.574 -0.1884 -0.7337 -0.4251
   55CHL1   H14 6493   5.417   3.448   9.563 -0.4713 -0.8754 -0.1867
   55CHL1   C15 6494   5.411   3.256   9.472 -0.2069  0.3448 -0.0023
   55CHL1  H15A 6495   5.429   3.150   9.501 -3.0100 -0.1234  0.2619
   55CHL1  H15B 6496   5.300   3.252   9.471 -0.2328 -2.7690 -2.4546
   55CHL1   C16 6497   5.485   3.284   9.341  1.2256 -0.6629  0.2770
   55CHL1  H16A 6498   5.531   3.188   9.309  0.5621  0.2252 -3.9515
   55CHL1  H16B 6499   5.408   3.312   9.266  2.3744 -0.0979 -0.7393
   55CHL1   C17 6500   5.579   3.405   9.364  0.1096  0.5378 -0.1821
   55CHL1   H17 6501   5.516   3.496   9.360 -1.0289 -0.0923  1.8300
   55CHL1   C13 6502   5.613   3.391   9.513  0.1641  0.0280 -0.4401
   55CHL1   C18 6503   5.710   3.271   9.527  0.7731  0.0896  0.2380
   55CHL1  H18A 6504   5.815   3.306   9.513  0.8614  1.5074  3.4190
   55CHL1  H18B 6505   5.700   3.239   9.633 -0.0972 -0.7062 -0.0750
   55CHL1  H18C 6506   5.673   3.194   9.457 -0.7665  3.1040 -2.5800
   55CHL1   C12 6507   5.667   3.511   9.585  0.9671 -0.5147  0.0678
   55CHL1  H12A 6508   5.763   3.535   9.535 -0.4329 -0.1036 -2.6342
   55CHL1  H12B 6509   5.598   3.593   9.558  3.2509  0.8466 -2.1260
   55CHL1   C11 6510   5.675   3.486   9.736 -0.1286  0.7562  0.2179
   55CHL1  H11A 6511   5.752   3.409   9.757 -0.3187  0.8112  1.1289
   55CHL1  H11B 6512   5.708   3.583   9.779  1.3695  0.5290 -0.3464
   55CHL1    C9 6513   5.535   3.444   9.791  0.0064 -0.2227 -0.2941
   55CHL1    H9 6514   5.463   3.526   9.772 -0.2328 -0.0958  1.0524
   55CHL1   C10 6515   5.528   3.426   9.949  0.9920  0.2596 -0.0609
   55CHL1   C19 6516   5.632   3.312   9.981 -0.8532 -0.3772 -0.9181
   55CHL1  H19A 6517   5.627   3.287  10.089  3.3156 -0.5271 -0.5955
   55CHL1  H19B 6518   5.616   3.213   9.932 -0.0623 -0.3804 -1.1770
   55CHL1  H19C 6519   5.738   3.341   9.964 -0.3373  0.7689  3.2633
   55CHL1    C1 6520   5.568   3.557  10.025 -0.3878  0.0534  0.7142
   55CHL1   H1A 6521   5.669   3.590   9.993  0.2936  0.7074  3.2679
   55CHL1   H1B 6522   5.497   3.637   9.997  0.9681  0.4480 -1.8638
   55CHL1    C2 6523   5.542   3.540  10.175 -0.2269  0.2109  0.7039
   55CHL1   H2A 6524   5.577   3.635  10.219 -0.5322  1.0242 -0.7535
   55CHL1   H2B 6525   5.608   3.462  10.220  0.4535 -0.8343 -1.9251
   55CHL1   C20 6526   5.696   3.411   9.264 -0.1559  0.2333  0.5353
   55CHL1   H20 6527   5.786   3.365   9.307  1.9410  2.0274 -1.6412
   55CHL1   C21 6528   5.735   3.556   9.230  0.2514  0.8300  0.0384
   55CHL1  H21A 6529   5.651   3.609   9.181 -1.8319  0.1259  2.6025
   55CHL1  H21B 6530   5.827   3.568   9.169  0.7826  1.4337  0.9334
   55CHL1  H21C 6531   5.766   3.599   9.327  1.8874 -1.7552  0.7835
   55CHL1   C22 6532   5.691   3.317   9.135  0.4869  0.7644  0.1446
   55CHL1  H22A 6533   5.694   3.214   9.177  0.9402  0.5120 -0.4758
   55CHL1  H22B 6534   5.590   3.316   9.090 -0.2056  0.5811  1.6680
   55CHL1   C23 6535   5.812   3.321   9.048  0.2608  0.1779 -0.5886
   55CHL1  H23A 6536   5.822   3.421   9.002  0.9069  0.5231  0.2792
   55CHL1  H23B 6537   5.900   3.297   9.111  0.8787  1.2597 -1.0293
   55CHL1   C24 6538   5.799   3.223   8.933  0.0566 -0.4443  0.3681
   55CHL1  H24A 6539   5.795   3.122   8.979 -2.3120 -0.4163  0.3247
   55CHL1  H24B 6540   5.698   3.236   8.889  0.2019  0.5765  0.3014
   55CHL1   C25 6541   5.916   3.230   8.827 -0.5942  0.2478  0.5411
   55CHL1   H25 6542   6.014   3.243   8.879 -0.1753 -2.8778  0.7446
   55CHL1   C26 6543   5.924   3.093   8.758  0.4138  0.3884  0.0861
   55CHL1  H26A 6544   6.025   3.075   8.715  0.3775 -1.0907  0.5861
   55CHL1  H26B 6545   5.898   3.009   8.826  0.2216  1.1013  0.9145
   55CHL1  H26C 6546   5.854   3.080   8.673  1.7919  0.6732 -1.1345
   55CHL1   C27 6547   5.903   3.335   8.720 -0.3581  0.1047 -0.1886
   55CHL1  H27A 6548   5.814   3.314   8.656 -1.0938  1.1995  0.4461
   55CHL1  H27B 6549   5.895   3.433   8.772 -0.6298 -0.1367  0.2264
   55CHL1  H27C 6550   5.995   3.334   8.658  0.2074 -0.9223  0.6418
   56CHL1    C3 6551   2.222   0.825   9.996 -0.5102  0.1675 -0.3262
   56CHL1    H3 6552   2.185   0.721  10.012 -2.3200  1.0490  1.7101
   56CHL1    O3 6553   2.235   0.879  10.124  0.7037 -0.3535  0.4256
   56CHL1   H3' 6554   2.303   0.831  10.173  0.8027 -0.8054 -0.1486
   56CHL1    C4 6555   2.361   0.824   9.932 -0.4155 -0.0606 -0.5642
   56CHL1   H4A 6556   2.408   0.924   9.941  1.6427 -0.9726 -0.7792
   56CHL1   H4B 6557   2.428   0.759   9.992  0.3771  1.1730 -0.0770
   56CHL1    C5 6558   2.364   0.775   9.792  0.0482  0.0411 -0.2301
   56CHL1    C6 6559   2.439   0.666   9.752  0.1107 -0.2097 -0.1125
   56CHL1    H6 6560   2.515   0.619   9.818 -0.9782 -1.2780  0.4227
   56CHL1    C7 6561   2.443   0.604   9.611 -0.5632 -0.1031 -0.4434
   56CHL1   H7A 6562   2.551   0.599   9.588 -0.5887  0.6390 -0.7491
   56CHL1   H7B 6563   2.403   0.501   9.623 -1.2634  0.1890 -0.1814
   56CHL1    C8 6564   2.375   0.695   9.507 -1.3364  0.0025 -0.7176
   56CHL1    H8 6565   2.447   0.777   9.487  2.1993 -2.6243  0.3055
   56CHL1   C14 6566   2.355   0.618   9.377  0.2214 -0.8579 -0.1559
   56CHL1   H14 6567   2.297   0.530   9.413  0.1355 -0.3217  1.0725
   56CHL1   C15 6568   2.471   0.548   9.300  0.1756  0.4467 -0.0094
   56CHL1  H15A 6569   2.555   0.617   9.277 -0.4664  1.0992 -0.3937
   56CHL1  H15B 6570   2.498   0.454   9.355 -0.8313 -0.4109 -0.9501
   56CHL1   C16 6571   2.416   0.516   9.159  0.3702 -0.1013 -0.0931
   56CHL1  H16A 6572   2.489   0.563   9.090  1.1398 -1.5768 -0.3336
   56CHL1  H16B 6573   2.408   0.408   9.134 -1.0998  0.2727 -1.3406
   56CHL1   C17 6574   2.276   0.584   9.151 -0.6563  0.2926  1.0117
   56CHL1   H17 6575   2.201   0.503   9.167  1.7656 -2.2869  0.1269
   56CHL1   C13 6576   2.271   0.686   9.267  0.2776 -0.0812  0.1492
   56CHL1   C18 6577   2.346   0.814   9.222  0.3140 -0.1816 -0.7812
   56CHL1  H18A 6578   2.278   0.883   9.169  0.3459  0.9907  0.6201
   56CHL1  H18B 6579   2.381   0.864   9.315 -0.3631 -1.7046  0.3464
   56CHL1  H18C 6580   2.427   0.801   9.147 -0.0637 -1.4118 -1.0017
   56CHL1   C12 6581   2.132   0.720   9.333  0.6705 -1.3716 -0.4756
   56CHL1  H12A 6582   2.078   0.780   9.257  0.5364  0.1265  0.7671
   56CHL1  H12B 6583   2.080   0.623   9.353  2.1251 -2.2307 -0.7373
   56CHL1   C11 6584   2.140   0.800   9.464  0.3656  0.4404 -0.0753
   56CHL1  H11A 6585   2.173   0.904   9.440  0.3744  0.1427 -1.4304
   56CHL1  H11B 6586   2.036   0.814   9.501  0.2084 -1.2798  0.2040
   56CHL1    C9 6587   2.239   0.738   9.570 -0.2721  0.4552  0.2120
   56CHL1    H9 6588   2.193   0.641   9.597  0.6116 -0.2203 -0.5999
   56CHL1   C10 6589   2.252   0.831   9.696  0.0562  0.0811 -0.2190
   56CHL1   C19 6590   2.306   0.968   9.650  0.5677  0.5072 -0.1282
   56CHL1  H19A 6591   2.325   1.027   9.742 -1.4481 -0.1806  0.7791
   56CHL1  H19B 6592   2.405   0.968   9.599 -0.8047  1.9076 -3.1099
   56CHL1  H19C 6593   2.230   1.025   9.592  1.9540  1.6635 -0.8863
   56CHL1    C1 6594   2.115   0.847   9.767  0.7817  0.4180  0.4757
   56CHL1   H1A 6595   2.048   0.911   9.705 -1.0918 -0.9979  0.9251
   56CHL1   H1B 6596   2.068   0.746   9.767  0.2834  0.4375 -4.2138
   56CHL1    C2 6597   2.120   0.912   9.907 -0.2664 -0.5932  0.4714
   56CHL1   H2A 6598   2.017   0.911   9.948  0.3784  3.0748  2.5286
   56CHL1   H2B 6599   2.149   1.019   9.905 -0.9701 -0.4046 -0.7639
   56CHL1   C20 6600   2.242   0.634   9.009  0.6921  0.1233  0.0227
   56CHL1   H20 6601   2.300   0.727   8.987  1.7230 -0.7602 -1.1327
   56CHL1   C21 6602   2.097   0.672   8.984 -0.1142  0.7354  0.1663
   56CHL1  H21A 6603   2.065   0.737   9.068  3.1030  2.7574  0.0068
   56CHL1  H21B 6604   2.045   0.574   8.984  1.7091 -0.2917  1.1021
   56CHL1  H21C 6605   2.072   0.727   8.891 -0.1247  0.6563  0.1219
   56CHL1   C22 6606   2.275   0.541   8.890 -0.3594  0.3183  0.1016
   56CHL1  H22A 6607   2.361   0.475   8.917 -0.6561  0.3725  1.2278
   56CHL1  H22B 6608   2.186   0.476   8.879 -1.1105  1.5519 -1.2809
   56CHL1   C23 6609   2.304   0.616   8.755  0.0157  0.5188 -0.5802
   56CHL1  H23A 6610   2.280   0.547   8.672 -0.1165  2.1711 -1.9692
   56CHL1  H23B 6611   2.238   0.705   8.752 -1.0457 -0.2135  0.4889
   56CHL1   C24 6612   2.447   0.667   8.735 -0.4656  0.2845 -0.1261
   56CHL1  H24A 6613   2.490   0.681   8.837  0.7875  0.9553 -0.7287
   56CHL1  H24B 6614   2.511   0.588   8.690 -1.5286 -0.2040 -0.7908
   56CHL1   C25 6615   2.464   0.800   8.657 -0.7583 -0.0884  0.0123
   56CHL1   H25 6616   2.383   0.865   8.696 -1.5738 -1.1428  0.0965
   56CHL1   C26 6617   2.603   0.859   8.681  0.2922 -0.2969  0.1291
   56CHL1  H26A 6618   2.613   0.969   8.671 -2.0473 -0.1133 -0.6573
   56CHL1  H26B 6619   2.635   0.837   8.785  2.2122 -1.2533 -0.6242
   56CHL1  H26C 6620   2.682   0.804   8.626  0.9214  1.2795 -0.6083
   56CHL1   C27 6621   2.439   0.776   8.506 -0.5599  0.2428 -0.9542
   56CHL1  H27A 6622   2.429   0.870   8.449 -0.4428  1.5535  1.0959
   56CHL1  H27B 6623   2.521   0.710   8.470  1.1913  0.9256  1.5545
   56CHL1  H27C 6624   2.340   0.730   8.487 -0.3436 -1.8059  2.1694
   57CHL1    C3 6625   5.598   4.481  10.103 -0.1515  0.7839  0.4843
   57CHL1    H3 6626   5.576   4.590  10.097 -0.3371  0.6759 -2.0659
   57CHL1    O3 6627   5.597   4.433  10.238 -0.1767 -0.3022  0.3593
   57CHL1   H3' 6628   5.508   4.452  10.268 -1.2776 -1.8314 -1.6962
   57CHL1    C4 6629   5.497   4.403  10.019  0.9916 -0.2424 -0.7192
   57CHL1   H4A 6630   5.502   4.292  10.016  0.3034 -0.3009 -0.1239
   57CHL1   H4B 6631   5.407   4.423  10.081  0.7836 -0.1310 -1.0500
   57CHL1    C5 6632   5.484   4.460   9.876  0.0534  0.3874  0.2521
   57CHL1    C6 6633   5.369   4.520   9.841 -0.5898 -0.0144  0.5447
   57CHL1    H6 6634   5.279   4.524   9.905 -0.8638 -3.2183  0.5187
   57CHL1    C7 6635   5.357   4.575   9.700 -0.0548  0.2154  0.5329
   57CHL1   H7A 6636   5.267   4.527   9.657  0.1384  0.0444  0.3190
   57CHL1   H7B 6637   5.350   4.686   9.690 -1.5214 -0.0530 -2.2214
   57CHL1    C8 6638   5.465   4.525   9.601  0.1993  0.5137 -0.2948
   57CHL1    H8 6639   5.436   4.420   9.583  0.3992  0.7629 -2.1916
   57CHL1   C14 6640   5.460   4.604   9.475  0.6806 -0.1424  0.3199
   57CHL1   H14 6641   5.482   4.708   9.508 -0.0912 -0.3006  1.3921
   57CHL1   C15 6642   5.323   4.617   9.405 -0.3186 -0.5898  0.3690
   57CHL1  H15A 6643   5.289   4.514   9.382  1.2717 -0.8054 -1.2889
   57CHL1  H15B 6644   5.248   4.671   9.466  1.8095  1.3173  1.4724
   57CHL1   C16 6645   5.372   4.679   9.273  0.4372  0.0737 -0.5620
   57CHL1  H16A 6646   5.329   4.614   9.194  1.1755 -0.4279 -0.5624
   57CHL1  H16B 6647   5.346   4.785   9.256 -1.3117 -0.3065 -0.4577
   57CHL1   C17 6648   5.529   4.678   9.266  0.1345  0.6226  0.0631
   57CHL1   H17 6649   5.566   4.771   9.314  2.6023  0.1910 -0.8766
   57CHL1   C13 6650   5.574   4.574   9.373  0.4088 -0.1767 -0.7138
   57CHL1   C18 6651   5.565   4.435   9.303  0.0402  0.2896 -0.0483
   57CHL1  H18A 6652   5.480   4.436   9.231  0.3905  0.0193 -0.4694
   57CHL1  H18B 6653   5.655   4.398   9.250  0.3769 -0.4265  1.0148
   57CHL1  H18C 6654   5.536   4.361   9.380 -1.9185 -0.2175 -1.1784
   57CHL1   C12 6655   5.714   4.596   9.439 -0.4235  0.2455  0.3274
   57CHL1  H12A 6656   5.809   4.579   9.384 -0.2807  0.9517  0.3410
   57CHL1  H12B 6657   5.716   4.700   9.479 -0.7547 -0.3814  2.0625
   57CHL1   C11 6658   5.722   4.500   9.563  0.2622 -0.5961 -0.3968
   57CHL1  H11A 6659   5.711   4.397   9.524 -0.4185 -0.3933 -0.7480
   57CHL1  H11B 6660   5.823   4.509   9.609  1.3507  0.2505 -2.7573
   57CHL1    C9 6661   5.605   4.527   9.662  0.2306  0.8564 -1.0592
   57CHL1    H9 6662   5.624   4.632   9.690  1.1464 -0.1233  2.4642
   57CHL1   C10 6663   5.616   4.443   9.796  0.4361 -0.0377  0.0082
   57CHL1   C19 6664   5.634   4.294   9.771 -0.4329  0.3234  0.5481
   57CHL1  H19A 6665   5.724   4.278   9.708 -1.7058  0.1030 -1.3184
   57CHL1  H19B 6666   5.637   4.229   9.860 -0.6452 -0.9059 -0.3119
   57CHL1  H19C 6667   5.545   4.257   9.716 -2.4441  2.3998  2.2423
   57CHL1    C1 6668   5.733   4.492   9.887 -0.5434  0.2104  0.4242
   57CHL1   H1A 6669   5.833   4.481   9.839 -0.2126  1.1187  0.8883
   57CHL1   H1B 6670   5.717   4.602   9.891 -3.8484 -0.0610 -1.3646
   57CHL1    C2 6671   5.729   4.445  10.033 -0.3961  0.0289  0.4494
   57CHL1   H2A 6672   5.801   4.495  10.103 -2.9257  1.1656  2.4280
   57CHL1   H2B 6673   5.738   4.335  10.038 -2.6485 -0.2168  0.0699
   57CHL1   C20 6674   5.586   4.669   9.120 -0.1249 -0.9396 -0.2013
   57CHL1   H20 6675   5.547   4.574   9.079 -1.7445 -1.1598  1.6973
   57CHL1   C21 6676   5.746   4.663   9.120  0.0117  0.6303 -0.3739
   57CHL1  H21A 6677   5.773   4.562   9.159 -2.1639 -0.0163 -0.3820
   57CHL1  H21B 6678   5.789   4.754   9.167  3.5501 -1.3354  0.5648
   57CHL1  H21C 6679   5.777   4.656   9.013  0.9468  1.6656 -0.1818
   57CHL1   C22 6680   5.555   4.798   9.035  0.0130 -0.3481  0.1283
   57CHL1  H22A 6681   5.447   4.822   9.047  0.4505  1.0892  1.4796
   57CHL1  H22B 6682   5.601   4.882   9.091  0.3113  0.7413 -1.6719
   57CHL1   C23 6683   5.591   4.803   8.891 -0.3966  0.6746  0.5639
   57CHL1  H23A 6684   5.610   4.909   8.864  2.1403  0.5053  1.4582
   57CHL1  H23B 6685   5.688   4.754   8.873 -0.0276  1.1539  1.1846
   57CHL1   C24 6686   5.481   4.733   8.804 -0.3600  0.5200 -0.1782
   57CHL1  H24A 6687   5.476   4.630   8.847  3.9537  0.3031  0.2459
   57CHL1  H24B 6688   5.385   4.789   8.806 -0.8111 -0.2288 -0.4046
   57CHL1   C25 6689   5.513   4.723   8.652  0.3935  0.7329  0.3213
   57CHL1   H25 6690   5.424   4.667   8.617  1.6338 -1.0874 -0.0193
   57CHL1   C26 6691   5.528   4.858   8.584  0.2113 -0.6290 -0.1225
   57CHL1  H26A 6692   5.536   4.858   8.474  0.2931 -1.0982 -0.1177
   57CHL1  H26B 6693   5.437   4.912   8.618  0.4862 -1.3940  2.0113
   57CHL1  H26C 6694   5.614   4.913   8.628 -0.2045 -1.1895  1.4667
   57CHL1   C27 6695   5.615   4.617   8.604 -0.0411  0.1330 -1.1606
   57CHL1  H27A 6696   5.586   4.512   8.627 -3.0196  1.0874 -0.0692
   57CHL1  H27B 6697   5.644   4.621   8.497 -0.4020 -1.9186 -1.3714
   57CHL1  H27C 6698   5.714   4.636   8.649  0.7773  0.3780 -2.9687
   58CHL1    C3 6699   2.078   2.302   9.984 -0.1387 -0.2894  0.5356
   58CHL1    H3 6700   2.011   2.390   9.978 -1.6272 -1.3226  1.3764
   58CHL1    O3 6701   2.053   2.250  10.116  0.3236  0.3351  0.5147
   58CHL1   H3' 6702   2.000   2.171  10.122 -1.2347  1.4078  3.3560
   58CHL1    C4 6703   2.029   2.197   9.883 -0.0664  0.1697 -0.1263
   58CHL1   H4A 6704   2.072   2.097   9.904 -0.0836  0.3668  0.9051
   58CHL1   H4B 6705   1.921   2.172   9.894  0.5730 -2.2871  1.2873
   58CHL1    C5 6706   2.051   2.251   9.738 -0.3700  0.4933  0.1504
   58CHL1    C6 6707   1.944   2.264   9.653  0.0549 -0.3956 -0.6160
   58CHL1    H6 6708   1.843   2.229   9.680  0.1309  0.2402  0.5575
   58CHL1    C7 6709   1.973   2.318   9.515 -0.7555 -0.2631  0.6360
   58CHL1   H7A 6710   1.913   2.275   9.432  1.2551  0.9211 -1.5446
   58CHL1   H7B 6711   1.934   2.422   9.512 -0.8378 -0.2751  1.2560
   58CHL1    C8 6712   2.123   2.321   9.469 -0.3254  0.3082 -0.2638
   58CHL1    H8 6713   2.151   2.215   9.450 -0.0444 -0.0424  1.8813
   58CHL1   C14 6714   2.142   2.415   9.347 -0.4021 -0.2102 -0.8234
   58CHL1   H14 6715   2.119   2.510   9.399  1.3303 -0.8107  1.1442
   58CHL1   C15 6716   2.044   2.400   9.231 -0.1765 -0.5368 -0.0954
   58CHL1  H15A 6717   2.042   2.300   9.183 -0.1091 -1.0182  0.8781
   58CHL1  H15B 6718   1.939   2.435   9.242  1.0670  3.1896  1.7899
   58CHL1   C16 6719   2.111   2.505   9.127  0.3249 -0.2328  0.0945
   58CHL1  H16A 6720   2.101   2.467   9.023 -0.1977  4.1494 -1.6373
   58CHL1  H16B 6721   2.050   2.597   9.136 -1.4385 -1.3276 -0.1615
   58CHL1   C17 6722   2.259   2.542   9.176 -0.8263 -1.0854 -0.0891
   58CHL1   H17 6723   2.251   2.639   9.230  1.6275 -2.0501  2.2022
   58CHL1   C13 6724   2.289   2.436   9.289  0.4710  0.3150 -0.0382
   58CHL1   C18 6725   2.327   2.307   9.218  0.4698  0.0373  0.0068
   58CHL1  H18A 6726   2.308   2.226   9.291  0.3197 -0.0623 -0.1436
   58CHL1  H18B 6727   2.263   2.295   9.128 -0.5888  2.3356  0.3819
   58CHL1  H18C 6728   2.433   2.295   9.187  1.2290  1.3243  1.8789
   58CHL1   C12 6729   2.382   2.472   9.407 -0.0308  0.5866  0.3825
   58CHL1  H12A 6730   2.484   2.457   9.365 -0.7113 -2.6748 -0.3769
   58CHL1  H12B 6731   2.384   2.582   9.425  0.3879  0.8836 -1.3067
   58CHL1   C11 6732   2.362   2.389   9.529  0.3748  0.5860 -0.6877
   58CHL1  H11A 6733   2.400   2.289   9.500 -1.4856  0.0464 -1.4357
   58CHL1  H11B 6734   2.420   2.432   9.614 -0.9114  2.0862 -0.5113
   58CHL1    C9 6735   2.213   2.380   9.578  0.5150  0.3504  0.6044
   58CHL1    H9 6736   2.175   2.481   9.605 -0.0737  0.5924 -1.0521
   58CHL1   C10 6737   2.196   2.295   9.708  0.1992  0.1534  0.4182
   58CHL1   C19 6738   2.264   2.153   9.694 -0.0429  0.8631  0.0658
   58CHL1  H19A 6739   2.225   2.091   9.612  1.4575  1.0309 -0.8211
   58CHL1  H19B 6740   2.371   2.166   9.664  0.3138  0.5439  1.1360
   58CHL1  H19C 6741   2.273   2.107   9.795 -0.6688  0.6967  0.0473
   58CHL1    C1 6742   2.255   2.373   9.822 -0.3609 -0.5479 -0.6054
   58CHL1   H1A 6743   2.364   2.386   9.803  0.4962 -2.2405  2.5631
   58CHL1   H1B 6744   2.214   2.477   9.820  1.6497  0.2844 -0.8627
   58CHL1    C2 6745   2.231   2.321   9.964 -0.0922 -0.0615 -0.4667
   58CHL1   H2A 6746   2.270   2.399  10.034 -2.1598  2.2048 -1.6931
   58CHL1   H2B 6747   2.280   2.223   9.984  0.0881  0.4640  2.1162
   58CHL1   C20 6748   2.352   2.576   9.069  0.2710  0.4786 -0.4125
   58CHL1   H20 6749   2.364   2.487   9.005  0.6527 -1.0894  1.7232
   58CHL1   C21 6750   2.483   2.621   9.123  1.0333 -0.4906 -0.2377
   58CHL1  H21A 6751   2.532   2.547   9.190 -1.9756 -2.0245  0.4382
   58CHL1  H21B 6752   2.476   2.718   9.176 -3.9585 -0.9054  0.3181
   58CHL1  H21C 6753   2.554   2.639   9.039  0.4074  0.3554 -0.5943
   58CHL1   C22 6754   2.295   2.691   8.981  0.0238 -1.0494 -0.2423
   58CHL1  H22A 6755   2.186   2.671   8.970 -0.0223 -1.7589  1.2948
   58CHL1  H22B 6756   2.306   2.787   9.034  2.9026 -1.5054  0.1751
   58CHL1   C23 6757   2.368   2.689   8.845 -0.1578 -0.7837  0.2052
   58CHL1  H23A 6758   2.473   2.724   8.858 -0.9083  0.6152  3.5004
   58CHL1  H23B 6759   2.366   2.586   8.804  2.6862 -1.4941  1.5463
   58CHL1   C24 6760   2.283   2.783   8.757  0.3622  0.1181 -0.6855
   58CHL1  H24A 6761   2.177   2.751   8.769 -0.3964  2.6576 -0.1094
   58CHL1  H24B 6762   2.282   2.888   8.793 -1.4850 -0.0496 -0.1203
   58CHL1   C25 6763   2.319   2.779   8.612 -0.7378 -0.0199 -0.7607
   58CHL1   H25 6764   2.311   2.674   8.576 -2.6875  0.5247 -2.1005
   58CHL1   C26 6765   2.210   2.859   8.541 -0.6751  0.0511 -0.2978
   58CHL1  H26A 6766   2.112   2.826   8.583  0.2305 -2.1033  0.2504
   58CHL1  H26B 6767   2.220   2.965   8.571 -0.3224  0.1104 -0.6274
   58CHL1  H26C 6768   2.211   2.842   8.431  0.2616  0.9894 -0.4425
   58CHL1   C27 6769   2.464   2.839   8.598 -0.0671  0.4270  0.1262
   58CHL1  H27A 6770   2.536   2.787   8.666 -0.5712 -2.8833 -1.6263
   58CHL1  H27B 6771   2.498   2.824   8.493  0.6563 -0.6403  0.4845
   58CHL1  H27C 6772   2.460   2.944   8.631  1.3768  0.5513 -0.0306
   59CHL1    C3 6773   6.587   2.542  10.234  0.2132  0.0355  0.4482
   59CHL1    H3 6774   6.637   2.444  10.246  1.2742  0.4432 -0.5021
   59CHL1    O3 6775   6.531   2.575  10.359 -0.0581  0.3430 -0.3226
   59CHL1   H3' 6776   6.521   2.671  10.365  2.1493  0.5732  0.5766
   59CHL1    C4 6777   6.685   2.652  10.185 -0.7821 -0.3681  0.7106
   59CHL1   H4A 6778   6.632   2.749  10.184 -0.6259 -0.1860 -2.9001
   59CHL1   H4B 6779   6.767   2.662  10.259 -0.4344  2.3581  0.0555
   59CHL1    C5 6780   6.743   2.609  10.052 -0.1609 -0.1574  0.2168
   59CHL1    C6 6781   6.875   2.603  10.022  0.3709  0.0454 -0.5602
   59CHL1    H6 6782   6.948   2.631  10.100  0.5095  0.2386 -0.7559
   59CHL1    C7 6783   6.937   2.569   9.890 -0.2439  0.0674  0.8260
   59CHL1   H7A 6784   7.019   2.639   9.864 -1.6978  1.3084 -0.6374
   59CHL1   H7B 6785   6.969   2.464   9.908 -1.4636 -0.3346  0.7228
   59CHL1    C8 6786   6.832   2.559   9.775  0.2920  0.5391  0.1249
   59CHL1    H8 6787   6.821   2.663   9.737  0.2309  0.5693  0.2256
   59CHL1   C14 6788   6.896   2.475   9.665  0.0361  0.3424 -0.0444
   59CHL1   H14 6789   6.895   2.369   9.698 -2.3481  0.4461  0.4291
   59CHL1   C15 6790   7.045   2.504   9.633 -0.1888 -0.5765 -0.1444
   59CHL1  H15A 6791   7.074   2.610   9.625 -1.2122 -0.2516  0.2587
   59CHL1  H15B 6792   7.116   2.466   9.710 -0.3100  0.1837  0.3554
   59CHL1   C16 6793   7.052   2.441   9.499 -0.8462  0.3688 -0.6666
   59CHL1  H16A 6794   7.084   2.520   9.428 -0.1249 -1.2245 -2.1956
   59CHL1  H16B 6795   7.113   2.348   9.488 -0.5378 -0.0164  3.0047
   59CHL1   C17 6796   6.904   2.395   9.458 -0.8218  0.2039  0.3247
   59CHL1   H17 6797   6.886   2.293   9.498  1.0793 -0.2628  0.0789
   59CHL1   C13 6798   6.812   2.481   9.544 -0.5902 -0.0106  1.1075
   59CHL1   C18 6799   6.798   2.623   9.483 -0.0878 -0.3943 -0.0331
   59CHL1  H18A 6800   6.757   2.614   9.380  2.2920  1.4063 -1.2319
   59CHL1  H18B 6801   6.729   2.681   9.548 -0.2669 -1.3510  0.6550
   59CHL1  H18C 6802   6.895   2.676   9.471  0.4708 -1.2372  0.6692
   59CHL1   C12 6803   6.677   2.417   9.574 -0.3120 -0.5017  0.5461
   59CHL1  H12A 6804   6.609   2.428   9.487  1.8620  1.2955 -1.0466
   59CHL1  H12B 6805   6.693   2.309   9.595  1.3157 -0.1896  1.0457
   59CHL1   C11 6806   6.602   2.470   9.693 -0.6044  0.0622 -0.3907
   59CHL1  H11A 6807   6.543   2.557   9.659 -1.7060 -0.1965  0.7534
   59CHL1  H11B 6808   6.526   2.395   9.723 -0.1086 -0.6458 -0.8659
   59CHL1    C9 6809   6.698   2.493   9.818 -0.2029  0.4638 -0.7291
   59CHL1    H9 6810   6.720   2.391   9.856  3.4061  1.9672  1.7551
   59CHL1   C10 6811   6.641   2.568   9.937 -0.9115 -0.5121 -0.8854
   59CHL1   C19 6812   6.564   2.693   9.881  0.5861 -0.3037 -0.3914
   59CHL1  H19A 6813   6.477   2.668   9.817  0.1732 -0.8705  0.3717
   59CHL1  H19B 6814   6.532   2.757   9.966  2.4623  1.4009 -0.8968
   59CHL1  H19C 6815   6.628   2.750   9.811  0.2319 -1.6095 -1.8193
   59CHL1    C1 6816   6.528   2.475  10.000  0.1048 -0.5368  0.5056
   59CHL1   H1A 6817   6.454   2.453   9.920  0.3086 -0.5360  0.3147
   59CHL1   H1B 6818   6.576   2.375  10.014  0.2781 -0.4406  0.6004
   59CHL1    C2 6819   6.473   2.525  10.138 -0.3593  0.1876 -0.2385
   59CHL1   H2A 6820   6.400   2.450  10.173  1.0970 -1.8277 -1.2530
   59CHL1   H2B 6821   6.418   2.620  10.126  1.7880  1.5934  0.3581
   59CHL1   C20 6822   6.886   2.382   9.309  0.3805 -0.2161 -0.0831
   59CHL1   H20 6823   6.892   2.486   9.271  3.2543 -1.3070 -3.1511
   59CHL1   C21 6824   6.761   2.316   9.258 -0.1287  0.0119  0.5229
   59CHL1  H21A 6825   6.761   2.215   9.304  0.3639  0.0463  0.6072
   59CHL1  H21B 6826   6.745   2.305   9.149  0.7556  0.8421  0.2899
   59CHL1  H21C 6827   6.669   2.373   9.283 -0.4474 -0.1951 -0.1440
   59CHL1   C22 6828   7.006   2.311   9.241 -0.0728  0.1343 -0.1739
   59CHL1  H22A 6829   7.106   2.348   9.271  0.4884 -0.2459 -1.5191
   59CHL1  H22B 6830   7.011   2.203   9.266  2.5363 -0.1960 -1.8125
   59CHL1   C23 6831   7.014   2.354   9.095  0.5611  0.5708 -0.2225
   59CHL1  H23A 6832   6.926   2.307   9.048  0.1886 -0.3321  1.2967
   59CHL1  H23B 6833   6.994   2.462   9.076  0.8863  0.4135 -1.5684
   59CHL1   C24 6834   7.150   2.306   9.036 -0.0868 -0.2695 -0.3061
   59CHL1  H24A 6835   7.224   2.373   9.086  0.0402 -0.1451 -0.6590
   59CHL1  H24B 6836   7.176   2.202   9.062  4.0743  0.2870 -1.3993
   59CHL1   C25 6837   7.169   2.324   8.880  0.0165  0.3938 -0.5145
   59CHL1   H25 6838   7.168   2.430   8.849 -1.0220  0.7374  0.6029
   59CHL1   C26 6839   7.305   2.269   8.845 -0.2735  0.2128  0.1297
   59CHL1  H26A 6840   7.299   2.158   8.855 -1.0754  0.3331  1.1893
   59CHL1  H26B 6841   7.340   2.306   8.746 -2.4740 -0.8608 -1.1347
   59CHL1  H26C 6842   7.383   2.296   8.919  0.2167  1.1770 -0.7099
   59CHL1   C27 6843   7.062   2.257   8.794 -0.2694  0.5214 -0.2373
   59CHL1  H27A 6844   6.964   2.306   8.811  0.1909  1.3581  0.1090
   59CHL1  H27B 6845   7.090   2.251   8.686  0.3422 -3.3587  0.0142
   59CHL1  H27C 6846   7.047   2.153   8.827 -1.2484  0.0428 -2.0597
   60CHL1    C3 6847   6.308   0.390  10.354 -0.3040  0.6265  0.1098
   60CHL1    H3 6848   6.284   0.496  10.329 -1.2306  0.2734 -0.5202
   60CHL1    O3 6849   6.317   0.403  10.494  0.1157 -0.1244 -0.0335
   60CHL1   H3' 6850   6.355   0.319  10.521  0.9551  0.5321  0.9243
   60CHL1    C4 6851   6.197   0.295  10.310 -0.1587 -0.9779  0.6537
   60CHL1   H4A 6852   6.218   0.196  10.354 -0.3353 -1.0932  0.4795
   60CHL1   H4B 6853   6.098   0.338  10.337 -0.4231  0.7510 -2.4768
   60CHL1    C5 6854   6.198   0.293  10.154  0.2407 -0.4754 -0.4071
   60CHL1    C6 6855   6.086   0.321  10.083 -0.0912  0.8943  0.3597
   60CHL1    H6 6856   5.987   0.337  10.129 -0.6519 -2.6225  0.6522
   60CHL1    C7 6857   6.086   0.304   9.929  0.4539  0.4278 -0.6655
   60CHL1   H7A 6858   6.008   0.231   9.899 -0.3872  2.5290 -4.2401
   60CHL1   H7B 6859   6.049   0.395   9.876  2.7375  2.5928  1.1760
   60CHL1    C8 6860   6.210   0.257   9.863 -0.1808 -0.0745  0.6337
   60CHL1    H8 6861   6.204   0.146   9.867 -0.7835 -0.0596  0.1847
   60CHL1   C14 6862   6.216   0.300   9.717 -0.1844  0.5671  0.1492
   60CHL1   H14 6863   6.212   0.411   9.722 -2.0382  0.5371  0.0738
   60CHL1   C15 6864   6.095   0.263   9.639 -0.4478  0.1273  0.3577
   60CHL1  H15A 6865   6.061   0.158   9.648 -0.6298  0.1777  0.2600
   60CHL1  H15B 6866   6.011   0.328   9.670 -0.3898  0.5824 -0.4191
   60CHL1   C16 6867   6.140   0.269   9.488  0.0603  0.3540 -0.1744
   60CHL1  H16A 6868   6.136   0.174   9.430  1.1535 -0.2097  0.6326
   60CHL1  H16B 6869   6.093   0.355   9.436 -0.3066  1.0360  1.2350
   60CHL1   C17 6870   6.293   0.308   9.487 -0.0100 -0.2160 -0.2205
   60CHL1   H17 6871   6.315   0.414   9.508  0.1928 -0.4956  1.0910
   60CHL1   C13 6872   6.336   0.257   9.633 -0.0404  0.0800 -0.3811
   60CHL1   C18 6873   6.341   0.106   9.625 -0.5820  0.2117 -0.6436
   60CHL1  H18A 6874   6.428   0.085   9.559  0.6905  3.7418 -0.2867
   60CHL1  H18B 6875   6.361   0.051   9.720 -2.1935 -1.0207 -0.9771
   60CHL1  H18C 6876   6.248   0.066   9.579 -0.9666 -0.1287  0.3848
   60CHL1   C12 6877   6.469   0.315   9.701  0.5698  0.4777  0.8857
   60CHL1  H12A 6878   6.556   0.258   9.664 -0.8811 -1.1293 -0.2124
   60CHL1  H12B 6879   6.491   0.422   9.679  2.4025 -0.1361 -0.4877
   60CHL1   C11 6880   6.468   0.286   9.855 -0.1891 -0.4322  0.0413
   60CHL1  H11A 6881   6.498   0.180   9.871  0.1314 -0.6041 -1.5258
   60CHL1  H11B 6882   6.552   0.343   9.899  0.5067 -0.9685 -0.5536
   60CHL1    C9 6883   6.334   0.313   9.930  0.6865 -0.2821  0.1446
   60CHL1    H9 6884   6.330   0.424   9.932  2.3094 -0.1884 -0.1097
   60CHL1   C10 6885   6.332   0.277  10.086 -0.3812  0.0388  0.2605
   60CHL1   C19 6886   6.375   0.132  10.104 -0.0486  0.1119  0.3529
   60CHL1  H19A 6887   6.476   0.115  10.061 -1.2487 -1.3531 -2.0608
   60CHL1  H19B 6888   6.387   0.097  10.209  2.5443 -0.2028  0.0115
   60CHL1  H19C 6889   6.314   0.049  10.062  1.7980 -0.7397 -0.7897
   60CHL1    C1 6890   6.436   0.377  10.147  0.4854  1.2911  0.8328
   60CHL1   H1A 6891   6.536   0.348  10.108  0.4893  0.0742  1.6783
   60CHL1   H1B 6892   6.415   0.485  10.132 -1.2380  0.8727 -0.0253
   60CHL1    C2 6893   6.443   0.363  10.300 -0.0437 -0.7120 -0.4478
   60CHL1   H2A 6894   6.523   0.428  10.341 -1.4203  0.2469  0.8400
   60CHL1   H2B 6895   6.471   0.257  10.317  1.9824 -0.5989 -2.4935
   60CHL1   C20 6896   6.360   0.247   9.362 -0.5072 -0.4459 -0.5122
   60CHL1   H20 6897   6.333   0.139   9.359  2.6239 -1.3462  0.1689
   60CHL1   C21 6898   6.511   0.261   9.365 -0.2653 -0.2608  0.0235
   60CHL1  H21A 6899   6.543   0.225   9.465 -0.8804  0.1702  0.3827
   60CHL1  H21B 6900   6.541   0.368   9.370 -0.2545 -0.1655 -1.5186
   60CHL1  H21C 6901   6.583   0.224   9.289  1.4108  0.2283  1.3068
   60CHL1   C22 6902   6.310   0.318   9.234  0.5217  0.0267 -0.2167
   60CHL1  H22A 6903   6.200   0.308   9.227  0.7541 -2.2940 -1.9547
   60CHL1  H22B 6904   6.337   0.424   9.217  0.0693 -0.1485 -2.2931
   60CHL1   C23 6905   6.353   0.248   9.106  0.0863  0.2117 -0.3451
   60CHL1  H23A 6906   6.461   0.269   9.090  0.6237 -3.1013 -1.8388
   60CHL1  H23B 6907   6.328   0.140   9.117 -1.4604  0.3284 -2.1528
   60CHL1   C24 6908   6.271   0.284   8.980 -0.2241 -0.2323 -0.0333
   60CHL1  H24A 6909   6.285   0.201   8.908 -0.2698  0.6778 -1.1155
   60CHL1  H24B 6910   6.163   0.292   9.005  0.2100  1.8761  1.4946
   60CHL1   C25 6911   6.314   0.422   8.917 -0.6229 -0.8578  0.3233
   60CHL1   H25 6912   6.310   0.490   9.005 -0.8471 -0.6042  0.1175
   60CHL1   C26 6913   6.453   0.413   8.851 -0.3591  0.7911  0.5650
   60CHL1  H26A 6914   6.536   0.377   8.916  1.0351  0.3348 -1.3542
   60CHL1  H26B 6915   6.454   0.346   8.763 -0.6124  3.0568 -1.2659
   60CHL1  H26C 6916   6.487   0.514   8.819  0.2065  0.5992  0.5388
   60CHL1   C27 6917   6.211   0.474   8.819  0.4335 -0.8171  0.1542
   60CHL1  H27A 6918   6.249   0.577   8.799  0.2268 -0.6786  0.4723
   60CHL1  H27B 6919   6.184   0.405   8.737 -1.9595 -1.7494  1.6299
   60CHL1  H27C 6920   6.119   0.490   8.878  0.9196  0.3128  0.6477
   61CHL1    C3 6921   4.616   0.824  10.251 -0.6581 -0.2908  0.7664
   61CHL1    H3 6922   4.551   0.762  10.185 -2.1751  0.2553  1.6738
   61CHL1    O3 6923   4.570   0.805  10.380  0.8462  0.0582 -0.8245
   61CHL1   H3' 6924   4.474   0.806  10.379  0.7579 -0.6248  1.4048
   61CHL1    C4 6925   4.764   0.786  10.235  0.0499  0.6783  0.0381
   61CHL1   H4A 6926   4.825   0.831  10.316  1.8469 -1.4962  0.0280
   61CHL1   H4B 6927   4.769   0.676  10.253 -1.9830  0.0439 -2.6943
   61CHL1    C5 6928   4.827   0.826  10.100  0.3924 -0.4319  0.0708
   61CHL1    C6 6929   4.882   0.733  10.017 -0.1542 -0.3103  0.0597
   61CHL1    H6 6930   4.898   0.630  10.053 -2.8511 -0.4384  1.1594
   61CHL1    C7 6931   4.940   0.769   9.886 -0.4613 -0.3717 -0.0179
   61CHL1   H7A 6932   5.031   0.707   9.871 -0.6376 -0.5392 -0.4297
   61CHL1   H7B 6933   4.870   0.728   9.810  1.3828 -0.4529 -1.7760
   61CHL1    C8 6934   4.956   0.917   9.866 -0.6998  0.3093  0.0852
   61CHL1    H8 6935   5.044   0.937   9.932 -0.7661 -2.6756  1.2392
   61CHL1   C14 6936   4.996   0.944   9.724 -0.5672 -0.0854 -0.4963
   61CHL1   H14 6937   4.915   0.908   9.657  0.4108 -0.8602 -1.3198
   61CHL1   C15 6938   5.121   0.872   9.669  0.3012  0.8934 -0.4289
   61CHL1  H15A 6939   5.191   0.877   9.756 -1.4643 -1.4210  1.2731
   61CHL1  H15B 6940   5.102   0.768   9.637 -0.8062  0.8735  0.2239
   61CHL1   C16 6941   5.165   0.967   9.560 -0.3107 -0.2259  0.0106
   61CHL1  H16A 6942   5.271   1.000   9.565  0.8969 -3.1975 -2.5686
   61CHL1  H16B 6943   5.159   0.908   9.466 -1.1424 -1.4427  0.7998
   61CHL1   C17 6944   5.078   1.096   9.552 -0.2803  0.6672 -0.1938
   61CHL1   H17 6945   4.987   1.076   9.492  0.1621 -0.2871 -0.5583
   61CHL1   C13 6946   5.019   1.101   9.701 -0.1264 -0.2412 -0.7622
   61CHL1   C18 6947   5.133   1.157   9.796  0.3277 -0.1844  0.1026
   61CHL1  H18A 6948   5.102   1.158   9.903 -2.4523  0.3800 -0.6329
   61CHL1  H18B 6949   5.228   1.100   9.785  0.4836  0.4422 -2.6094
   61CHL1  H18C 6950   5.156   1.261   9.766 -2.3670  0.8658  1.3279
   61CHL1   C12 6951   4.882   1.160   9.719  0.2944 -0.4431 -0.3866
   61CHL1  H12A 6952   4.870   1.264   9.680  1.5755  0.6363  1.8866
   61CHL1  H12B 6953   4.811   1.112   9.648 -1.6257 -1.4516  2.0750
   61CHL1   C11 6954   4.832   1.142   9.867 -0.0679 -0.0144  0.2812
   61CHL1  H11A 6955   4.891   1.207   9.935  2.4928 -2.2532  0.3478
   61CHL1  H11B 6956   4.728   1.182   9.878 -0.1506 -0.1060 -0.1815
   61CHL1    C9 6957   4.834   0.990   9.909 -0.6218 -0.8601 -0.0632
   61CHL1    H9 6958   4.756   0.939   9.849  0.1488 -2.7432  0.4527
   61CHL1   C10 6959   4.799   0.966  10.055  0.2735 -0.1886  0.2235
   61CHL1   C19 6960   4.883   1.070  10.144 -0.0902  0.0905  0.2907
   61CHL1  H19A 6961   4.844   1.174  10.138 -0.1972  0.0738  0.6667
   61CHL1  H19B 6962   4.885   1.031  10.248 -2.2590 -3.2719 -0.7410
   61CHL1  H19C 6963   4.990   1.069  10.115  0.7139  2.1084  2.8291
   61CHL1    C1 6964   4.646   1.005  10.068 -0.3039  0.1877 -0.2053
   61CHL1   H1A 6965   4.633   1.116  10.062  4.0232  0.8134 -1.3707
   61CHL1   H1B 6966   4.585   0.951   9.992 -1.0063  1.1736 -0.3693
   61CHL1    C2 6967   4.593   0.968  10.205 -0.7934 -0.1374  0.1407
   61CHL1   H2A 6968   4.487   0.999  10.189  0.1776  2.0400 -3.4184
   61CHL1   H2B 6969   4.645   1.036  10.276  3.0272 -0.9188 -1.6236
   61CHL1   C20 6970   5.143   1.222   9.495 -0.0695 -0.0317  0.1828
   61CHL1   H20 6971   5.221   1.259   9.566 -0.7043  1.6066  0.0602
   61CHL1   C21 6972   5.036   1.342   9.491 -0.2089 -0.0950  0.3652
   61CHL1  H21A 6973   5.056   1.418   9.413  0.6717  0.6595  1.3045
   61CHL1  H21B 6974   5.044   1.391   9.591 -1.1744  0.3799  0.2302
   61CHL1  H21C 6975   4.936   1.294   9.477 -2.3076  3.3132  2.2160
   61CHL1   C22 6976   5.198   1.189   9.357  0.3037  0.7088  0.0353
   61CHL1  H22A 6977   5.232   1.084   9.360 -0.7033  0.1909 -3.1982
   61CHL1  H22B 6978   5.108   1.195   9.292  0.2274 -0.9452 -0.0414
   61CHL1   C23 6979   5.314   1.283   9.304  0.2687  0.4882  0.0800
   61CHL1  H23A 6980   5.295   1.392   9.303 -0.1245  0.4235  0.1163
   61CHL1  H23B 6981   5.400   1.272   9.374  1.5966  0.3491 -1.5184
   61CHL1   C24 6982   5.358   1.232   9.170 -0.9656 -0.0519  0.1281
   61CHL1  H24A 6983   5.464   1.257   9.144 -0.9609 -0.4286 -0.2189
   61CHL1  H24B 6984   5.346   1.122   9.162 -1.7851 -0.0006  0.5530
   61CHL1   C25 6985   5.286   1.311   9.054 -0.0903 -0.1941 -0.1625
   61CHL1   H25 6986   5.184   1.330   9.094 -0.4376  2.6595 -2.1258
   61CHL1   C26 6987   5.353   1.442   9.029  0.2338 -0.2574 -0.3029
   61CHL1  H26A 6988   5.338   1.514   9.111 -1.1863  1.1578 -1.7340
   61CHL1  H26B 6989   5.463   1.430   9.014  0.4962  0.6043  0.8213
   61CHL1  H26C 6990   5.307   1.492   8.941 -0.9669  0.1479  0.5249
   61CHL1   C27 6991   5.296   1.231   8.927  0.0534 -1.1693  0.1912
   61CHL1  H27A 6992   5.245   1.275   8.839 -1.0606  0.3843  1.5411
   61CHL1  H27B 6993   5.400   1.233   8.889 -0.3297  2.5114 -1.0079
   61CHL1  H27C 6994   5.254   1.129   8.945 -2.1654 -0.4955 -0.8538
   62CHL1    C3 6995   3.875   4.048  10.030  0.4984 -0.5551 -0.4792
   62CHL1    H3 6996   3.884   3.937  10.025 -0.9205 -0.6542 -1.4349
   62CHL1    O3 6997   3.813   4.074  10.153 -0.2321  0.0612  0.0947
   62CHL1   H3' 6998   3.721   4.086  10.131 -0.3980 -1.1351  0.0940
   62CHL1    C4 6999   4.012   4.119  10.008  0.2839  0.2753 -0.2037
   62CHL1   H4A 7000   4.017   4.227  10.033  1.0922  0.1386  0.2460
   62CHL1   H4B 7001   4.070   4.073  10.090 -3.3950 -1.8416  1.4723
   62CHL1    C5 7002   4.066   4.090   9.866  0.0811  0.3783  0.3891
   62CHL1    C6 7003   4.177   4.028   9.857  0.0421  0.2121 -0.2011
   62CHL1    H6 7004   4.243   4.010   9.943  0.5586 -0.8906 -0.8102
   62CHL1    C7 7005   4.233   3.973   9.724  0.6504 -0.2300 -0.3120
   62CHL1   H7A 7006   4.344   3.980   9.716  0.5987  0.8363 -0.2265
   62CHL1   H7B 7007   4.215   3.864   9.714  0.2218 -0.2276  0.4426
   62CHL1    C8 7008   4.163   4.049   9.603 -0.3667  0.3762 -0.3335
   62CHL1    H8 7009   4.198   4.155   9.606  0.4493  0.1108  2.2404
   62CHL1   C14 7010   4.203   3.983   9.469  0.7009 -0.2708 -0.9186
   62CHL1   H14 7011   4.160   3.881   9.472  2.4291 -1.0250  0.8798
   62CHL1   C15 7012   4.353   3.951   9.447 -0.0344  0.0044 -0.0388
   62CHL1  H15A 7013   4.411   4.035   9.492 -1.4961 -0.4819  2.9429
   62CHL1  H15B 7014   4.384   3.850   9.480 -1.6786 -1.0109 -1.4386
   62CHL1   C16 7015   4.363   3.939   9.303 -0.1866  0.1038  0.1997
   62CHL1  H16A 7016   4.434   4.010   9.255 -0.0668  0.1662  0.4666
   62CHL1  H16B 7017   4.404   3.841   9.269 -0.4917  0.3671 -0.9443
   62CHL1   C17 7018   4.224   3.979   9.239  0.3122 -0.4335 -0.0817
   62CHL1   H17 7019   4.173   3.881   9.225 -0.1319 -0.2518  0.2372
   62CHL1   C13 7020   4.152   4.055   9.351 -0.2455  0.3886  0.2766
   62CHL1   C18 7021   4.197   4.203   9.339  0.2188  0.1405 -0.4275
   62CHL1  H18A 7022   4.143   4.247   9.252 -1.9670 -0.0252  0.7691
   62CHL1  H18B 7023   4.185   4.261   9.433  4.9975 -0.3756  0.7467
   62CHL1  H18C 7024   4.308   4.202   9.341  0.2126 -0.3931  1.1087
   62CHL1   C12 7025   4.003   4.044   9.347  0.7367 -0.2692  0.6057
   62CHL1  H12A 7026   3.953   4.100   9.265 -0.9607 -1.2564  0.9075
   62CHL1  H12B 7027   3.975   3.937   9.342  0.3584 -0.3328  2.8074
   62CHL1   C11 7028   3.940   4.099   9.479 -0.1062 -0.4464 -0.5411
   62CHL1  H11A 7029   3.950   4.209   9.471  1.5535 -0.6225 -1.2271
   62CHL1  H11B 7030   3.831   4.075   9.484  0.2867 -2.1193  1.0909
   62CHL1    C9 7031   4.015   4.051   9.611  0.7677  0.0331 -0.4869
   62CHL1    H9 7032   3.995   3.942   9.620 -0.4956  0.1441 -1.5380
   62CHL1   C10 7033   3.970   4.115   9.746  0.2964  0.1151 -0.0004
   62CHL1   C19 7034   3.975   4.275   9.727  0.4282 -0.1070  0.6026
   62CHL1  H19A 7035   3.950   4.332   9.819 -2.9339 -0.2661 -0.0695
   62CHL1  H19B 7036   4.079   4.300   9.697  0.4888 -0.9617  0.0827
   62CHL1  H19C 7037   3.907   4.305   9.645  1.7081  3.0287  0.5599
   62CHL1    C1 7038   3.827   4.055   9.781 -0.4892 -0.0573  0.8309
   62CHL1   H1A 7039   3.762   4.092   9.700  0.0752 -1.4866 -0.3057
   62CHL1   H1B 7040   3.830   3.944   9.771  1.9889  0.1367 -1.9024
   62CHL1    C2 7041   3.779   4.092   9.916  0.4574 -0.0427 -0.4504
   62CHL1   H2A 7042   3.672   4.063   9.922  0.0435  1.0290 -2.0824
   62CHL1   H2B 7043   3.769   4.202   9.921 -0.7963 -0.1548 -0.2834
   62CHL1   C20 7044   4.226   4.036   9.099 -0.0919 -0.4708  0.5264
   62CHL1   H20 7045   4.276   4.134   9.113  1.0523 -1.2698  2.3903
   62CHL1   C21 7046   4.092   4.059   9.036 -0.1889 -0.1552 -0.7433
   62CHL1  H21A 7047   4.021   3.977   9.059 -1.9151  1.8958  1.7961
   62CHL1  H21B 7048   4.090   4.085   8.928 -0.9051  2.9601 -0.0710
   62CHL1  H21C 7049   4.039   4.147   9.079 -3.7322 -1.9676 -1.0243
   62CHL1   C22 7050   4.318   3.958   8.995  0.3338  0.3879 -0.0272
   62CHL1  H22A 7051   4.413   3.926   9.044 -0.6436  1.0849  2.4778
   62CHL1  H22B 7052   4.260   3.867   8.969  0.3088 -0.2078  1.9312
   62CHL1   C23 7053   4.364   4.052   8.885  0.2088  0.5106  0.0930
   62CHL1  H23A 7054   4.278   4.112   8.850  1.8309  1.8239 -1.7979
   62CHL1  H23B 7055   4.424   4.137   8.923  0.1568  1.6444 -2.2580
   62CHL1   C24 7056   4.430   3.996   8.756  0.0879 -0.0508  0.1147
   62CHL1  H24A 7057   4.437   4.076   8.679 -1.6132  0.7086  0.6957
   62CHL1  H24B 7058   4.535   3.972   8.783  0.7096 -0.8404 -2.6826
   62CHL1   C25 7059   4.378   3.864   8.695  0.5245 -0.2807  0.6468
   62CHL1   H25 7060   4.379   3.785   8.773  1.7485  0.8954  1.8725
   62CHL1   C26 7061   4.227   3.865   8.656 -0.6518 -0.6492  0.8380
   62CHL1  H26A 7062   4.214   3.934   8.570 -0.2339 -1.2303  0.2951
   62CHL1  H26B 7063   4.196   3.764   8.619  0.3956  0.6662 -4.5446
   62CHL1  H26C 7064   4.167   3.890   8.746 -1.4693 -1.0982  0.4288
   62CHL1   C27 7065   4.455   3.823   8.573  0.0245  0.2789  0.3405
   62CHL1  H27A 7066   4.565   3.809   8.586  0.0531 -0.4385 -0.6554
   62CHL1  H27B 7067   4.416   3.730   8.527  0.9837  0.8350 -1.7086
   62CHL1  H27C 7068   4.446   3.899   8.493  0.1781 -0.3447 -0.2721
   63CHL1    C3 7069   6.395   4.657  10.259 -0.2112  0.3186 -0.3205
   63CHL1    H3 7070   6.499   4.621  10.243 -0.6171 -1.5049  0.8616
   63CHL1    O3 7071   6.373   4.701  10.389  0.1533 -0.2914  0.4873
   63CHL1   H3' 7072   6.291   4.751  10.385  1.0965  1.4254  1.2635
   63CHL1    C4 7073   6.381   4.776  10.158  0.0524 -0.1453 -0.3063
   63CHL1   H4A 7074   6.295   4.837  10.191  1.6917  0.8516  2.4521
   63CHL1   H4B 7075   6.475   4.832  10.177  0.3975 -0.2338 -1.6485
   63CHL1    C5 7076   6.360   4.732  10.014 -0.2903  0.1401  0.9656
   63CHL1    C6 7077   6.455   4.777   9.927 -0.0920  0.0571 -0.5281
   63CHL1    H6 7078   6.535   4.847   9.956 -0.2772 -0.0721  0.3207
   63CHL1    C7 7079   6.443   4.743   9.782 -0.0369 -0.3088  0.6131
   63CHL1   H7A 7080   6.468   4.830   9.717  0.2480 -1.8485 -1.4538
   63CHL1   H7B 7081   6.517   4.674   9.737 -1.5673 -1.1702 -0.6693
   63CHL1    C8 7082   6.320   4.669   9.734 -0.0940  0.3690  0.1110
   63CHL1    H8 7083   6.237   4.742   9.737 -0.3643  0.1611 -1.2793
   63CHL1   C14 7084   6.339   4.608   9.594 -0.4000 -0.1049 -0.9105
   63CHL1   H14 7085   6.418   4.532   9.613  0.5921  1.1269  0.0480
   63CHL1   C15 7086   6.404   4.691   9.478 -0.7251  0.3657  0.0213
   63CHL1  H15A 7087   6.377   4.799   9.484 -1.7531  0.0262  2.4406
   63CHL1  H15B 7088   6.514   4.687   9.494 -0.7885 -0.0101  0.3707
   63CHL1   C16 7089   6.355   4.622   9.352 -0.5090 -0.1515  0.0117
   63CHL1  H16A 7090   6.301   4.683   9.277 -0.7746 -3.2393 -2.4787
   63CHL1  H16B 7091   6.452   4.594   9.306 -1.2270  1.1662 -2.4681
   63CHL1   C17 7092   6.261   4.503   9.393 -0.5200 -0.8558 -0.0212
   63CHL1   H17 7093   6.333   4.418   9.389  1.4339  0.7197  0.2716
   63CHL1   C13 7094   6.214   4.531   9.538  0.3765  0.2617 -0.0879
   63CHL1   C18 7095   6.099   4.633   9.533  0.6051  0.2702  0.4334
   63CHL1  H18A 7096   6.013   4.581   9.486 -0.2173 -0.2928  2.4387
   63CHL1  H18B 7097   6.064   4.681   9.628  0.9488 -1.0327  1.2388
   63CHL1  H18C 7098   6.114   4.725   9.473 -0.8476 -1.2381 -2.4423
   63CHL1   C12 7099   6.192   4.411   9.633 -0.1294  0.0383 -0.0026
   63CHL1  H12A 7100   6.098   4.356   9.611 -0.9543  1.0004  0.9913
   63CHL1  H12B 7101   6.277   4.340   9.630 -0.1112  0.0395  0.4738
   63CHL1   C11 7102   6.179   4.458   9.786 -0.5827  0.0502  0.2474
   63CHL1  H11A 7103   6.084   4.515   9.797 -0.3396  0.9208 -1.6949
   63CHL1  H11B 7104   6.164   4.368   9.848 -4.7533  0.7180  0.4694
   63CHL1    C9 7105   6.289   4.558   9.830  0.7740  0.7786  0.2814
   63CHL1    H9 7106   6.369   4.481   9.836 -2.5147 -3.0659 -1.0367
   63CHL1   C10 7107   6.264   4.621   9.972  1.0441  0.2159 -0.4421
   63CHL1   C19 7108   6.125   4.700   9.986 -0.4181 -0.3449  0.0409
   63CHL1  H19A 7109   6.108   4.715  10.095  0.3309  0.6045  0.0394
   63CHL1  H19B 7110   6.140   4.799   9.937 -1.0957  0.1869  0.8796
   63CHL1  H19C 7111   6.031   4.656   9.947 -1.4033  2.4462 -0.9704
   63CHL1    C1 7112   6.274   4.507  10.074 -0.0075  0.1465 -0.0234
   63CHL1   H1A 7113   6.189   4.436  10.076 -0.3339  0.5330  0.0288
   63CHL1   H1B 7114   6.369   4.457  10.045  0.2642  1.1988 -1.0372
   63CHL1    C2 7115   6.297   4.544  10.225  0.1378  0.3370 -0.2290
   63CHL1   H2A 7116   6.329   4.452  10.277 -0.4781  0.0145 -0.4123
   63CHL1   H2B 7117   6.196   4.581  10.255  0.8012  3.0620 -1.0754
   63CHL1   C20 7118   6.156   4.474   9.282  0.0992  0.2981 -0.0840
   63CHL1   H20 7119   6.090   4.560   9.257  0.3386  0.2885 -0.7800
   63CHL1   C21 7120   6.055   4.358   9.318 -0.4980  0.0172  0.0113
   63CHL1  H21A 7121   5.996   4.385   9.408 -0.8785  1.2791 -0.5966
   63CHL1  H21B 7122   6.101   4.257   9.321  2.2361  1.0761 -2.0899
   63CHL1  H21C 7123   5.974   4.368   9.242  0.8059 -0.9064 -1.5521
   63CHL1   C22 7124   6.228   4.435   9.141  0.6007  0.2582 -0.4184
   63CHL1  H22A 7125   6.308   4.506   9.112 -0.2538  1.6009  0.3789
   63CHL1  H22B 7126   6.249   4.326   9.151 -3.6081 -0.5568  1.8860
   63CHL1   C23 7127   6.141   4.449   9.021 -0.2095 -0.7924 -0.4126
   63CHL1  H23A 7128   6.045   4.395   9.033 -0.7242  0.5358  2.3877
   63CHL1  H23B 7129   6.122   4.558   9.013  1.5745 -0.3447  0.8751
   63CHL1   C24 7130   6.209   4.405   8.889 -0.0427 -0.3535 -0.8218
   63CHL1  H24A 7131   6.302   4.460   8.866 -0.5532  1.3476  0.9636
   63CHL1  H24B 7132   6.227   4.295   8.895 -1.9249 -0.6659 -0.2255
   63CHL1   C25 7133   6.105   4.411   8.770  0.3280  0.0108  0.4245
   63CHL1   H25 7134   6.019   4.351   8.804  1.3367 -1.6093  0.1997
   63CHL1   C26 7135   6.069   4.560   8.739  0.1644 -0.2069  1.0267
   63CHL1  H26A 7136   5.963   4.568   8.704  0.5493 -0.9438 -0.3991
   63CHL1  H26B 7137   6.075   4.624   8.829 -1.3550  1.8575 -0.2409
   63CHL1  H26C 7138   6.145   4.600   8.669 -0.2677  1.2492  1.3595
   63CHL1   C27 7139   6.163   4.340   8.645  0.6713  0.0261  0.6286
   63CHL1  H27A 7140   6.205   4.242   8.677  0.7729  0.4719  1.9186
   63CHL1  H27B 7141   6.086   4.320   8.567  0.9131  2.8938 -0.4787
   63CHL1  H27C 7142   6.241   4.400   8.594 -0.0629  1.0709  0.7180
   64CHL1    C3 7143   5.298   5.205   9.986 -0.5938 -0.3148 -0.2522
   64CHL1    H3 7144   5.279   5.314   9.976  0.7797 -0.2588 -3.4005
   64CHL1    O3 7145   5.267   5.140  10.109  0.0076  0.3232  1.0450
   64CHL1   H3' 7146   5.318   5.061  10.089  0.4005  0.7960  0.0866
   64CHL1    C4 7147   5.185   5.156   9.893  0.3494  0.4941 -0.4327
   64CHL1   H4A 7148   5.189   5.045   9.894  0.3051  0.4442 -2.5311
   64CHL1   H4B 7149   5.086   5.192   9.928  0.0123 -0.1311 -0.7430
   64CHL1    C5 7150   5.216   5.193   9.749  0.3292 -0.1458 -0.2314
   64CHL1    C6 7151   5.124   5.259   9.679  0.1659 -0.3701 -0.0026
   64CHL1    H6 7152   5.027   5.286   9.724 -1.1469 -0.2363 -2.7230
   64CHL1    C7 7153   5.135   5.298   9.538  0.0122 -0.5137  0.0103
   64CHL1   H7A 7154   5.047   5.276   9.474 -0.7409  0.6121  0.6141
   64CHL1   H7B 7155   5.158   5.406   9.527 -0.9618 -0.2379  0.5631
   64CHL1    C8 7156   5.248   5.215   9.467  1.0477  0.2038 -0.1899
   64CHL1    H8 7157   5.222   5.107   9.460  2.3338 -0.3135  2.0741
   64CHL1   C14 7158   5.263   5.268   9.328  0.1077  0.3018  0.7920
   64CHL1   H14 7159   5.296   5.373   9.342 -0.5186  0.4300  1.3322
   64CHL1   C15 7160   5.136   5.271   9.237  0.3950 -0.1857 -0.4892
   64CHL1  H15A 7161   5.083   5.174   9.233  0.3140 -0.0958 -2.6764
   64CHL1  H15B 7162   5.081   5.360   9.275  1.3691  2.2359 -4.2412
   64CHL1   C16 7163   5.194   5.287   9.095 -0.6244  0.6220 -0.1283
   64CHL1  H16A 7164   5.177   5.196   9.033  0.1095  0.1720  0.3177
   64CHL1  H16B 7165   5.154   5.379   9.046 -1.7495 -1.3288 -3.1527
   64CHL1   C17 7166   5.350   5.298   9.105  0.8858  0.9981  0.6189
   64CHL1   H17 7167   5.376   5.404   9.126  1.5591  0.8342  0.6086
   64CHL1   C13 7168   5.378   5.219   9.245  0.3690  0.0516  0.4395
   64CHL1   C18 7169   5.361   5.065   9.222  0.5728  0.0540 -0.0829
   64CHL1  H18A 7170   5.445   5.022   9.163  1.2696 -0.6520  1.3787
   64CHL1  H18B 7171   5.357   5.014   9.320  0.3591 -0.4545 -0.3515
   64CHL1  H18C 7172   5.266   5.041   9.169 -0.9859 -0.5370  2.7787
   64CHL1   C12 7173   5.502   5.251   9.333 -0.1426  0.3042  0.0985
   64CHL1  H12A 7174   5.593   5.216   9.278 -0.0993 -0.7591  0.8203
   64CHL1  H12B 7175   5.502   5.362   9.333  0.0477  0.3044  0.0516
   64CHL1   C11 7176   5.502   5.193   9.479  0.4247  0.6773  0.1876
   64CHL1  H11A 7177   5.515   5.083   9.475 -0.1046  0.5148  2.0066
   64CHL1  H11B 7178   5.588   5.216   9.545 -0.7213  0.3119  1.8624
   64CHL1    C9 7179   5.366   5.226   9.551 -0.3262  0.3384 -0.2815
   64CHL1    H9 7180   5.387   5.332   9.575 -1.9308  0.5517  0.3016
   64CHL1   C10 7181   5.356   5.159   9.692  0.3680 -0.1081  0.3910
   64CHL1   C19 7182   5.379   5.008   9.673 -0.2514  0.5038  0.3041
   64CHL1  H19A 7183   5.358   4.951   9.766  0.1247 -1.3541 -0.7144
   64CHL1  H19B 7184   5.303   4.974   9.600  0.0772  0.4723 -0.0287
   64CHL1  H19C 7185   5.478   4.977   9.633 -1.4297  0.3049 -2.7489
   64CHL1    C1 7186   5.452   5.211   9.790 -0.0331  0.4294 -0.0707
   64CHL1   H1A 7187   5.554   5.184   9.754 -0.6673  0.1960 -1.7520
   64CHL1   H1B 7188   5.447   5.322   9.793 -1.3049  0.3869  3.3033
   64CHL1    C2 7189   5.441   5.178   9.943 -0.6064  0.2830 -0.3150
   64CHL1   H2A 7190   5.514   5.235  10.005  1.5385 -0.8803 -1.6495
   64CHL1   H2B 7191   5.469   5.072   9.963 -1.9223  0.2431  1.5511
   64CHL1   C20 7192   5.432   5.253   8.984  0.2097  0.1880 -0.0192
   64CHL1   H20 7193   5.429   5.143   8.972  1.9330 -0.6689  5.0175
   64CHL1   C21 7194   5.583   5.284   9.012  0.4058  0.2925 -0.2116
   64CHL1  H21A 7195   5.629   5.206   9.077  0.7776  2.1152  1.8077
   64CHL1  H21B 7196   5.591   5.376   9.073  0.2966  1.2537 -1.6069
   64CHL1  H21C 7197   5.647   5.306   8.924 -1.5677  2.2990 -1.2188
   64CHL1   C22 7198   5.377   5.326   8.854 -0.2612 -0.0860 -0.0961
   64CHL1  H22A 7199   5.432   5.289   8.765 -0.2662 -1.6931  0.5366
   64CHL1  H22B 7200   5.271   5.297   8.843 -0.3806  0.3164 -0.0133
   64CHL1   C23 7201   5.383   5.483   8.858 -0.0174 -0.1048  0.6333
   64CHL1  H23A 7202   5.318   5.527   8.936 -0.1991 -2.1307  1.6907
   64CHL1  H23B 7203   5.480   5.530   8.883  0.9007 -0.9248 -1.1676
   64CHL1   C24 7204   5.335   5.540   8.714  0.0688 -0.0168  0.2838
   64CHL1  H24A 7205   5.415   5.508   8.645  0.8834 -0.3481  1.3461
   64CHL1  H24B 7206   5.239   5.497   8.678 -0.7151  1.6459  0.3063
   64CHL1   C25 7207   5.334   5.695   8.715  1.0159  0.4154  0.0040
   64CHL1   H25 7208   5.416   5.735   8.778  1.4113  0.7259 -0.6973
   64CHL1   C26 7209   5.355   5.746   8.569  0.3973  0.6120  0.4742
   64CHL1  H26A 7210   5.332   5.854   8.563 -1.1660  0.3544  1.2287
   64CHL1  H26B 7211   5.460   5.730   8.536 -0.1059 -0.5726 -0.6554
   64CHL1  H26C 7212   5.295   5.693   8.491  2.0670 -0.6918  0.0049
   64CHL1   C27 7213   5.202   5.737   8.783 -0.1462 -0.6757 -0.1733
   64CHL1  H27A 7214   5.188   5.847   8.795 -0.8172 -0.6736 -0.9014
   64CHL1  H27B 7215   5.116   5.704   8.721 -2.2784 -0.4448  2.4805
   64CHL1  H27C 7216   5.188   5.690   8.882 -0.0559  1.4854  0.9134
   65CHL1    C3 7217   0.958   1.836  10.279 -0.3113  0.2507  0.1112
   65CHL1    H3 7218   0.971   1.942  10.248  0.6649  0.2575  0.5097
   65CHL1    O3 7219   0.889   1.843  10.408 -0.6699  0.4317 -0.2997
   65CHL1   H3' 7220   0.804   1.799  10.401  0.2933 -1.7600  1.0129
   65CHL1    C4 7221   0.883   1.750  10.175 -0.7276 -0.1935  0.6264
   65CHL1   H4A 7222   0.858   1.652  10.220  0.8078 -0.3663  1.1815
   65CHL1   H4B 7223   0.786   1.801  10.159  0.0046  1.2666  0.6177
   65CHL1    C5 7224   0.973   1.719  10.053 -0.8541 -0.6288  0.1639
   65CHL1    C6 7225   0.935   1.745   9.927  0.2272 -0.7577  0.0951
   65CHL1    H6 7226   0.833   1.786   9.913  0.0463 -0.7453  1.3474
   65CHL1    C7 7227   1.021   1.728   9.804  0.0368  0.2760  0.0346
   65CHL1   H7A 7228   0.960   1.682   9.723 -4.7735  1.1790  2.7455
   65CHL1   H7B 7229   1.048   1.831   9.773  0.9736  0.2142  0.5827
   65CHL1    C8 7230   1.146   1.639   9.821  0.1196  0.2263 -1.2836
   65CHL1    H8 7231   1.114   1.533   9.834  1.0306  0.0569 -0.3183
   65CHL1   C14 7232   1.236   1.655   9.699  0.3312  0.1061  0.1368
   65CHL1   H14 7233   1.274   1.759   9.691 -1.5394  0.6839 -2.0572
   65CHL1   C15 7234   1.169   1.620   9.560 -0.5724  0.9103  0.3726
   65CHL1  H15A 7235   1.115   1.523   9.567 -0.6614  0.9813  0.6763
   65CHL1  H15B 7236   1.102   1.692   9.508 -1.7799 -1.3006 -1.2887
   65CHL1   C16 7237   1.295   1.582   9.477 -0.7549  0.9426  0.0331
   65CHL1  H16A 7238   1.273   1.488   9.422 -0.0861  0.9849 -0.3191
   65CHL1  H16B 7239   1.302   1.668   9.407 -1.3996  0.9161 -0.0710
   65CHL1   C17 7240   1.410   1.587   9.575 -0.4739  0.0229 -0.1634
   65CHL1   H17 7241   1.455   1.688   9.575  0.1321 -0.2205  1.1240
   65CHL1   C13 7242   1.355   1.564   9.714 -0.1844 -0.7737 -0.6243
   65CHL1   C18 7243   1.319   1.416   9.719  0.1766  0.8194  0.4909
   65CHL1  H18A 7244   1.416   1.362   9.710  1.0960  2.6422 -1.2218
   65CHL1  H18B 7245   1.264   1.382   9.810 -1.0195 -3.4800 -1.5704
   65CHL1  H18C 7246   1.259   1.374   9.636  0.5944  1.7094 -0.2733
   65CHL1   C12 7247   1.436   1.603   9.837  0.3219  0.1241  0.0840
   65CHL1  H12A 7248   1.528   1.542   9.851 -0.5642 -1.4107 -0.5188
   65CHL1  H12B 7249   1.469   1.708   9.820  0.1421  0.3661  1.1744
   65CHL1   C11 7250   1.354   1.610   9.962 -0.4940 -0.4144  0.5791
   65CHL1  H11A 7251   1.341   1.504   9.995 -1.3142 -0.0600  1.4245
   65CHL1  H11B 7252   1.412   1.654  10.045  1.0547  0.2119 -0.7920
   65CHL1    C9 7253   1.216   1.681   9.946 -0.5909  0.2110  0.7206
   65CHL1    H9 7254   1.236   1.789   9.931 -1.0240  0.4680  1.9208
   65CHL1   C10 7255   1.124   1.668  10.079 -0.1591 -0.4605 -0.0444
   65CHL1   C19 7256   1.118   1.517  10.122  0.0114 -0.1914  0.3016
   65CHL1  H19A 7257   1.222   1.482  10.138  0.8224  2.5927  1.7095
   65CHL1  H19B 7258   1.051   1.484  10.204 -0.2099  0.2840  0.3152
   65CHL1  H19C 7259   1.068   1.468  10.036 -1.0918 -0.2129  0.9350
   65CHL1    C1 7260   1.182   1.757  10.188  0.5132 -0.4372 -0.2517
   65CHL1   H1A 7261   1.277   1.719  10.231 -0.9302 -2.5072  1.2719
   65CHL1   H1B 7262   1.197   1.853  10.133 -0.2265  0.3673  0.8918
   65CHL1    C2 7263   1.095   1.775  10.313  0.5059 -0.0079 -0.3754
   65CHL1   H2A 7264   1.136   1.853  10.381 -1.0727 -0.0395  0.6646
   65CHL1   H2B 7265   1.074   1.673  10.350 -0.8581  0.0614 -0.9055
   65CHL1   C20 7266   1.532   1.502   9.524  0.4139 -0.2113 -0.3598
   65CHL1   H20 7267   1.515   1.393   9.522 -2.0239  0.0849  0.6465
   65CHL1   C21 7268   1.662   1.539   9.603 -0.6542  0.4714 -0.1187
   65CHL1  H21A 7269   1.676   1.484   9.698  0.8205 -3.0958 -2.2082
   65CHL1  H21B 7270   1.667   1.649   9.618 -0.9975  0.6448 -1.1784
   65CHL1  H21C 7271   1.749   1.501   9.546 -0.6478 -0.6408  0.6158
   65CHL1   C22 7272   1.557   1.530   9.374  0.3333  0.1034  0.0550
   65CHL1  H22A 7273   1.467   1.503   9.315  1.3454 -0.0613 -1.4690
   65CHL1  H22B 7274   1.578   1.639   9.367  0.3573  0.0304 -1.1258
   65CHL1   C23 7275   1.684   1.466   9.308 -0.1635  1.0330 -0.1095
   65CHL1  H23A 7276   1.781   1.510   9.341  0.7850 -0.8328 -0.2887
   65CHL1  H23B 7277   1.694   1.359   9.336 -1.5682  0.7233 -0.7217
   65CHL1   C24 7278   1.672   1.473   9.152  0.0959  0.3065 -0.7486
   65CHL1  H24A 7279   1.766   1.423   9.121  0.1581 -0.7639  1.0448
   65CHL1  H24B 7280   1.575   1.431   9.119 -1.8921  1.4733  3.0242
   65CHL1   C25 7281   1.682   1.618   9.107 -0.0840  0.3740  0.0036
   65CHL1   H25 7282   1.618   1.682   9.171  0.9942  0.7817  0.7164
   65CHL1   C26 7283   1.828   1.666   9.132 -0.0484 -0.7043 -0.6650
   65CHL1  H26A 7284   1.854   1.670   9.239 -4.6354  2.7855  0.6215
   65CHL1  H26B 7285   1.902   1.599   9.083  0.5260  0.2973 -1.1969
   65CHL1  H26C 7286   1.841   1.771   9.098  0.6937 -0.3938  0.5176
   65CHL1   C27 7287   1.649   1.620   8.955 -0.4970 -0.0096  0.9156
   65CHL1  H27A 7288   1.722   1.551   8.908 -1.0388  0.6493 -0.9562
   65CHL1  H27B 7289   1.551   1.581   8.923 -0.5940  1.6386 -1.0417
   65CHL1  H27C 7290   1.652   1.725   8.919 -0.6309  0.0501  1.0748
   66CHL1    C3 7291   6.827   0.743  10.413  0.1095 -0.2711 -0.0002
   66CHL1    H3 7292   6.931   0.760  10.379 -0.2866 -1.6757 -2.0240
   66CHL1    O3 7293   6.820   0.725  10.559 -0.1887 -0.0856  0.4292
   66CHL1   H3' 7294   6.823   0.816  10.589  0.5639  0.4576 -1.1830
   66CHL1    C4 7295   6.762   0.875  10.378  0.3730  0.3717  0.1460
   66CHL1   H4A 7296   6.660   0.879  10.420  0.2561 -0.8666  0.0169
   66CHL1   H4B 7297   6.818   0.949  10.438  0.7999 -0.1734  0.4364
   66CHL1    C5 7298   6.754   0.896  10.230 -0.4279  0.6433 -0.6752
   66CHL1    C6 7299   6.793   1.009  10.168 -0.1000 -0.2698  0.6405
   66CHL1    H6 7300   6.820   1.093  10.233 -0.9615  1.5921 -1.2449
   66CHL1    C7 7301   6.768   1.038  10.027  0.7334  0.4566 -0.5966
   66CHL1   H7A 7302   6.722   1.139  10.019  1.9010  1.2199  1.6434
   66CHL1   H7B 7303   6.866   1.038   9.975 -0.2353 -1.1956 -2.5605
   66CHL1    C8 7304   6.665   0.934   9.957 -0.0480 -0.6356 -0.8908
   66CHL1    H8 7305   6.565   0.978   9.977 -0.4117 -1.4025 -1.0209
   66CHL1   C14 7306   6.679   0.952   9.805 -0.7034  0.3094 -0.5860
   66CHL1   H14 7307   6.775   0.900   9.784 -0.3137  0.5628  0.4686
   66CHL1   C15 7308   6.683   1.089   9.745 -0.0774 -0.0865  0.5300
   66CHL1  H15A 7309   6.596   1.153   9.771 -0.8650 -0.3804 -1.2624
   66CHL1  H15B 7310   6.784   1.137   9.749 -0.2546  0.3014  0.4510
   66CHL1   C16 7311   6.671   1.052   9.595 -0.5222  0.1252 -0.6128
   66CHL1  H16A 7312   6.599   1.126   9.554  2.4125  2.5856 -1.6910
   66CHL1  H16B 7313   6.772   1.066   9.551  1.1712 -1.1433  2.4910
   66CHL1   C17 7314   6.627   0.899   9.587  0.4407  0.4966  0.7814
   66CHL1   H17 7315   6.725   0.853   9.561  0.4878  2.0984 -2.3344
   66CHL1   C13 7316   6.584   0.866   9.726  0.4304 -0.6658 -0.3850
   66CHL1   C18 7317   6.443   0.920   9.744 -0.4806 -0.5024 -0.2314
   66CHL1  H18A 7318   6.367   0.858   9.691  1.0501 -1.2822 -1.5703
   66CHL1  H18B 7319   6.414   0.907   9.851  0.0214 -2.0964 -0.2643
   66CHL1  H18C 7320   6.431   1.028   9.723 -1.5945 -0.0291  2.3979
   66CHL1   C12 7321   6.612   0.721   9.767 -0.0407  0.8926  0.7299
   66CHL1  H12A 7322   6.534   0.663   9.712  1.1352  1.7351 -1.9859
   66CHL1  H12B 7323   6.708   0.679   9.729 -0.0106  1.0990  0.5754
   66CHL1   C11 7324   6.600   0.700   9.918 -0.0646  0.8296 -0.0217
   66CHL1  H11A 7325   6.491   0.700   9.941 -0.4506 -2.5208 -1.3272
   66CHL1  H11B 7326   6.630   0.595   9.939 -0.9372  0.4545 -0.5540
   66CHL1    C9 7327   6.687   0.793  10.006 -0.5607 -0.7372 -0.1238
   66CHL1    H9 7328   6.790   0.769   9.970 -0.3491  0.2972 -0.2613
   66CHL1   C10 7329   6.683   0.772  10.161  0.8061 -0.1001  0.2904
   66CHL1   C19 7330   6.534   0.776  10.201  0.5658  0.1273 -0.3835
   66CHL1  H19A 7331   6.481   0.873  10.191  0.9856  0.4140  0.0854
   66CHL1  H19B 7332   6.479   0.704  10.137  1.7945  0.5289 -1.9678
   66CHL1  H19C 7333   6.506   0.736  10.300 -0.3469  1.9718  0.1497
   66CHL1    C1 7334   6.752   0.638  10.195  0.1394  0.1850  0.5262
   66CHL1   H1A 7335   6.686   0.564  10.145  1.6156 -0.1464 -0.9864
   66CHL1   H1B 7336   6.850   0.648  10.145 -1.1726  1.3763 -1.9894
   66CHL1    C2 7337   6.777   0.620  10.350 -0.3019 -0.2388 -0.1289
   66CHL1   H2A 7338   6.850   0.540  10.376  0.1474 -0.2179 -1.2441
   66CHL1   H2B 7339   6.678   0.596  10.394 -0.9616 -3.2820 -2.8375
   66CHL1   C20 7340   6.524   0.878   9.465 -0.2779  0.4383 -0.3532
   66CHL1   H20 7341   6.417   0.895   9.489 -0.7576 -1.3918 -1.0115
   66CHL1   C21 7342   6.537   0.729   9.433  0.5591 -0.1314 -0.5460
   66CHL1  H21A 7343   6.646   0.707   9.436  0.1942 -2.0179  0.9203
   66CHL1  H21B 7344   6.496   0.693   9.336  2.1445 -2.5197 -0.4254
   66CHL1  H21C 7345   6.493   0.668   9.515  0.1194 -0.4626 -1.0236
   66CHL1   C22 7346   6.551   0.957   9.340 -0.5459 -0.7569  0.5193
   66CHL1  H22A 7347   6.558   1.067   9.358 -1.2222 -0.3544 -1.3761
   66CHL1  H22B 7348   6.652   0.926   9.307  0.3659  0.8171  1.6514
   66CHL1   C23 7349   6.450   0.945   9.215 -0.1619  0.0745  0.0882
   66CHL1  H23A 7350   6.437   0.838   9.186  2.2902 -0.2760  0.0867
   66CHL1  H23B 7351   6.353   0.986   9.250 -1.2605 -0.1657 -2.4738
   66CHL1   C24 7352   6.502   1.031   9.098  0.6901  0.2462  0.7016
   66CHL1  H24A 7353   6.502   1.133   9.143 -0.9480  0.1333  1.0400
   66CHL1  H24B 7354   6.608   1.008   9.074  0.3076  0.6466 -1.5894
   66CHL1   C25 7355   6.411   1.040   8.971 -0.1387  0.0910 -0.1697
   66CHL1   H25 7356   6.307   1.061   9.005 -0.7029 -2.0161 -0.4407
   66CHL1   C26 7357   6.463   1.138   8.860 -0.2100  0.2538  0.3211
   66CHL1  H26A 7358   6.405   1.132   8.765  0.1769  0.9168  0.0337
   66CHL1  H26B 7359   6.450   1.239   8.905  0.0566  0.1194  0.7005
   66CHL1  H26C 7360   6.573   1.128   8.848 -0.2764  1.2783 -1.4701
   66CHL1   C27 7361   6.395   0.900   8.903 -0.6535  0.0833 -0.2078
   66CHL1  H27A 7362   6.497   0.865   8.875  0.0963  0.3448  1.9778
   66CHL1  H27B 7363   6.347   0.826   8.971  1.5599 -0.7174  0.5924
   66CHL1  H27C 7364   6.331   0.905   8.813 -0.1308 -1.6292 -0.7166
   67CHL1    C3 7365   3.901   0.688  10.094 -0.1245 -0.2874 -0.0154
   67CHL1    H3 7366   3.888   0.787  10.045  0.5926  0.2948  0.9294
   67CHL1    O3 7367   3.797   0.653  10.183 -0.4530 -0.1834 -0.1216
   67CHL1   H3' 7368   3.837   0.593  10.247 -0.5642 -1.1279 -0.9146
   67CHL1    C4 7369   3.905   0.579   9.987  0.0335  0.6427  1.0800
   67CHL1   H4A 7370   3.923   0.482  10.038  1.6119  0.7561  0.7929
   67CHL1   H4B 7371   3.807   0.575   9.934  0.6776  0.2360 -0.1181
   67CHL1    C5 7372   4.028   0.600   9.892 -0.0539 -0.9132  0.4011
   67CHL1    C6 7373   4.002   0.615   9.761 -0.5341 -0.7652 -0.2148
   67CHL1    H6 7374   3.901   0.597   9.722 -0.7603  0.7842 -0.4039
   67CHL1    C7 7375   4.116   0.626   9.660 -0.2514  0.0432  0.3175
   67CHL1   H7A 7376   4.104   0.550   9.579 -1.0545  0.0828  0.3903
   67CHL1   H7B 7377   4.113   0.729   9.618  0.0020  1.1728  2.9152
   67CHL1    C8 7378   4.259   0.607   9.722  1.0918  1.3072  0.4373
   67CHL1    H8 7379   4.273   0.497   9.736 -0.4845  0.9462 -0.5876
   67CHL1   C14 7380   4.366   0.648   9.623  0.4173 -0.7646 -0.7472
   67CHL1   H14 7381   4.342   0.754   9.603  0.7812 -0.6752 -0.7150
   67CHL1   C15 7382   4.358   0.575   9.490  0.3997 -0.8197  0.5521
   67CHL1  H15A 7383   4.348   0.467   9.510 -0.6200 -0.7494  0.4551
   67CHL1  H15B 7384   4.270   0.609   9.431  0.9619 -3.8660 -2.2903
   67CHL1   C16 7385   4.494   0.613   9.428  0.6510 -0.6513 -0.3895
   67CHL1  H16A 7386   4.539   0.516   9.396 -0.2521 -1.5212  0.9016
   67CHL1  H16B 7387   4.488   0.675   9.335  0.5381 -0.2137 -0.0941
   67CHL1   C17 7388   4.575   0.694   9.532  0.7702  0.2892  0.0971
   67CHL1   H17 7389   4.541   0.799   9.527  0.0591  0.1150  1.0176
   67CHL1   C13 7390   4.512   0.647   9.669  0.0091  0.3508  0.6893
   67CHL1   C18 7391   4.553   0.508   9.698 -0.2525  0.1918 -1.1283
   67CHL1  H18A 7392   4.474   0.456   9.756  0.8793  0.5938  0.8291
   67CHL1  H18B 7393   4.581   0.450   9.607  1.7440 -0.6216 -0.0512
   67CHL1  H18C 7394   4.651   0.506   9.750 -1.9843 -1.8962  2.4450
   67CHL1   C12 7395   4.514   0.742   9.794 -0.3388 -0.3959  0.4481
   67CHL1  H12A 7396   4.617   0.749   9.835 -0.3672 -1.0681  0.6486
   67CHL1  H12B 7397   4.469   0.841   9.773  0.5867  0.1226  0.8582
   67CHL1   C11 7398   4.415   0.700   9.909 -0.2289  0.2347 -0.5481
   67CHL1  H11A 7399   4.459   0.606   9.948 -1.7380  0.1258  0.9810
   67CHL1  H11B 7400   4.417   0.767   9.997 -0.7482 -1.3178  0.6873
   67CHL1    C9 7401   4.273   0.679   9.852 -0.3343 -0.2931  0.5403
   67CHL1    H9 7402   4.233   0.780   9.826 -1.0804 -0.9297 -0.8882
   67CHL1   C10 7403   4.166   0.635   9.955  0.7719 -0.1277 -0.4506
   67CHL1   C19 7404   4.213   0.504  10.019  0.2377  0.0361  0.3462
   67CHL1  H19A 7405   4.238   0.428   9.943 -0.5254  0.2506 -0.1267
   67CHL1  H19B 7406   4.304   0.512  10.083  1.8644 -2.4908 -1.4858
   67CHL1  H19C 7407   4.130   0.467  10.083  0.0166 -1.4383 -0.7396
   67CHL1    C1 7408   4.147   0.742  10.068  0.1345  0.8357  0.2915
   67CHL1   H1A 7409   4.242   0.761  10.124  0.4779 -1.4181  0.5503
   67CHL1   H1B 7410   4.118   0.837  10.018  0.2538 -0.5920 -2.7099
   67CHL1    C2 7411   4.038   0.703  10.168 -0.0498 -0.1696 -0.2387
   67CHL1   H2A 7412   4.017   0.784  10.240 -0.7428 -0.7222  0.1979
   67CHL1   H2B 7413   4.084   0.622  10.229  1.7735  1.2139  0.3013
   67CHL1   C20 7414   4.727   0.703   9.522 -0.0427  0.5169  0.0809
   67CHL1   H20 7415   4.762   0.712   9.627 -0.4193  1.9489  0.1028
   67CHL1   C21 7416   4.761   0.836   9.456 -0.6586 -0.1138  0.2449
   67CHL1  H21A 7417   4.872   0.847   9.456 -0.6145 -0.5318  0.4920
   67CHL1  H21B 7418   4.714   0.907   9.527 -1.1865 -2.1120  1.9747
   67CHL1  H21C 7419   4.719   0.850   9.354  0.1402 -1.4485 -0.2903
   67CHL1   C22 7420   4.790   0.566   9.459 -0.4194 -0.0072 -0.7719
   67CHL1  H22A 7421   4.757   0.479   9.519  2.9411 -2.0222 -1.5988
   67CHL1  H22B 7422   4.751   0.559   9.355 -1.4713  3.5512 -0.7408
   67CHL1   C23 7423   4.946   0.558   9.461  0.7083  0.2253 -0.2560
   67CHL1  H23A 7424   4.996   0.625   9.388  0.7183 -0.3706 -0.8035
   67CHL1  H23B 7425   4.974   0.601   9.560  0.9618  0.0192 -0.2370
   67CHL1   C24 7426   4.986   0.405   9.445  0.0523  0.2875 -0.1261
   67CHL1  H24A 7427   4.904   0.356   9.503  0.0448 -1.2299 -1.3476
   67CHL1  H24B 7428   4.975   0.380   9.338  1.4991  1.5915 -0.6090
   67CHL1   C25 7429   5.133   0.376   9.499  0.0477  0.2155 -0.5167
   67CHL1   H25 7430   5.133   0.265   9.492 -1.1840  0.2031 -0.4427
   67CHL1   C26 7431   5.237   0.452   9.422  0.1741  0.0536  0.1309
   67CHL1  H26A 7432   5.344   0.430   9.445  0.6724  1.2915 -0.8749
   67CHL1  H26B 7433   5.227   0.416   9.317 -0.7370 -1.3084  0.6570
   67CHL1  H26C 7434   5.215   0.560   9.430 -0.3765 -0.1845  2.7844
   67CHL1   C27 7435   5.136   0.402   9.647  0.9372  0.3193  0.4930
   67CHL1  H27A 7436   5.039   0.366   9.689 -0.8848  1.6755 -2.3024
   67CHL1  H27B 7437   5.222   0.353   9.699 -0.4679 -1.3957  1.3406
   67CHL1  H27C 7438   5.133   0.509   9.676 -2.4600  0.7252 -0.9284
   68CHL1    C3 7439   1.509   0.681  10.357  0.0754 -0.1655 -0.1121
   68CHL1    H3 7440   1.609   0.644  10.388 -0.2794 -0.6819  0.4601
   68CHL1    O3 7441   1.448   0.716  10.479 -0.1105 -0.0957 -0.5945
   68CHL1   H3' 7442   1.381   0.648  10.493  0.6469 -0.2860  3.1107
   68CHL1    C4 7443   1.528   0.802  10.261  0.3153 -0.6600 -0.2406
   68CHL1   H4A 7444   1.433   0.859  10.258  0.3122 -0.0605  4.1608
   68CHL1   H4B 7445   1.600   0.869  10.313 -0.4543 -1.1350  1.5450
   68CHL1    C5 7446   1.583   0.751  10.125 -0.1000 -0.2834 -0.3067
   68CHL1    C6 7447   1.694   0.802  10.071  0.9393 -0.3947 -0.0485
   68CHL1    H6 7448   1.744   0.883  10.126 -0.9917  1.3151 -0.6412
   68CHL1    C7 7449   1.747   0.758   9.931 -0.5621 -0.6820 -0.2891
   68CHL1   H7A 7450   1.788   0.846   9.877  3.7901 -3.4242 -1.9988
   68CHL1   H7B 7451   1.833   0.691   9.952  1.5994  2.1225  0.4696
   68CHL1    C8 7452   1.644   0.683   9.860 -0.3579  0.0972  0.2629
   68CHL1    H8 7453   1.567   0.755   9.823  1.5021  2.2263  0.3221
   68CHL1   C14 7454   1.694   0.617   9.732 -0.4209 -0.6615  0.1582
   68CHL1   H14 7455   1.772   0.541   9.753 -0.1209 -0.0902  1.1628
   68CHL1   C15 7456   1.766   0.715   9.637 -0.3430 -0.3297 -0.0972
   68CHL1  H15A 7457   1.714   0.813   9.642 -2.8685 -1.6621  2.1453
   68CHL1  H15B 7458   1.871   0.731   9.669 -1.1760  1.1008  2.1877
   68CHL1   C16 7459   1.748   0.651   9.500  0.6167  0.0711  0.1466
   68CHL1  H16A 7460   1.695   0.734   9.449 -0.8826  0.2695  1.9209
   68CHL1  H16B 7461   1.846   0.629   9.454  0.5992  0.5136 -0.1028
   68CHL1   C17 7462   1.664   0.519   9.516 -0.6743 -0.2510  0.1270
   68CHL1   H17 7463   1.745   0.443   9.524 -0.3244 -0.1009 -1.7230
   68CHL1   C13 7464   1.588   0.543   9.654 -0.1103  0.2364  0.6152
   68CHL1   C18 7465   1.458   0.631   9.628 -0.5553  0.7281 -0.3291
   68CHL1  H18A 7466   1.463   0.705   9.545 -0.7111 -2.4294 -3.3815
   68CHL1  H18B 7467   1.375   0.571   9.587 -0.7050  1.2583 -0.8155
   68CHL1  H18C 7468   1.407   0.674   9.717 -2.3426 -0.6135 -0.6448
   68CHL1   C12 7469   1.547   0.422   9.733 -0.1826  0.0941  0.2271
   68CHL1  H12A 7470   1.475   0.358   9.677 -0.4281  1.1798 -0.7509
   68CHL1  H12B 7471   1.640   0.364   9.752  0.8395  0.9907 -1.6929
   68CHL1   C11 7472   1.495   0.468   9.874  0.2911  0.0724 -0.3046
   68CHL1  H11A 7473   1.397   0.509   9.844  0.5116  0.6131 -0.2953
   68CHL1  H11B 7474   1.480   0.376   9.935 -0.1752  1.1740  1.3091
   68CHL1    C9 7475   1.577   0.573   9.949 -0.6730 -0.4239 -0.0926
   68CHL1    H9 7476   1.657   0.507   9.990 -1.2178 -1.1544 -0.1719
   68CHL1   C10 7477   1.505   0.629  10.069 -0.2647  0.1339 -0.0773
   68CHL1   C19 7478   1.368   0.687  10.026 -0.1111  0.0155  0.0027
   68CHL1  H19A 7479   1.320   0.752  10.103 -0.3794 -1.2192  0.9019
   68CHL1  H19B 7480   1.378   0.771   9.953 -3.5247  2.8044  2.3864
   68CHL1  H19C 7481   1.291   0.611  10.000 -1.1977  0.9244  0.4758
   68CHL1    C1 7482   1.482   0.516  10.165  0.4422 -0.1430 -0.9052
   68CHL1   H1A 7483   1.427   0.426  10.132  1.5892 -1.7924  1.3828
   68CHL1   H1B 7484   1.581   0.473  10.192  0.4136 -0.2443 -0.9608
   68CHL1    C2 7485   1.424   0.567  10.299  0.0383 -0.1767 -0.0687
   68CHL1   H2A 7486   1.426   0.490  10.380  0.3567  1.0720  1.1389
   68CHL1   H2B 7487   1.318   0.597  10.290 -0.3966 -1.2109  1.3205
   68CHL1   C20 7488   1.586   0.476   9.390  0.1819  0.0675  0.5406
   68CHL1   H20 7489   1.501   0.546   9.378 -0.4531 -0.4056  2.0863
   68CHL1   C21 7490   1.536   0.330   9.400 -0.6648 -0.2812  0.0373
   68CHL1  H21A 7491   1.615   0.268   9.448  0.5120  1.4521  0.4439
   68CHL1  H21B 7492   1.522   0.277   9.304  1.3007 -0.2234 -0.3243
   68CHL1  H21C 7493   1.443   0.316   9.460  0.3738 -1.4566  1.4621
   68CHL1   C22 7494   1.670   0.491   9.267  0.0511  0.4843  0.2982
   68CHL1  H22A 7495   1.691   0.599   9.250 -0.0529  0.4308 -0.1829
   68CHL1  H22B 7496   1.770   0.443   9.267  0.1301  0.5973 -1.3491
   68CHL1   C23 7497   1.605   0.449   9.135  0.6681 -0.3476 -0.5511
   68CHL1  H23A 7498   1.596   0.339   9.126  0.5875 -0.7160  2.7830
   68CHL1  H23B 7499   1.510   0.505   9.124  1.2000  1.1599  1.6663
   68CHL1   C24 7500   1.704   0.485   9.020  0.3956  0.1741  0.1851
   68CHL1  H24A 7501   1.716   0.595   9.033  0.6140  0.2856 -0.8759
   68CHL1  H24B 7502   1.802   0.437   9.038  0.7999  1.7992  2.9770
   68CHL1   C25 7503   1.657   0.454   8.869 -0.4425 -0.0887 -0.3236
   68CHL1   H25 7504   1.619   0.350   8.863  0.2050 -0.3475 -0.0797
   68CHL1   C26 7505   1.552   0.545   8.811  0.2662 -0.4676 -0.5474
   68CHL1  H26A 7506   1.594   0.648   8.813 -2.0522  0.5367  1.6666
   68CHL1  H26B 7507   1.508   0.510   8.715 -1.8147 -0.6582  0.4376
   68CHL1  H26C 7508   1.470   0.548   8.886 -0.3707  0.5002 -1.2579
   68CHL1   C27 7509   1.792   0.464   8.785 -1.4787 -1.1147  0.0124
   68CHL1  H27A 7510   1.810   0.573   8.771  2.6342 -1.5910  0.1613
   68CHL1  H27B 7511   1.880   0.411   8.828  2.2237  2.9058 -1.9187
   68CHL1  H27C 7512   1.776   0.423   8.683  1.1856 -0.8235 -0.6126
   69CHL1    C3 7513   6.611   5.188   6.621  0.2404  0.2587  0.2421
   69CHL1    H3 7514   6.533   5.268   6.624 -1.1375 -0.9975 -0.6245
   69CHL1    O3 7515   6.614   5.133   6.493 -0.3004  0.2839  0.3755
   69CHL1   H3' 7516   6.608   5.204   6.429  0.3965  0.9116  0.9865
   69CHL1    C4 7517   6.751   5.240   6.660 -0.1479  0.5498  0.2379
   69CHL1   H4A 7518   6.826   5.159   6.641 -0.8286 -0.0670  0.1327
   69CHL1   H4B 7519   6.774   5.318   6.585 -1.9108 -0.9180 -1.9629
   69CHL1    C5 7520   6.779   5.272   6.804 -0.4876 -0.3892  0.0789
   69CHL1    C6 7521   6.834   5.391   6.839  0.6370  0.7804 -0.1101
   69CHL1    H6 7522   6.859   5.467   6.764  0.6910  1.5549  0.6740
   69CHL1    C7 7523   6.862   5.429   6.986  0.6446 -0.2467  0.2402
   69CHL1   H7A 7524   6.964   5.461   7.016  0.5620 -1.7030  2.2850
   69CHL1   H7B 7525   6.807   5.518   7.024  0.7004  0.2264 -0.7685
   69CHL1    C8 7526   6.846   5.301   7.080  0.6291  0.2626 -0.1738
   69CHL1    H8 7527   6.944   5.249   7.076  2.0823  2.8661 -0.8934
   69CHL1   C14 7528   6.820   5.348   7.224  0.6435  1.0481 -0.0285
   69CHL1   H14 7529   6.723   5.402   7.224  0.3305  0.4954 -0.6338
   69CHL1   C15 7530   6.927   5.446   7.283  0.9578 -0.3410  0.3333
   69CHL1  H15A 7531   7.025   5.395   7.277  0.2258 -1.7878  0.2687
   69CHL1  H15B 7532   6.924   5.543   7.229  1.0601 -0.2817  0.4351
   69CHL1   C16 7533   6.879   5.458   7.429 -0.2583 -0.1431  0.3545
   69CHL1  H16A 7534   6.968   5.454   7.496  0.1778 -0.0905 -0.2151
   69CHL1  H16B 7535   6.835   5.556   7.455 -0.9001  0.0092 -1.2247
   69CHL1   C17 7536   6.777   5.345   7.458 -0.3092  1.0283  0.0455
   69CHL1   H17 7537   6.680   5.390   7.427 -0.5065  0.1899 -0.5746
   69CHL1   C13 7538   6.803   5.246   7.340 -0.2883 -0.7215  0.0594
   69CHL1   C18 7539   6.927   5.165   7.359 -0.2393  0.1645  0.0910
   69CHL1  H18A 7540   6.947   5.106   7.267 -1.5691  0.3839 -0.3630
   69CHL1  H18B 7541   7.014   5.230   7.382  2.0517 -2.5567 -0.3385
   69CHL1  H18C 7542   6.915   5.090   7.440  1.2989  0.7143  0.8711
   69CHL1   C12 7543   6.674   5.161   7.298  0.4495  0.5224 -0.2752
   69CHL1  H12A 7544   6.658   5.076   7.369  1.4589  0.4293 -0.1445
   69CHL1  H12B 7545   6.591   5.233   7.311 -0.3563 -0.2276 -1.1440
   69CHL1   C11 7546   6.689   5.105   7.155 -0.6282 -0.9043  0.3675
   69CHL1  H11A 7547   6.765   5.024   7.159  0.0615 -0.2414  1.7122
   69CHL1  H11B 7548   6.588   5.064   7.135 -0.9341 -0.1807  0.3774
   69CHL1    C9 7549   6.723   5.213   7.048 -0.5123  0.7955  0.3921
   69CHL1    H9 7550   6.634   5.280   7.050 -0.8481  0.4210 -1.0290
   69CHL1   C10 7551   6.717   5.161   6.904 -0.0529  0.2040  0.4564
   69CHL1   C19 7552   6.809   5.035   6.908 -0.4506  0.7259  0.2369
   69CHL1  H19A 7553   6.751   4.952   6.954  3.6217 -1.2092  2.4221
   69CHL1  H19B 7554   6.823   4.998   6.804  0.1795 -0.3449  0.6897
   69CHL1  H19C 7555   6.909   5.040   6.954  1.1839 -1.6252 -2.7005
   69CHL1    C1 7556   6.569   5.126   6.857 -0.1705 -0.2107  0.2128
   69CHL1   H1A 7557   6.525   5.040   6.911  0.1465 -1.5860 -1.6076
   69CHL1   H1B 7558   6.503   5.211   6.884  0.3274 -0.0101  0.8188
   69CHL1    C2 7559   6.568   5.076   6.710 -0.0931 -0.4168  1.2199
   69CHL1   H2A 7560   6.464   5.043   6.688 -0.6243  2.4584 -1.3018
   69CHL1   H2B 7561   6.633   4.988   6.691 -0.0743 -0.0730 -0.4751
   69CHL1   C20 7562   6.779   5.301   7.598  0.1468  0.8569 -0.5806
   69CHL1   H20 7563   6.883   5.274   7.627  0.4340  2.2867 -0.1879
   69CHL1   C21 7564   6.686   5.180   7.619  0.0896  0.1203  0.0320
   69CHL1  H21A 7565   6.592   5.208   7.567  1.1715 -0.0215 -2.0906
   69CHL1  H21B 7566   6.661   5.161   7.726 -0.6422 -1.2922 -0.3625
   69CHL1  H21C 7567   6.717   5.087   7.568 -1.6021 -1.3078  1.4573
   69CHL1   C22 7568   6.751   5.418   7.692 -1.0308 -0.5647  0.0109
   69CHL1  H22A 7569   6.830   5.492   7.670  0.1546 -1.9676 -0.6354
   69CHL1  H22B 7570   6.654   5.465   7.665 -0.7533  0.4675  0.7609
   69CHL1   C23 7571   6.757   5.373   7.838 -0.4611  0.8431 -0.2722
   69CHL1  H23A 7572   6.668   5.311   7.863 -0.5314  1.8303  2.2062
   69CHL1  H23B 7573   6.855   5.323   7.852 -1.5445 -1.8602 -1.7225
   69CHL1   C24 7574   6.728   5.505   7.920 -0.2963  0.4776 -0.4076
   69CHL1  H24A 7575   6.818   5.570   7.912  0.0201  0.3605  1.8255
   69CHL1  H24B 7576   6.639   5.557   7.878 -1.5369  0.2235  1.7491
   69CHL1   C25 7577   6.710   5.482   8.076  0.3821  0.2817  0.1711
   69CHL1   H25 7578   6.726   5.581   8.124  0.1517 -0.2977  1.4940
   69CHL1   C26 7579   6.564   5.432   8.099  0.1478 -0.1278 -0.4311
   69CHL1  H26A 7580   6.497   5.499   8.041  1.2060 -0.6844 -2.4136
   69CHL1  H26B 7581   6.561   5.330   8.056  0.2841  0.6443 -2.3912
   69CHL1  H26C 7582   6.556   5.431   8.210  0.4083 -0.3305 -0.4125
   69CHL1   C27 7583   6.802   5.386   8.150 -0.3580 -1.0458  0.8345
   69CHL1  H27A 7584   6.906   5.423   8.145 -1.2441  2.1683  2.9491
   69CHL1  H27B 7585   6.772   5.373   8.256 -0.6511 -0.5806  0.8141
   69CHL1  H27C 7586   6.786   5.285   8.107 -0.2366 -0.9459  0.5555
   70CHL1    C3 7587   0.614   4.111   6.982 -0.3880 -0.0128  0.2093
   70CHL1    H3 7588   0.715   4.158   6.978 -0.9903  1.2317 -2.3490
   70CHL1    O3 7589   0.570   4.100   6.850 -0.1503  0.4543 -0.0837
   70CHL1   H3' 7590   0.474   4.096   6.840  0.1124 -1.1671 -3.5289
   70CHL1    C4 7591   0.635   3.969   7.044 -0.2570 -0.5225 -0.6165
   70CHL1   H4A 7592   0.543   3.906   7.036 -0.5129 -0.2689  0.2329
   70CHL1   H4B 7593   0.718   3.910   6.998  0.0995 -1.0110  0.6241
   70CHL1    C5 7594   0.669   3.987   7.193 -1.3523 -0.8011 -0.3996
   70CHL1    C6 7595   0.784   3.939   7.246  1.4470 -0.7519 -0.4965
   70CHL1    H6 7596   0.846   3.873   7.183  1.7797 -0.7178 -0.2103
   70CHL1    C7 7597   0.837   3.954   7.383  0.8926 -0.8705  0.0153
   70CHL1   H7A 7598   0.907   3.873   7.414  1.9286 -0.5192 -1.3362
   70CHL1   H7B 7599   0.891   4.051   7.383 -1.6278  0.6249 -1.3706
   70CHL1    C8 7600   0.715   3.976   7.478 -0.3766  0.3034 -0.2237
   70CHL1    H8 7601   0.661   3.879   7.473  1.0636 -0.4715 -2.2190
   70CHL1   C14 7602   0.764   3.997   7.617 -0.0299 -0.2791 -0.7478
   70CHL1   H14 7603   0.797   4.103   7.626  0.5646 -0.5657  0.6681
   70CHL1   C15 7604   0.868   3.906   7.671  0.2301  0.4891 -1.3055
   70CHL1  H15A 7605   0.839   3.806   7.633  2.6424 -0.0967 -1.7873
   70CHL1  H15B 7606   0.966   3.938   7.628  1.0721 -0.3981 -0.1117
   70CHL1   C16 7607   0.852   3.907   7.821 -0.4223  0.6822 -0.1589
   70CHL1  H16A 7608   0.829   3.805   7.856 -0.6583  0.1250 -1.8470
   70CHL1  H16B 7609   0.950   3.936   7.865 -0.5777 -2.1749  2.4012
   70CHL1   C17 7610   0.733   4.003   7.848  0.3237 -0.3350  0.1357
   70CHL1   H17 7611   0.780   4.103   7.857 -1.7161  0.6462  0.4867
   70CHL1   C13 7612   0.644   3.995   7.714  0.0639 -0.6785  0.7638
   70CHL1   C18 7613   0.560   3.861   7.717 -0.5184 -0.3276  0.0968
   70CHL1  H18A 7614   0.512   3.861   7.617  0.9834 -0.9425 -0.6554
   70CHL1  H18B 7615   0.629   3.774   7.724 -0.6208 -0.3612  0.6922
   70CHL1  H18C 7616   0.479   3.862   7.793  2.8495 -0.1464  4.0730
   70CHL1   C12 7617   0.561   4.113   7.685  0.1696 -0.4153  0.0271
   70CHL1  H12A 7618   0.468   4.123   7.745  0.8468  1.5487  0.8020
   70CHL1  H12B 7619   0.612   4.207   7.712 -1.1966  0.7394 -1.2252
   70CHL1   C11 7620   0.506   4.126   7.533 -0.0814  0.0497  0.7189
   70CHL1  H11A 7621   0.426   4.050   7.531  0.5874 -0.6607 -0.7199
   70CHL1  H11B 7622   0.464   4.226   7.508  2.3776  1.2122  0.8320
   70CHL1    C9 7623   0.617   4.090   7.429 -0.0074 -0.0097 -0.0139
   70CHL1    H9 7624   0.687   4.176   7.418  0.8157 -0.5806  0.7511
   70CHL1   C10 7625   0.566   4.066   7.282  0.1743 -0.3517 -0.3062
   70CHL1   C19 7626   0.428   3.979   7.290 -0.3444 -0.0493  0.6738
   70CHL1  H19A 7627   0.394   3.942   7.191 -0.5331 -1.3467  1.2107
   70CHL1  H19B 7628   0.440   3.893   7.359  1.8885  0.2987  0.8050
   70CHL1  H19C 7629   0.347   4.046   7.326 -3.1790 -1.8438 -1.8625
   70CHL1    C1 7630   0.546   4.200   7.213  0.3333  0.7511 -0.4467
   70CHL1   H1A 7631   0.467   4.264   7.258  1.8335  0.5388  2.8088
   70CHL1   H1B 7632   0.646   4.247   7.227  0.6017 -0.5225  3.1788
   70CHL1    C2 7633   0.511   4.193   7.065  0.8143  0.1937  0.0019
   70CHL1   H2A 7634   0.489   4.286   7.008 -2.1267  0.2891  1.1311
   70CHL1   H2B 7635   0.415   4.137   7.068 -0.2901  1.5415 -3.9801
   70CHL1   C20 7636   0.653   3.979   7.979  0.5092 -0.0807  0.4293
   70CHL1   H20 7637   0.577   3.899   7.966 -0.2216  0.4886  1.0992
   70CHL1   C21 7638   0.575   4.111   8.013  0.4772 -0.4524 -0.4367
   70CHL1  H21A 7639   0.548   4.177   7.928  0.3626 -0.4231 -0.3789
   70CHL1  H21B 7640   0.640   4.178   8.073 -0.3556  0.8211 -0.9132
   70CHL1  H21C 7641   0.481   4.090   8.068  1.0330  0.1329  0.7754
   70CHL1   C22 7642   0.740   3.946   8.101  0.0707  0.0351 -1.4927
   70CHL1  H22A 7643   0.819   3.872   8.077  1.1657  0.3991  0.7865
   70CHL1  H22B 7644   0.789   4.041   8.132 -0.1910  0.5704 -2.6630
   70CHL1   C23 7645   0.667   3.902   8.234 -0.0997  0.2189  0.3610
   70CHL1  H23A 7646   0.608   3.988   8.272 -0.7601  0.3712 -0.9512
   70CHL1  H23B 7647   0.592   3.830   8.197 -0.3623 -0.7592  2.6407
   70CHL1   C24 7648   0.768   3.836   8.322 -0.6239 -0.5694 -0.1274
   70CHL1  H24A 7649   0.821   3.756   8.266  0.5570 -0.2418  0.4671
   70CHL1  H24B 7650   0.847   3.910   8.349 -1.9764  0.3601  1.5407
   70CHL1   C25 7651   0.703   3.774   8.453  0.7987  0.3934 -0.3254
   70CHL1   H25 7652   0.620   3.839   8.487  2.5131  1.9487  1.0996
   70CHL1   C26 7653   0.637   3.642   8.412  0.6221  0.2536 -0.4140
   70CHL1  H26A 7654   0.708   3.560   8.390  0.6527 -0.1950  1.2016
   70CHL1  H26B 7655   0.573   3.609   8.497 -1.8110  0.5100 -2.0448
   70CHL1  H26C 7656   0.570   3.656   8.325 -1.4516  0.7464  1.1610
   70CHL1   C27 7657   0.812   3.751   8.560 -0.3349 -0.0131 -0.2534
   70CHL1  H27A 7658   0.765   3.708   8.650 -1.2213 -0.2499 -0.8211
   70CHL1  H27B 7659   0.894   3.689   8.517 -0.2312  0.8329 -1.3537
   70CHL1  H27C 7660   0.862   3.848   8.581  1.1152 -0.6516 -0.6318
   71CHL1    C3 7661   6.241   5.332   6.655 -0.1558  0.3968  0.2793
   71CHL1    H3 7662   6.344   5.304   6.686 -0.8084 -1.6285  0.7185
   71CHL1    O3 7663   6.220   5.351   6.515 -0.2415 -0.2512 -0.0423
   71CHL1   H3' 7664   6.257   5.434   6.482 -1.0559  1.3435  2.7186
   71CHL1    C4 7665   6.145   5.219   6.704 -0.1136 -0.2833 -0.5095
   71CHL1   H4A 7666   6.042   5.240   6.669 -0.3252 -0.6629 -0.1335
   71CHL1   H4B 7667   6.175   5.124   6.655 -1.4185 -1.0361  0.1005
   71CHL1    C5 7668   6.143   5.212   6.858 -0.0312  0.1004  0.3664
   71CHL1    C6 7669   6.148   5.092   6.910 -0.6806 -0.7780 -0.6279
   71CHL1    H6 7670   6.136   5.009   6.839  0.4049  0.6526 -2.5834
   71CHL1    C7 7671   6.160   5.070   7.063 -0.9012  0.3604 -0.6055
   71CHL1   H7A 7672   6.081   4.995   7.086 -0.5537  0.2589  0.3062
   71CHL1   H7B 7673   6.259   5.028   7.089 -0.6923  0.6798 -0.8797
   71CHL1    C8 7674   6.139   5.198   7.152  0.0188  0.2542 -0.1510
   71CHL1    H8 7675   6.029   5.204   7.168  0.0134 -1.7063  0.8535
   71CHL1   C14 7676   6.207   5.181   7.287 -0.0427 -0.5741  0.1418
   71CHL1   H14 7677   6.315   5.182   7.261 -0.0864 -1.4578 -0.0984
   71CHL1   C15 7678   6.186   5.051   7.363 -0.4151 -0.2802  0.6510
   71CHL1  H15A 7679   6.082   5.012   7.359  0.2679 -2.1492  0.4759
   71CHL1  H15B 7680   6.241   4.963   7.325  1.1371  0.3800  1.2793
   71CHL1   C16 7681   6.219   5.086   7.511 -0.2070 -0.8103 -0.0738
   71CHL1  H16A 7682   6.123   5.067   7.564 -1.5430  2.6347 -1.0310
   71CHL1  H16B 7683   6.301   5.023   7.554 -0.4870  0.8855  3.2060
   71CHL1   C17 7684   6.259   5.241   7.512  0.2899  0.7489 -0.1458
   71CHL1   H17 7685   6.367   5.247   7.486  0.4771 -0.1536  0.3959
   71CHL1   C13 7686   6.181   5.290   7.387 -0.6714 -0.6349 -0.8208
   71CHL1   C18 7687   6.030   5.299   7.417 -0.0427  0.4523 -0.0726
   71CHL1  H18A 7688   6.009   5.384   7.486  0.1173  0.1442  0.3566
   71CHL1  H18B 7689   5.978   5.324   7.321  1.0303 -0.7145 -0.9845
   71CHL1  H18C 7690   5.992   5.204   7.459  0.8513  0.2213  0.2242
   71CHL1   C12 7691   6.227   5.421   7.327  0.2400  0.1156  0.3186
   71CHL1  H12A 7692   6.193   5.499   7.399 -0.7152  0.2728 -0.2843
   71CHL1  H12B 7693   6.337   5.411   7.327  0.2445  0.1378 -0.0839
   71CHL1   C11 7694   6.169   5.453   7.185  1.2432  0.6131 -0.0302
   71CHL1  H11A 7695   6.059   5.458   7.196  1.2260 -1.3240  1.0729
   71CHL1  H11B 7696   6.211   5.546   7.142 -0.7624  1.5540 -0.0732
   71CHL1    C9 7697   6.195   5.326   7.081  0.5426 -0.3734 -0.8725
   71CHL1    H9 7698   6.305   5.315   7.079  0.8735  2.1828  0.1545
   71CHL1   C10 7699   6.149   5.340   6.934 -0.3531  0.1558 -0.7929
   71CHL1   C19 7700   6.005   5.402   6.931  0.1809  0.3298  0.2075
   71CHL1  H19A 7701   5.928   5.334   6.975 -2.2428  0.9420 -2.7669
   71CHL1  H19B 7702   5.989   5.493   6.993 -2.9899  1.2300 -1.7363
   71CHL1  H19C 7703   5.965   5.419   6.829  0.9856  0.4132 -0.0976
   71CHL1    C1 7704   6.234   5.450   6.878  0.0553  0.4163  0.5428
   71CHL1   H1A 7705   6.206   5.551   6.915  0.5690 -0.1619  2.6531
   71CHL1   H1B 7706   6.343   5.443   6.901 -0.1987 -0.2926  1.6343
   71CHL1    C2 7707   6.222   5.470   6.719  0.3516 -0.2803 -0.0754
   71CHL1   H2A 7708   6.297   5.543   6.681 -0.0705  0.7723  1.0542
   71CHL1   H2B 7709   6.123   5.518   6.702  0.4182 -0.3533 -0.6914
   71CHL1   C20 7710   6.230   5.311   7.650 -1.0672 -0.4625  0.3138
   71CHL1   H20 7711   6.119   5.318   7.654 -1.2269  0.4783 -3.1065
   71CHL1   C21 7712   6.295   5.453   7.658  0.0819 -0.6740  0.4151
   71CHL1  H21A 7713   6.236   5.499   7.741  0.6408  1.2026 -0.1852
   71CHL1  H21B 7714   6.294   5.514   7.566 -0.5386  0.4815  1.1540
   71CHL1  H21C 7715   6.401   5.443   7.690 -0.0593  2.1467  2.1545
   71CHL1   C22 7716   6.263   5.221   7.777 -0.5262  0.0399 -0.2285
   71CHL1  H22A 7717   6.246   5.113   7.759 -0.0189  0.0954 -1.1043
   71CHL1  H22B 7718   6.371   5.236   7.797  0.0140 -0.7657 -2.2463
   71CHL1   C23 7719   6.185   5.271   7.900 -0.7348 -0.4561  0.1761
   71CHL1  H23A 7720   6.210   5.377   7.922 -0.4620 -1.1275  3.5392
   71CHL1  H23B 7721   6.078   5.270   7.872  0.0135  0.1064 -3.2806
   71CHL1   C24 7722   6.219   5.189   8.025  0.3444  0.0627 -0.6457
   71CHL1  H24A 7723   6.211   5.080   8.006 -0.2974  0.2329 -1.4463
   71CHL1  H24B 7724   6.326   5.195   8.054  0.3948 -2.9050  0.1704
   71CHL1   C25 7725   6.139   5.218   8.146 -0.1545  0.2609 -0.8521
   71CHL1   H25 7726   6.030   5.214   8.123 -0.2732 -1.2354 -0.1459
   71CHL1   C26 7727   6.161   5.096   8.249  0.3590 -0.5865 -0.0290
   71CHL1  H26A 7728   6.118   5.004   8.205 -3.0297  0.0370  1.6469
   71CHL1  H26B 7729   6.265   5.089   8.288  1.0648 -0.0613 -1.7198
   71CHL1  H26C 7730   6.093   5.117   8.335  0.0778  0.6598 -0.5340
   71CHL1   C27 7731   6.175   5.349   8.204 -0.7006  0.3266 -0.1966
   71CHL1  H27A 7732   6.284   5.363   8.220 -1.0779  3.0540  0.5525
   71CHL1  H27B 7733   6.145   5.429   8.132 -0.0670  1.5541  0.8689
   71CHL1  H27C 7734   6.116   5.365   8.297 -0.9676 -0.5117 -0.2182
   72CHL1    C3 7735   1.236   3.836   7.002  0.1219  0.1938  0.3250
   72CHL1    H3 7736   1.212   3.728   7.001  1.6017 -0.2052  2.5912
   72CHL1    O3 7737   1.187   3.901   6.884  0.4699  0.3552  0.3945
   72CHL1   H3' 7738   1.150   3.835   6.825  0.2074  1.2963 -0.5355
   72CHL1    C4 7739   1.162   3.896   7.123 -0.5378 -0.0227 -0.9849
   72CHL1   H4A 7740   1.196   4.002   7.115 -0.1992 -0.1349 -1.0205
   72CHL1   H4B 7741   1.052   3.886   7.109 -0.7384 -2.9343  1.6848
   72CHL1    C5 7742   1.208   3.830   7.246 -0.0700 -0.3891 -0.1434
   72CHL1    C6 7743   1.131   3.754   7.323  0.1272  0.0171  0.4232
   72CHL1    H6 7744   1.029   3.742   7.284 -0.6292 -1.4886  2.6740
   72CHL1    C7 7745   1.166   3.691   7.453 -0.9319  0.4738 -0.5316
   72CHL1   H7A 7746   1.091   3.714   7.532 -0.4728 -1.0794  0.3869
   72CHL1   H7B 7747   1.175   3.583   7.432  0.7050  0.7518 -1.4330
   72CHL1    C8 7748   1.298   3.748   7.500 -0.0958 -0.3034  0.1141
   72CHL1    H8 7749   1.282   3.854   7.529  1.0381  0.4779 -1.9451
   72CHL1   C14 7750   1.355   3.662   7.613 -0.0808 -0.2055  0.4677
   72CHL1   H14 7751   1.377   3.563   7.567 -0.1380 -0.5011  1.0657
   72CHL1   C15 7752   1.262   3.635   7.733  0.1973 -0.2902  0.4079
   72CHL1  H15A 7753   1.202   3.724   7.758  2.6823  0.7465  3.2338
   72CHL1  H15B 7754   1.195   3.549   7.709  0.8020 -0.5496 -0.3975
   72CHL1   C16 7755   1.348   3.592   7.846 -0.7595  0.0202  0.4507
   72CHL1  H16A 7756   1.328   3.646   7.940 -0.8679 -1.3453  1.2463
   72CHL1  H16B 7757   1.350   3.481   7.854 -1.6211 -0.0124  0.2437
   72CHL1   C17 7758   1.497   3.624   7.798  0.2043 -0.0216 -0.2596
   72CHL1   H17 7759   1.543   3.531   7.757  0.7574  0.5973 -1.0673
   72CHL1   C13 7760   1.487   3.708   7.672 -0.6238  0.2554 -0.2923
   72CHL1   C18 7761   1.464   3.856   7.728  0.1477  0.0015  0.3317
   72CHL1  H18A 7762   1.561   3.890   7.769  1.3613  0.0331 -2.3764
   72CHL1  H18B 7763   1.438   3.924   7.644  1.9637 -0.1260 -0.3693
   72CHL1  H18C 7764   1.380   3.872   7.799 -1.6591 -0.2867 -1.6344
   72CHL1   C12 7765   1.594   3.697   7.561 -0.1209  0.3466  0.3639
   72CHL1  H12A 7766   1.687   3.753   7.588  0.6698 -0.1029 -1.2912
   72CHL1  H12B 7767   1.622   3.597   7.521 -0.4165  0.7156 -0.8051
   72CHL1   C11 7768   1.545   3.783   7.443 -0.8376  0.4247 -0.2558
   72CHL1  H11A 7769   1.545   3.888   7.481 -1.7512  1.3180 -2.5720
   72CHL1  H11B 7770   1.627   3.769   7.370  1.6378  2.3158  1.9372
   72CHL1    C9 7771   1.404   3.755   7.387  0.2115 -0.2867  0.0158
   72CHL1    H9 7772   1.407   3.650   7.351  0.6258  0.0007 -0.7914
   72CHL1   C10 7773   1.359   3.847   7.274  0.1149  0.2393  0.5536
   72CHL1   C19 7774   1.406   3.987   7.302 -0.9906  0.0677 -0.8283
   72CHL1  H19A 7775   1.355   4.062   7.237 -0.2050  0.8056 -0.5996
   72CHL1  H19B 7776   1.387   4.022   7.405  0.7240 -1.0196 -0.1112
   72CHL1  H19C 7777   1.515   3.993   7.284 -1.0788 -2.2777 -2.7752
   72CHL1    C1 7778   1.434   3.795   7.149  0.6931  0.6224  0.1390
   72CHL1   H1A 7779   1.543   3.812   7.148  1.2104 -2.1981 -0.9810
   72CHL1   H1B 7780   1.416   3.686   7.149 -3.5146  1.1460  0.3689
   72CHL1    C2 7781   1.386   3.851   7.014  0.6842 -0.0703 -0.6199
   72CHL1   H2A 7782   1.438   3.798   6.932  0.9579 -2.3938  0.9746
   72CHL1   H2B 7783   1.404   3.961   7.013 -1.9671  0.4425  0.1822
   72CHL1   C20 7784   1.596   3.664   7.907  0.2559 -0.3462 -0.7953
   72CHL1   H20 7785   1.679   3.722   7.862 -2.2010  2.3773 -2.1969
   72CHL1   C21 7786   1.658   3.533   7.962 -0.5772 -0.1680 -1.0891
   72CHL1  H21A 7787   1.738   3.554   8.037 -0.4848 -0.2667 -1.1601
   72CHL1  H21B 7788   1.709   3.475   7.882 -0.1786 -1.6695  0.2005
   72CHL1  H21C 7789   1.586   3.461   8.007 -2.1295  0.8093 -1.9202
   72CHL1   C22 7790   1.540   3.749   8.025  0.0199 -1.0087 -0.3683
   72CHL1  H22A 7791   1.461   3.816   7.986 -0.4524 -1.0017  0.5745
   72CHL1  H22B 7792   1.484   3.688   8.099 -0.2792 -1.0723 -0.6437
   72CHL1   C23 7793   1.645   3.834   8.097 -0.5661 -0.6641  0.0393
   72CHL1  H23A 7794   1.729   3.777   8.142  2.1307  2.6427 -0.4512
   72CHL1  H23B 7795   1.694   3.901   8.024 -1.1511 -1.8683 -1.5271
   72CHL1   C24 7796   1.574   3.911   8.212 -0.1050  0.0960 -0.8200
   72CHL1  H24A 7797   1.524   4.005   8.181 -0.5903  0.4363  0.9043
   72CHL1  H24B 7798   1.517   3.838   8.273 -1.4338  2.9475  1.5830
   72CHL1   C25 7799   1.668   3.982   8.316 -0.3264  0.8355 -0.6472
   72CHL1   H25 7800   1.741   3.914   8.364 -1.2518  1.2042  1.3508
   72CHL1   C26 7801   1.752   4.081   8.242 -0.4701 -0.1859 -0.1713
   72CHL1  H26A 7802   1.813   4.143   8.312  2.0976 -0.5902 -1.8781
   72CHL1  H26B 7803   1.813   4.034   8.161  2.1040 -0.7453  1.9533
   72CHL1  H26C 7804   1.682   4.151   8.191  1.4112  0.3265 -2.2620
   72CHL1   C27 7805   1.594   4.038   8.444 -0.5383 -0.2094  0.0322
   72CHL1  H27A 7806   1.665   4.074   8.521  0.6169  0.2809 -1.2119
   72CHL1  H27B 7807   1.525   4.119   8.412  1.9617  0.8428 -3.2738
   72CHL1  H27C 7808   1.526   3.968   8.497 -0.5524  1.6423  2.6643
   73CHL1    C3 7809   6.561   5.777   6.949 -0.2097  0.4777 -0.6738
   73CHL1    H3 7810   6.600   5.675   6.971 -1.4576  0.3397  1.1683
   73CHL1    O3 7811   6.515   5.782   6.814 -0.3281  0.5156  0.3909
   73CHL1   H3' 7812   6.589   5.777   6.752  0.0097  2.2214  0.6078
   73CHL1    C4 7813   6.437   5.803   7.036 -0.6811  0.1078 -0.5653
   73CHL1   H4A 7814   6.383   5.896   7.009 -1.1351  1.5215  4.3520
   73CHL1   H4B 7815   6.365   5.719   7.026 -2.1256  1.0682  1.1900
   73CHL1    C5 7816   6.482   5.799   7.184 -0.4355 -0.0021  0.0122
   73CHL1    C6 7817   6.440   5.707   7.276 -0.0336 -0.1994  0.8757
   73CHL1    H6 7818   6.361   5.646   7.229  0.0910  0.2623  0.0403
   73CHL1    C7 7819   6.479   5.705   7.420 -0.4178  0.4866  0.5123
   73CHL1   H7A 7820   6.389   5.698   7.485 -0.9450 -0.0132 -0.2539
   73CHL1   H7B 7821   6.551   5.624   7.447 -1.1686 -0.2108  0.4641
   73CHL1    C8 7822   6.552   5.839   7.464 -0.3930 -0.4364 -0.0538
   73CHL1    H8 7823   6.472   5.916   7.459 -0.2514 -0.1168  1.8887
   73CHL1   C14 7824   6.609   5.819   7.598  0.1111  0.8161  0.4838
   73CHL1   H14 7825   6.684   5.738   7.583  0.7445  1.6780 -1.3294
   73CHL1   C15 7826   6.525   5.777   7.716  0.0108 -0.7810  0.1341
   73CHL1  H15A 7827   6.425   5.826   7.718  1.2750  2.0154 -0.6467
   73CHL1  H15B 7828   6.508   5.667   7.708  2.3207 -1.0840 -1.3669
   73CHL1   C16 7829   6.602   5.817   7.841 -0.9501 -0.8227  0.4871
   73CHL1  H16A 7830   6.557   5.899   7.900  1.8083  1.8846 -0.8468
   73CHL1  H16B 7831   6.624   5.737   7.914 -2.7271 -1.3979  0.4358
   73CHL1   C17 7832   6.737   5.882   7.780 -0.0645  0.0982  0.5306
   73CHL1   H17 7833   6.807   5.798   7.763 -0.8163 -0.4476  0.0366
   73CHL1   C13 7834   6.694   5.935   7.644  0.0309 -0.6003 -0.0252
   73CHL1   C18 7835   6.622   6.069   7.667  0.5078 -0.3491 -0.0764
   73CHL1  H18A 7836   6.575   6.098   7.571 -1.0669 -0.9521  0.4851
   73CHL1  H18B 7837   6.546   6.075   7.748 -1.0743  2.0450 -1.6240
   73CHL1  H18C 7838   6.691   6.149   7.702 -1.7978  1.4066  0.7304
   73CHL1   C12 7839   6.807   5.950   7.543 -0.3777  0.9734  0.7555
   73CHL1  H12A 7840   6.889   6.019   7.571  0.7613  0.3630 -0.9361
   73CHL1  H12B 7841   6.861   5.854   7.530 -0.6234  0.7695  1.2016
   73CHL1   C11 7842   6.755   5.980   7.407  0.1707 -0.0042  0.1908
   73CHL1  H11A 7843   6.691   6.070   7.422 -0.8972 -1.0155  2.0740
   73CHL1  H11B 7844   6.831   6.016   7.334  0.7624 -0.0445  0.7763
   73CHL1    C9 7845   6.660   5.871   7.358  0.2954  0.1325 -0.5636
   73CHL1    H9 7846   6.715   5.774   7.355  1.3357  0.6656  0.4849
   73CHL1   C10 7847   6.599   5.893   7.214 -0.1345 -0.1799 -0.7180
   73CHL1   C19 7848   6.538   6.039   7.208 -0.0425  0.0261 -0.0649
   73CHL1  H19A 7849   6.474   6.045   7.298 -0.2324 -1.4241 -0.0805
   73CHL1  H19B 7850   6.623   6.109   7.220  1.4288 -1.5023 -1.1336
   73CHL1  H19C 7851   6.490   6.061   7.111  0.0855  0.2516 -0.0792
   73CHL1    C1 7852   6.718   5.879   7.118 -0.1590  0.4500  0.3024
   73CHL1   H1A 7853   6.783   5.969   7.127  0.2118  0.1891  0.2692
   73CHL1   H1B 7854   6.776   5.787   7.141 -3.6904 -1.4207  2.7510
   73CHL1    C2 7855   6.680   5.874   6.969  0.3124 -0.3030 -0.2720
   73CHL1   H2A 7856   6.762   5.839   6.901  2.3051 -1.2687  2.4505
   73CHL1   H2B 7857   6.637   5.971   6.936 -5.8288 -2.5684 -0.1612
   73CHL1   C20 7858   6.805   5.975   7.885  0.1209  0.5022  0.3265
   73CHL1   H20 7859   6.742   6.064   7.909 -2.0863 -1.0630  0.6598
   73CHL1   C21 7860   6.942   6.029   7.841  0.1972  0.1162 -0.0911
   73CHL1  H21A 7861   6.920   6.091   7.752 -0.7613 -0.8187 -0.5183
   73CHL1  H21B 7862   7.002   5.942   7.805 -3.4455 -2.3859 -0.6251
   73CHL1  H21C 7863   6.991   6.089   7.921 -0.5448 -1.0461  1.2811
   73CHL1   C22 7864   6.819   5.904   8.026  0.7237  0.7111  0.0418
   73CHL1  H22A 7865   6.718   5.912   8.071  0.7628 -0.1433  0.2979
   73CHL1  H22B 7866   6.860   5.801   8.021  1.2782  0.9650 -1.1260
   73CHL1   C23 7867   6.901   5.981   8.137 -0.4646 -0.6043 -0.1746
   73CHL1  H23A 7868   7.001   5.992   8.089 -0.8298 -1.0052 -1.0668
   73CHL1  H23B 7869   6.850   6.079   8.149 -1.8151 -0.8785 -2.9129
   73CHL1   C24 7870   6.913   5.904   8.273 -0.1454  0.1158 -0.3974
   73CHL1  H24A 7871   6.816   5.883   8.322 -0.1426 -0.4846 -0.6486
   73CHL1  H24B 7872   6.965   5.808   8.254 -0.0152  0.3399 -1.2273
   73CHL1   C25 7873   6.997   5.989   8.372 -0.1321  0.2007 -0.6283
   73CHL1   H25 7874   7.089   6.026   8.323  0.0794  1.7187  0.8364
   73CHL1   C26 7875   6.909   6.101   8.432  0.0383 -0.3759  0.2037
   73CHL1  H26A 7876   6.943   6.147   8.527 -1.1153 -0.4741  0.6758
   73CHL1  H26B 7877   6.894   6.185   8.362  0.7388 -1.1814 -0.9481
   73CHL1  H26C 7878   6.807   6.060   8.446  0.1347 -1.6922 -2.3255
   73CHL1   C27 7879   7.047   5.894   8.488 -0.5396 -0.5580 -0.2264
   73CHL1  H27A 7880   7.106   5.943   8.568  0.1834 -0.2015 -0.9639
   73CHL1  H27B 7881   6.955   5.865   8.543  0.2508  1.1672  2.1701
   73CHL1  H27C 7882   7.096   5.799   8.457 -0.3550 -0.7083  0.5005
   74CHL1    C3 7883   6.466   3.721   6.987  0.3020  0.1390  1.0635
   74CHL1    H3 7884   6.377   3.656   6.973 -0.6133  1.8990 -2.7191
   74CHL1    O3 7885   6.472   3.782   6.858  0.2083 -0.1902  0.7832
   74CHL1   H3' 7886   6.567   3.782   6.847  0.3466  0.7802  1.8256
   74CHL1    C4 7887   6.442   3.830   7.088  0.4741 -0.3149 -0.1553
   74CHL1   H4A 7888   6.529   3.899   7.089  1.2359 -1.2630  0.7836
   74CHL1   H4B 7889   6.348   3.879   7.052  0.3404 -0.0981  0.4774
   74CHL1    C5 7890   6.416   3.772   7.225 -0.6767 -0.5957 -0.3983
   74CHL1    C6 7891   6.302   3.789   7.293  0.5999 -0.2302 -0.8902
   74CHL1    H6 7892   6.221   3.854   7.255  0.0741 -0.3212  0.0545
   74CHL1    C7 7893   6.288   3.748   7.436  0.9095  0.2460  0.1080
   74CHL1   H7A 7894   6.249   3.836   7.490  0.1279  0.0006 -0.0429
   74CHL1   H7B 7895   6.216   3.663   7.433  0.6584  0.4471  0.4270
   74CHL1    C8 7896   6.426   3.699   7.492  0.2488  0.3249 -0.5962
   74CHL1    H8 7897   6.489   3.788   7.514  0.2277  0.1339  0.2747
   74CHL1   C14 7898   6.393   3.625   7.619 -0.1686 -0.1402  0.5732
   74CHL1   H14 7899   6.340   3.533   7.586 -0.3316  0.7259 -1.7376
   74CHL1   C15 7900   6.301   3.696   7.722  0.2110  0.4768 -0.5863
   74CHL1  H15A 7901   6.331   3.801   7.745  1.2579  0.1501 -0.3978
   74CHL1  H15B 7902   6.195   3.705   7.688  0.2429  1.0092 -0.5456
   74CHL1   C16 7903   6.319   3.600   7.845  0.2928 -0.4790 -0.4309
   74CHL1  H16A 7904   6.336   3.659   7.937 -1.1259  1.9632 -1.6442
   74CHL1  H16B 7905   6.227   3.538   7.850  0.4400 -0.7668 -1.1449
   74CHL1   C17 7906   6.438   3.512   7.815  0.1971  0.6998  0.1195
   74CHL1   H17 7907   6.385   3.420   7.784  1.3975  0.2352 -0.5844
   74CHL1   C13 7908   6.512   3.570   7.692 -0.0334 -0.3501 -0.3885
   74CHL1   C18 7909   6.610   3.678   7.750  0.9485 -0.0307 -0.3042
   74CHL1  H18A 7910   6.551   3.753   7.807  0.8781 -2.2021  2.7009
   74CHL1  H18B 7911   6.696   3.635   7.806  1.4171  1.5564  0.2676
   74CHL1  H18C 7912   6.657   3.728   7.662  0.4749 -0.6826 -0.9365
   74CHL1   C12 7913   6.588   3.472   7.600  0.4136  0.4268  0.0596
   74CHL1  H12A 7914   6.669   3.415   7.650  0.8523  0.1213 -0.9719
   74CHL1  H12B 7915   6.511   3.398   7.568  0.1259  0.6760  0.1650
   74CHL1   C11 7916   6.629   3.541   7.470  0.2089 -0.7886  0.0591
   74CHL1  H11A 7917   6.701   3.623   7.491  1.3913 -0.6215 -3.9230
   74CHL1  H11B 7918   6.678   3.477   7.394 -0.8709 -1.4773 -0.0737
   74CHL1    C9 7919   6.507   3.612   7.402  0.1435 -0.2513  0.0882
   74CHL1    H9 7920   6.442   3.524   7.380 -1.8094  1.0301  0.4462
   74CHL1   C10 7921   6.539   3.688   7.271  0.4989  0.0313 -0.3281
   74CHL1   C19 7922   6.648   3.794   7.299 -0.3474  0.5561 -0.2895
   74CHL1  H19A 7923   6.609   3.875   7.364  0.6632 -0.2290  1.3804
   74CHL1  H19B 7924   6.744   3.748   7.332 -0.4202 -0.2369 -1.1396
   74CHL1  H19C 7925   6.673   3.851   7.207 -1.6552  0.1834 -0.8971
   74CHL1    C1 7926   6.588   3.584   7.172 -0.0117  0.2569  0.2286
   74CHL1   H1A 7927   6.690   3.548   7.196  1.4203  2.6046 -1.7803
   74CHL1   H1B 7928   6.518   3.498   7.175 -0.1095  0.3310  0.0858
   74CHL1    C2 7929   6.597   3.639   7.023  1.3506 -0.1183 -0.2995
   74CHL1   H2A 7930   6.622   3.568   6.942  0.7782 -2.2778  1.3025
   74CHL1   H2B 7931   6.681   3.710   7.025 -0.6238  2.4352  3.0214
   74CHL1   C20 7932   6.510   3.464   7.938  0.6111 -0.5407 -0.6201
   74CHL1   H20 7933   6.551   3.560   7.976 -1.9862  1.8454 -3.3360
   74CHL1   C21 7934   6.628   3.371   7.907 -0.7516  0.1301 -0.7039
   74CHL1  H21A 7935   6.678   3.343   8.003  0.9642 -1.7681 -2.0595
   74CHL1  H21B 7936   6.704   3.418   7.841 -1.4738  0.5414 -1.2514
   74CHL1  H21C 7937   6.590   3.278   7.859 -0.6813  0.1307 -0.7606
   74CHL1   C22 7938   6.417   3.401   8.051 -0.1421 -0.5700 -0.4669
   74CHL1  H22A 7939   6.319   3.452   8.049 -1.0806 -2.2898 -0.6548
   74CHL1  H22B 7940   6.404   3.296   8.015  1.1561 -0.5556 -1.0550
   74CHL1   C23 7941   6.474   3.397   8.194  0.3487 -0.1593 -0.9319
   74CHL1  H23A 7942   6.571   3.342   8.192  0.3213 -0.2061 -0.9734
   74CHL1  H23B 7943   6.489   3.502   8.228  1.5673 -0.6559  0.1624
   74CHL1   C24 7944   6.365   3.326   8.282 -0.9147  0.3696  0.2309
   74CHL1  H24A 7945   6.394   3.334   8.389 -1.7461 -0.4656  0.5283
   74CHL1  H24B 7946   6.267   3.378   8.272 -0.3168  1.4859 -0.0663
   74CHL1   C25 7947   6.324   3.185   8.251  0.0859  0.3946  0.2809
   74CHL1   H25 7948   6.268   3.194   8.156 -2.7563  3.7992  2.0817
   74CHL1   C26 7949   6.441   3.096   8.223 -0.1106  0.5101  0.9206
   74CHL1  H26A 7950   6.521   3.149   8.166  0.2254 -2.7806 -1.9753
   74CHL1  H26B 7951   6.481   3.052   8.317  0.6396  0.7346  0.7192
   74CHL1  H26C 7952   6.402   3.008   8.169  1.0627  0.9829 -0.7718
   74CHL1   C27 7953   6.228   3.112   8.350 -0.8431  0.0389  0.1872
   74CHL1  H27A 7954   6.131   3.164   8.339 -0.2285  1.0086 -0.8480
   74CHL1  H27B 7955   6.209   3.003   8.339 -0.3567  0.0091 -0.3985
   74CHL1  H27C 7956   6.281   3.123   8.448  1.6975  0.4564 -1.1468
   75CHL1    C3 7957   6.666   0.904   6.857  0.3777 -0.2497  0.1904
   75CHL1    H3 7958   6.647   0.998   6.913 -2.0432  0.4772 -1.6568
   75CHL1    O3 7959   6.697   0.937   6.733 -0.0835  0.1027 -0.0816
   75CHL1   H3' 7960   6.708   0.851   6.692 -0.2624 -1.1173  2.2780
   75CHL1    C4 7961   6.779   0.818   6.910  0.0177 -0.1107 -0.4900
   75CHL1   H4A 7962   6.790   0.734   6.838  1.0364 -0.6655  0.2869
   75CHL1   H4B 7963   6.873   0.876   6.895 -0.2635 -0.1099 -2.4482
   75CHL1    C5 7964   6.766   0.771   7.054  0.5153 -0.2458 -0.7732
   75CHL1    C6 7965   6.857   0.787   7.151  0.5381 -0.2327  0.2050
   75CHL1    H6 7966   6.952   0.827   7.113  1.7669 -3.8598 -0.9670
   75CHL1    C7 7967   6.848   0.739   7.288  0.9111 -0.3361  0.1456
   75CHL1   H7A 7968   6.941   0.681   7.306  1.3762 -0.1828 -1.5609
   75CHL1   H7B 7969   6.840   0.827   7.355 -2.1190  1.1552 -1.9412
   75CHL1    C8 7970   6.724   0.648   7.319  0.3329 -0.7336 -0.3004
   75CHL1    H8 7971   6.751   0.544   7.292  0.7517 -0.4458 -1.0316
   75CHL1   C14 7972   6.691   0.645   7.469  0.2209  0.0594  0.6011
   75CHL1   H14 7973   6.654   0.746   7.495 -1.8359 -0.3316 -0.5929
   75CHL1   C15 7974   6.804   0.610   7.569  0.5681  0.4424 -0.0348
   75CHL1  H15A 7975   6.854   0.513   7.550 -0.0697 -0.6349  3.2041
   75CHL1  H15B 7976   6.869   0.700   7.567 -0.1342  0.9559 -1.5802
   75CHL1   C16 7977   6.729   0.585   7.699 -0.1574 -0.1109 -0.2361
   75CHL1  H16A 7978   6.764   0.498   7.758  1.6207  1.4758  1.1644
   75CHL1  H16B 7979   6.727   0.676   7.763  0.6828 -0.4163  0.2391
   75CHL1   C17 7980   6.575   0.563   7.661 -0.1386  0.5596 -0.4673
   75CHL1   H17 7981   6.525   0.661   7.676 -0.9169  0.3660 -1.5970
   75CHL1   C13 7982   6.578   0.550   7.503  0.3216 -0.0303  0.5276
   75CHL1   C18 7983   6.605   0.395   7.474 -0.7183 -0.4632 -0.3981
   75CHL1  H18A 7984   6.512   0.347   7.435 -0.9347 -1.3039  1.0997
   75CHL1  H18B 7985   6.673   0.387   7.387  0.1825 -0.2899  0.2808
   75CHL1  H18C 7986   6.661   0.350   7.558 -0.7986 -3.1383 -1.6701
   75CHL1   C12 7987   6.453   0.602   7.424  0.3657 -0.6681 -0.9532
   75CHL1  H12A 7988   6.364   0.539   7.444  0.7007 -0.1949  2.5083
   75CHL1  H12B 7989   6.420   0.703   7.458  1.5634 -0.3203 -0.7521
   75CHL1   C11 7990   6.477   0.605   7.274 -0.1259 -0.3788 -0.6335
   75CHL1  H11A 7991   6.491   0.501   7.240  0.6285 -0.3488 -0.4376
   75CHL1  H11B 7992   6.391   0.646   7.216  0.5902  1.1910 -0.6450
   75CHL1    C9 7993   6.598   0.695   7.239 -0.3822 -0.2689 -0.4854
   75CHL1    H9 7994   6.573   0.799   7.266  1.4319  0.2005 -0.5000
   75CHL1   C10 7995   6.629   0.705   7.085  0.9542 -0.0366  0.1379
   75CHL1   C19 7996   6.628   0.562   7.026  0.5450  0.1552 -0.1106
   75CHL1  H19A 7997   6.526   0.518   7.023  0.9857 -0.8891 -0.1912
   75CHL1  H19B 7998   6.659   0.559   6.919 -1.8596 -1.9243 -0.8407
   75CHL1  H19C 7999   6.687   0.488   7.086 -0.4483 -2.4957 -2.2056
   75CHL1    C1 8000   6.512   0.788   7.015 -0.1686  1.2481 -0.5187
   75CHL1   H1A 8001   6.418   0.731   7.031  0.2640  0.5977 -0.2528
   75CHL1   H1B 8002   6.511   0.888   7.063  1.4827  0.4004  1.3785
   75CHL1    C2 8003   6.539   0.816   6.868  0.4947 -0.2923  1.0073
   75CHL1   H2A 8004   6.457   0.873   6.820  3.4135  1.8694 -1.8491
   75CHL1   H2B 8005   6.546   0.726   6.802 -2.3089  0.4502 -0.4279
   75CHL1   C20 8006   6.501   0.470   7.757 -0.3771  0.1276  0.8641
   75CHL1   H20 8007   6.555   0.372   7.755  0.6330  0.6713 -0.6905
   75CHL1   C21 8008   6.354   0.471   7.711  1.0765 -0.3611 -0.0571
   75CHL1  H21A 8009   6.306   0.570   7.698  2.2207 -0.0045 -2.1112
   75CHL1  H21B 8010   6.294   0.408   7.780  2.1684 -0.4988  0.8090
   75CHL1  H21C 8011   6.340   0.422   7.612 -1.1503  0.1388 -0.0303
   75CHL1   C22 8012   6.499   0.524   7.904  0.6924 -0.2753  0.8308
   75CHL1  H22A 8013   6.602   0.501   7.937  0.4128 -1.0033  1.2068
   75CHL1  H22B 8014   6.485   0.634   7.907 -0.7895 -0.3534 -1.3030
   75CHL1   C23 8015   6.400   0.459   8.004 -0.1078 -0.5494  0.1010
   75CHL1  H23A 8016   6.300   0.507   8.001  0.4020  0.9440  3.0235
   75CHL1  H23B 8017   6.385   0.355   7.969 -0.9140 -1.0582  1.8614
   75CHL1   C24 8018   6.456   0.460   8.148 -0.2612  0.3964  0.5112
   75CHL1  H24A 8019   6.550   0.403   8.162  0.3557  1.4885  1.0140
   75CHL1  H24B 8020   6.468   0.565   8.184 -2.5155  0.4447  1.2861
   75CHL1   C25 8021   6.348   0.413   8.248 -0.4929 -0.1107 -0.1064
   75CHL1   H25 8022   6.246   0.457   8.234  0.0611  1.5430  0.8036
   75CHL1   C26 8023   6.335   0.260   8.255  0.3389  0.1676  0.1548
   75CHL1  H26A 8024   6.415   0.214   8.317  1.2184  1.5916  0.1178
   75CHL1  H26B 8025   6.241   0.227   8.305  0.5918  1.3198  1.4729
   75CHL1  H26C 8026   6.335   0.217   8.153 -0.7684 -0.9194  0.5985
   75CHL1   C27 8027   6.397   0.469   8.387  0.0599  0.1957 -0.3880
   75CHL1  H27A 8028   6.393   0.580   8.389  2.6484  0.3723 -1.3332
   75CHL1  H27B 8029   6.341   0.426   8.473  0.9654  0.1807  0.2142
   75CHL1  H27C 8030   6.501   0.440   8.413  0.2525 -1.9208 -3.0650
   76CHL1    C3 8031   5.239   1.782   7.252 -0.1713  0.5663  0.2698
   76CHL1    H3 8032   5.346   1.800   7.278 -0.3574  2.4245 -0.1070
   76CHL1    O3 8033   5.217   1.790   7.108  0.3551  0.2066  0.3034
   76CHL1   H3' 8034   5.125   1.772   7.085  0.3768  1.7254 -1.1447
   76CHL1    C4 8035   5.203   1.637   7.299 -0.7641  0.7902 -0.4750
   76CHL1   H4A 8036   5.109   1.605   7.248 -0.3630 -0.0471 -0.7087
   76CHL1   H4B 8037   5.280   1.567   7.262 -0.6682  1.2857 -1.2173
   76CHL1    C5 8038   5.198   1.618   7.451 -0.0133  0.1289  0.1994
   76CHL1    C6 8039   5.254   1.516   7.515 -0.3043 -0.4844  0.3476
   76CHL1    H6 8040   5.308   1.445   7.450 -0.0113  0.1505 -0.1117
   76CHL1    C7 8041   5.241   1.490   7.662 -0.0076 -0.2705 -0.2360
   76CHL1   H7A 8042   5.221   1.381   7.661  0.4962 -0.3720  0.2446
   76CHL1   H7B 8043   5.341   1.513   7.704  1.3125 -0.8055 -2.8759
   76CHL1    C8 8044   5.131   1.567   7.732  0.0422 -0.3461  0.3267
   76CHL1    H8 8045   5.034   1.516   7.715 -0.2083 -0.8574  2.8312
   76CHL1   C14 8046   5.163   1.572   7.880 -0.2715 -0.2699  0.1111
   76CHL1   H14 8047   5.259   1.628   7.882  0.2274 -1.1275  0.4898
   76CHL1   C15 8048   5.200   1.445   7.954 -0.8870 -1.0774 -1.0718
   76CHL1  H15A 8049   5.125   1.365   7.937  1.0041 -4.0398  2.9887
   76CHL1  H15B 8050   5.306   1.419   7.932 -0.0733 -1.6458  2.8016
   76CHL1   C16 8051   5.181   1.483   8.103 -1.0494 -0.1452  0.3094
   76CHL1  H16A 8052   5.110   1.407   8.142 -2.7750  1.8566  1.2963
   76CHL1  H16B 8053   5.281   1.476   8.152 -0.8894 -0.6688 -0.0883
   76CHL1   C17 8054   5.127   1.630   8.107 -0.0558  0.4020 -0.4543
   76CHL1   H17 8055   5.223   1.686   8.103 -0.4425  1.0220 -1.4354
   76CHL1   C13 8056   5.063   1.649   7.963 -0.3136  0.5539 -0.6791
   76CHL1   C18 8057   4.920   1.583   7.958 -0.0942 -0.3137 -1.0025
   76CHL1  H18A 8058   4.913   1.476   7.990  2.2201  0.4189  2.5647
   76CHL1  H18B 8059   4.839   1.634   8.013  0.2761 -1.5262  0.7547
   76CHL1  H18C 8060   4.882   1.584   7.854 -0.9557 -1.7579 -0.7292
   76CHL1   C12 8061   5.044   1.792   7.909 -0.3878 -0.1461 -0.1260
   76CHL1  H12A 8062   4.956   1.832   7.964 -0.4001  0.7184 -0.7453
   76CHL1  H12B 8063   5.133   1.856   7.928  0.6585 -1.0073 -1.8737
   76CHL1   C11 8064   5.010   1.794   7.760  0.2392 -0.8123  1.0155
   76CHL1  H11A 8065   4.912   1.741   7.755  0.1562 -0.6263  0.5954
   76CHL1  H11B 8066   4.993   1.895   7.718  0.0143 -0.7591  1.2289
   76CHL1    C9 8067   5.120   1.713   7.677 -0.6885  0.8772  0.5831
   76CHL1    H9 8068   5.216   1.759   7.709  1.4886 -1.8324 -1.6037
   76CHL1   C10 8069   5.117   1.725   7.525 -0.1011 -0.5102  0.0177
   76CHL1   C19 8070   4.970   1.706   7.491 -0.0027 -0.6026  0.2652
   76CHL1  H19A 8071   4.909   1.784   7.542 -0.1727 -1.0595  0.7682
   76CHL1  H19B 8072   4.946   1.703   7.383  1.5410  0.2972 -0.1344
   76CHL1  H19C 8073   4.934   1.613   7.540 -0.4806 -0.0162  1.0692
   76CHL1    C1 8074   5.165   1.869   7.474  0.8280  0.6206 -0.3511
   76CHL1   H1A 8075   5.113   1.943   7.539  1.2190  0.0193  0.6846
   76CHL1   H1B 8076   5.275   1.871   7.491  0.9419 -1.0434 -0.7298
   76CHL1    C2 8077   5.152   1.882   7.321  0.2788 -0.4293 -0.3153
   76CHL1   H2A 8078   5.171   1.988   7.294 -0.6193 -0.0805  0.3376
   76CHL1   H2B 8079   5.046   1.860   7.297  0.5397 -3.6705  0.9180
   76CHL1   C20 8080   5.045   1.675   8.231  0.4389 -0.3218 -0.0104
   76CHL1   H20 8081   4.937   1.655   8.211  0.7323  0.4103 -2.7774
   76CHL1   C21 8082   5.072   1.825   8.267 -0.2831  0.6112 -0.2687
   76CHL1  H21A 8083   5.058   1.880   8.172 -1.0632  1.4770  0.3197
   76CHL1  H21B 8084   5.175   1.839   8.305 -1.3695  1.0029  2.9214
   76CHL1  H21C 8085   5.016   1.873   8.351  0.5471 -1.0884  1.3370
   76CHL1   C22 8086   5.075   1.592   8.362 -0.0416  0.1244  0.2014
   76CHL1  H22A 8087   5.051   1.485   8.340 -0.5102  0.2565  0.0388
   76CHL1  H22B 8088   5.182   1.600   8.387  0.5176 -0.4244 -1.7856
   76CHL1   C23 8089   4.971   1.624   8.479 -0.7480  0.3403  0.2860
   76CHL1  H23A 8090   5.001   1.714   8.536 -0.2426  0.5372 -0.2815
   76CHL1  H23B 8091   4.866   1.635   8.443 -0.5248 -0.2482 -0.5813
   76CHL1   C24 8092   4.971   1.494   8.573 -0.2226 -0.6583 -0.8796
   76CHL1  H24A 8093   4.906   1.420   8.521 -1.5413 -0.2551  0.1516
   76CHL1  H24B 8094   5.076   1.457   8.580 -0.2087 -0.4757  0.1268
   76CHL1   C25 8095   4.916   1.514   8.722 -0.0917  0.0871 -0.8324
   76CHL1   H25 8096   4.813   1.553   8.707 -0.1588  0.2255 -0.0334
   76CHL1   C26 8097   4.920   1.382   8.802 -0.5105 -0.4362  0.2767
   76CHL1  H26A 8098   5.025   1.349   8.820 -1.1698 -2.7461  0.2348
   76CHL1  H26B 8099   4.872   1.406   8.899 -0.2567 -1.5474  0.6920
   76CHL1  H26C 8100   4.859   1.303   8.753  1.7450 -2.2611  0.2447
   76CHL1   C27 8101   4.999   1.620   8.794 -0.3189  0.9074 -0.0449
   76CHL1  H27A 8102   4.963   1.652   8.895  0.3184  0.6613  0.2677
   76CHL1  H27B 8103   5.100   1.576   8.800 -1.5460 -1.9993  1.4257
   76CHL1  H27C 8104   4.997   1.711   8.731  0.6525  0.4440 -0.7632
   77CHL1    C3 8105   0.321   6.160   6.685  0.4514  0.4837  0.1934
   77CHL1    H3 8106   0.339   6.051   6.677  1.7137  0.6329  0.7556
   77CHL1    O3 8107   0.276   6.210   6.562 -1.0133 -0.0071 -0.6738
   77CHL1   H3' 8108   0.347   6.208   6.498 -1.1499 -0.2397 -0.8207
   77CHL1    C4 8109   0.215   6.175   6.795  0.3455  0.1232  0.5268
   77CHL1   H4A 8110   0.178   6.280   6.794 -1.0185 -0.3078  1.8751
   77CHL1   H4B 8111   0.142   6.097   6.765  0.2918 -0.5013  2.1924
   77CHL1    C5 8112   0.263   6.137   6.928  0.6890 -0.2494  0.2870
   77CHL1    C6 8113   0.202   6.040   6.998 -0.3395  0.4615 -0.1672
   77CHL1    H6 8114   0.113   5.991   6.955 -0.0853 -0.5266  0.4000
   77CHL1    C7 8115   0.244   6.005   7.138 -0.2107  0.0333 -0.0229
   77CHL1   H7A 8116   0.164   5.969   7.207  1.4642 -0.7503  1.6055
   77CHL1   H7B 8117   0.313   5.919   7.126 -0.2916  0.0928 -0.9764
   77CHL1    C8 8118   0.334   6.109   7.206 -0.0140 -1.0506 -0.7053
   77CHL1    H8 8119   0.267   6.194   7.233  0.9149 -0.5575  0.1329
   77CHL1   C14 8120   0.390   6.071   7.340  0.6630  0.5367  0.1589
   77CHL1   H14 8121   0.456   5.983   7.323 -0.2042 -0.1275  0.1841
   77CHL1   C15 8122   0.291   6.031   7.447 -0.0629  0.1497 -0.0442
   77CHL1  H15A 8123   0.210   6.106   7.457  0.7254  1.0153  0.0005
   77CHL1  H15B 8124   0.231   5.939   7.427 -1.2188  1.1972 -1.5389
   77CHL1   C16 8125   0.366   6.031   7.582 -0.1925  0.1260 -0.3351
   77CHL1  H16A 8126   0.313   6.097   7.653 -1.7232  0.1351 -1.4150
   77CHL1  H16B 8127   0.382   5.927   7.618  0.6850  0.2800 -0.2492
   77CHL1   C17 8128   0.500   6.086   7.537 -1.4724 -0.3991 -0.5371
   77CHL1   H17 8129   0.567   6.002   7.510 -0.4353  0.3245 -0.3003
   77CHL1   C13 8130   0.482   6.161   7.405 -0.5158  0.0006 -0.6222
   77CHL1   C18 8131   0.406   6.296   7.436 -0.0632  0.3418 -0.1091
   77CHL1  H18A 8132   0.331   6.305   7.518  0.9835  2.4837  0.6905
   77CHL1  H18B 8133   0.476   6.379   7.461  0.2408 -0.2213  0.9800
   77CHL1  H18C 8134   0.353   6.346   7.352  1.2520 -2.7361 -2.9798
   77CHL1   C12 8135   0.607   6.180   7.314  0.3725  0.3293 -0.1410
   77CHL1  H12A 8136   0.671   6.259   7.358 -0.4107  1.1997 -0.5275
   77CHL1  H12B 8137   0.665   6.085   7.319  1.4139  0.9728  0.4457
   77CHL1   C11 8138   0.560   6.229   7.177 -0.0373  0.4902 -0.2901
   77CHL1  H11A 8139   0.520   6.332   7.189 -0.2608  0.2374  1.3755
   77CHL1  H11B 8140   0.640   6.246   7.102  1.1385 -1.1016  0.5451
   77CHL1    C9 8141   0.448   6.147   7.108  0.2879  0.8138  0.0286
   77CHL1    H9 8142   0.498   6.050   7.091  0.0189  0.0013  3.3253
   77CHL1   C10 8143   0.389   6.205   6.975 -0.1063 -0.4945  0.4426
   77CHL1   C19 8144   0.362   6.352   7.004  0.2972 -0.8863  0.0846
   77CHL1  H19A 8145   0.453   6.417   7.001 -0.5483  0.3952 -3.9134
   77CHL1  H19B 8146   0.303   6.384   6.916 -1.4325 -3.1498  0.3457
   77CHL1  H19C 8147   0.293   6.378   7.087  1.3219 -1.8028  1.2637
   77CHL1    C1 8148   0.494   6.189   6.859 -0.1121 -0.0496 -0.5729
   77CHL1   H1A 8149   0.586   6.243   6.890  0.2358 -1.2138  0.5038
   77CHL1   H1B 8150   0.523   6.083   6.847  0.4899  0.1736 -1.0939
   77CHL1    C2 8151   0.447   6.234   6.722  0.0498  0.3657 -0.1970
   77CHL1   H2A 8152   0.528   6.227   6.646  1.5393  2.3854  1.1106
   77CHL1   H2B 8153   0.416   6.341   6.726 -0.2575  0.3816 -1.9520
   77CHL1   C20 8154   0.589   6.163   7.643 -0.2692  0.3577 -1.2967
   77CHL1   H20 8155   0.593   6.272   7.622 -2.4855  0.8977  0.6605
   77CHL1   C21 8156   0.725   6.101   7.632 -0.4121 -0.0498  0.3618
   77CHL1  H21A 8157   0.796   6.165   7.688  0.7484  1.6154 -2.7731
   77CHL1  H21B 8158   0.766   6.112   7.530 -0.3582  1.1134  0.4970
   77CHL1  H21C 8159   0.722   6.001   7.681  1.2761 -0.0068  0.6364
   77CHL1   C22 8160   0.539   6.152   7.787 -0.5315 -0.4801  0.2582
   77CHL1  H22A 8161   0.454   6.224   7.786 -1.0730 -1.0139  2.3444
   77CHL1  H22B 8162   0.495   6.054   7.816  1.2376 -0.2759  4.3333
   77CHL1   C23 8163   0.644   6.210   7.895  0.6228 -1.1713 -0.8032
   77CHL1  H23A 8164   0.738   6.151   7.898  0.1820 -1.8538  1.9082
   77CHL1  H23B 8165   0.680   6.312   7.869  0.7445 -0.7130  0.9988
   77CHL1   C24 8166   0.581   6.210   8.032 -0.3087 -0.1926  0.3299
   77CHL1  H24A 8167   0.486   6.267   8.029 -0.1059  0.1070 -1.6915
   77CHL1  H24B 8168   0.563   6.103   8.054 -0.5293 -0.6547 -1.8405
   77CHL1   C25 8169   0.669   6.270   8.148  0.9312 -0.3637 -0.3317
   77CHL1   H25 8170   0.656   6.380   8.138  1.5677 -0.3847 -1.6333
   77CHL1   C26 8171   0.619   6.237   8.287 -0.1092  0.3518 -0.7636
   77CHL1  H26A 8172   0.602   6.128   8.296 -0.2619  0.5480  2.5231
   77CHL1  H26B 8173   0.699   6.269   8.357 -0.3745  2.2136 -1.2567
   77CHL1  H26C 8174   0.528   6.298   8.304 -0.2859 -0.2320  0.4403
   77CHL1   C27 8175   0.817   6.233   8.139 -0.3109  0.3012  0.3822
   77CHL1  H27A 8176   0.856   6.265   8.040  0.3589 -1.7470 -0.0727
   77CHL1  H27B 8177   0.884   6.272   8.217  2.0641 -1.2713 -0.7580
   77CHL1  H27C 8178   0.822   6.122   8.151  0.5953 -0.1771 -3.1647
   78CHL1    C3 8179   1.626   2.270   6.636 -0.3123  0.3605  0.4213
   78CHL1    H3 8180   1.714   2.337   6.651  0.3277 -0.3341 -0.1139
   78CHL1    O3 8181   1.583   2.311   6.506  0.0997  0.0371  0.3070
   78CHL1   H3' 8182   1.530   2.235   6.483  0.1781  0.2982 -0.7983
   78CHL1    C4 8183   1.665   2.122   6.641 -0.0307 -0.9499  0.6001
   78CHL1   H4A 8184   1.575   2.067   6.606 -1.2225  0.7157  0.8991
   78CHL1   H4B 8185   1.740   2.097   6.563 -1.8033  1.4132 -2.1003
   78CHL1    C5 8186   1.697   2.080   6.783 -1.1016  0.6754 -0.4161
   78CHL1    C6 8187   1.807   2.018   6.817 -0.1437  0.7529 -0.0099
   78CHL1    H6 8188   1.879   1.982   6.742 -0.9155  2.6721 -1.7579
   78CHL1    C7 8189   1.839   1.954   6.951  0.4123  0.7044 -0.5547
   78CHL1   H7A 8190   1.878   1.851   6.936 -1.1988 -0.2888  1.4998
   78CHL1   H7B 8191   1.930   2.000   6.996 -0.0838 -0.8822  2.3454
   78CHL1    C8 8192   1.721   1.949   7.046  0.1407 -0.2050  0.1437
   78CHL1    H8 8193   1.656   1.863   7.022  0.6406 -0.6007  0.1962
   78CHL1   C14 8194   1.774   1.933   7.194  0.4030 -0.4890 -0.5339
   78CHL1   H14 8195   1.839   2.020   7.217  0.9764 -1.2748  0.9858
   78CHL1   C15 8196   1.860   1.817   7.237  0.0068  0.3729 -0.1859
   78CHL1  H15A 8197   1.835   1.722   7.184 -1.5012 -0.0729  1.2408
   78CHL1  H15B 8198   1.962   1.832   7.195  0.0975 -1.9119 -0.9680
   78CHL1   C16 8199   1.846   1.797   7.389  0.1294 -0.8266  0.0037
   78CHL1  H16A 8200   1.797   1.699   7.407 -0.8896 -0.1977  0.7685
   78CHL1  H16B 8201   1.941   1.813   7.444  0.2916  1.7070 -0.8666
   78CHL1   C17 8202   1.742   1.917   7.428  0.3208  0.1036  0.2163
   78CHL1   H17 8203   1.805   2.006   7.450  0.6232 -0.5458  2.2456
   78CHL1   C13 8204   1.659   1.941   7.301  0.6080  0.0961  0.5072
   78CHL1   C18 8205   1.555   1.827   7.274 -0.7725  0.1133 -1.3070
   78CHL1  H18A 8206   1.506   1.833   7.175 -0.8786  0.4571 -1.2316
   78CHL1  H18B 8207   1.606   1.728   7.282  1.5193  1.3517  1.0037
   78CHL1  H18C 8208   1.479   1.826   7.356 -0.6436  2.0460 -1.1234
   78CHL1   C12 8209   1.595   2.077   7.287  0.0649  0.4013 -0.0530
   78CHL1  H12A 8210   1.507   2.092   7.354 -0.9386 -2.2869 -0.6230
   78CHL1  H12B 8211   1.657   2.168   7.303 -0.6187  0.5971  1.6731
   78CHL1   C11 8212   1.540   2.098   7.145  0.5444 -0.4775 -0.6683
   78CHL1  H11A 8213   1.466   2.018   7.125  1.1032 -1.3448  0.5922
   78CHL1  H11B 8214   1.491   2.198   7.148  0.1224 -0.7087  0.9084
   78CHL1    C9 8215   1.646   2.078   7.038 -0.0671 -0.4963  0.2738
   78CHL1    H9 8216   1.724   2.151   7.070  1.2125 -1.6349 -0.1389
   78CHL1   C10 8217   1.601   2.121   6.895 -0.2852  0.2808 -0.0316
   78CHL1   C19 8218   1.467   2.047   6.871  0.1125 -0.4278 -0.5666
   78CHL1  H19A 8219   1.394   2.089   6.943  1.0213  1.1009 -0.4672
   78CHL1  H19B 8220   1.428   2.059   6.767 -1.1837  0.6910  0.0271
   78CHL1  H19C 8221   1.473   1.937   6.884  1.2042 -0.4947 -1.4526
   78CHL1    C1 8222   1.569   2.270   6.881  0.1253 -0.9322 -0.3593
   78CHL1   H1A 8223   1.491   2.308   6.951  2.9259  1.0536  1.8943
   78CHL1   H1B 8224   1.660   2.327   6.910 -0.5542  0.1403 -0.2727
   78CHL1    C2 8225   1.523   2.307   6.735  0.2899  0.3942 -0.2818
   78CHL1   H2A 8226   1.505   2.417   6.730  2.7151  0.8658  0.4552
   78CHL1   H2B 8227   1.423   2.265   6.709  0.2651  1.1552 -1.5387
   78CHL1   C20 8228   1.664   1.892   7.560 -0.2526 -0.6351  0.4776
   78CHL1   H20 8229   1.587   1.813   7.546 -1.4930  0.7331 -0.7407
   78CHL1   C21 8230   1.594   2.019   7.606  0.8369 -0.9874  0.0419
   78CHL1  H21A 8231   1.665   2.102   7.622  1.0650 -1.6198  3.0356
   78CHL1  H21B 8232   1.543   2.005   7.704 -1.2337  2.0036 -0.4664
   78CHL1  H21C 8233   1.519   2.046   7.529  3.4300 -2.0292 -3.0621
   78CHL1   C22 8234   1.767   1.839   7.658  0.9068  0.6417 -0.6730
   78CHL1  H22A 8235   1.812   1.742   7.627 -0.7625 -0.1498 -0.7262
   78CHL1  H22B 8236   1.845   1.917   7.674  0.7699  0.7052 -0.3145
   78CHL1   C23 8237   1.699   1.790   7.787 -0.2471  0.6859  0.6878
   78CHL1  H23A 8238   1.597   1.828   7.809 -0.0378  0.1286  2.7903
   78CHL1  H23B 8239   1.701   1.678   7.785 -0.0432  0.6432 -2.4074
   78CHL1   C24 8240   1.796   1.821   7.898 -0.1556  0.4633 -0.8459
   78CHL1  H24A 8241   1.890   1.763   7.891 -1.9810 -2.6718 -1.4010
   78CHL1  H24B 8242   1.811   1.929   7.880  2.8696  0.3454  0.3476
   78CHL1   C25 8243   1.734   1.791   8.043  0.0521  0.0790  0.6878
   78CHL1   H25 8244   1.700   1.685   8.046 -0.4132  0.2472  1.2987
   78CHL1   C26 8245   1.845   1.818   8.151  0.7639 -0.0693  0.0793
   78CHL1  H26A 8246   1.877   1.925   8.150 -0.9992  0.4942 -0.8881
   78CHL1  H26B 8247   1.801   1.790   8.249 -1.3020 -0.1317 -0.8164
   78CHL1  H26C 8248   1.925   1.741   8.139  1.0430 -0.0489  1.6609
   78CHL1   C27 8249   1.612   1.889   8.062 -0.3690  0.1794 -0.1927
   78CHL1  H27A 8250   1.526   1.866   7.996 -1.4560  1.1566  0.8467
   78CHL1  H27B 8251   1.582   1.890   8.169  0.7743 -0.8993  0.1578
   78CHL1  H27C 8252   1.648   1.991   8.036  1.1375  0.0637  1.2575
   79CHL1    C3 8253   6.563   2.125   7.074  0.1920  0.0218 -0.6031
   79CHL1    H3 8254   6.502   2.032   7.082 -0.0784 -0.1849 -3.8094
   79CHL1    O3 8255   6.566   2.152   6.937 -0.0756  0.8290 -0.8439
   79CHL1   H3' 8256   6.640   2.211   6.920  1.6550 -1.5048 -2.1263
   79CHL1    C4 8257   6.498   2.246   7.143  0.7728  0.0316 -0.2780
   79CHL1   H4A 8258   6.563   2.335   7.127  0.1159  1.0685  2.2640
   79CHL1   H4B 8259   6.397   2.268   7.103  1.5079 -0.5580 -2.6085
   79CHL1    C5 8260   6.491   2.242   7.301 -0.2331  0.5481  0.5559
   79CHL1    C6 8261   6.381   2.270   7.369  0.2272 -0.6007 -0.0233
   79CHL1    H6 8262   6.286   2.305   7.325  0.6146  1.3660  0.6230
   79CHL1    C7 8263   6.385   2.273   7.523 -0.0329  0.1495  0.7601
   79CHL1   H7A 8264   6.330   2.364   7.558  1.0461  0.6688  1.1693
   79CHL1   H7B 8265   6.329   2.186   7.564  1.1807 -1.4762 -0.9367
   79CHL1    C8 8266   6.522   2.273   7.588 -0.2764  0.3841  0.7064
   79CHL1    H8 8267   6.574   2.371   7.581  1.9977 -0.6192  2.2128
   79CHL1   C14 8268   6.523   2.236   7.739 -0.6865  0.0756 -0.5908
   79CHL1   H14 8269   6.492   2.129   7.739 -0.8853  0.1319 -0.5136
   79CHL1   C15 8270   6.419   2.306   7.826 -0.7640 -0.2513  0.1975
   79CHL1  H15A 8271   6.435   2.414   7.802 -1.9587 -0.1383 -0.1489
   79CHL1  H15B 8272   6.315   2.266   7.822 -0.4665 -1.0226  0.1325
   79CHL1   C16 8273   6.469   2.273   7.970 -0.0249  0.0443  0.0195
   79CHL1  H16A 8274   6.483   2.361   8.037  1.0653 -1.1308  1.4189
   79CHL1  H16B 8275   6.402   2.194   8.010  0.4590 -1.4014 -1.9104
   79CHL1   C17 8276   6.606   2.203   7.956 -0.1529 -0.3698 -0.0886
   79CHL1   H17 8277   6.598   2.093   7.952  2.6414 -0.5973 -1.9995
   79CHL1   C13 8278   6.655   2.236   7.815 -0.2580  0.4124 -0.3557
   79CHL1   C18 8279   6.702   2.382   7.813 -0.5814  0.6230  0.2119
   79CHL1  H18A 8280   6.652   2.448   7.887  0.4969  0.8595  0.7493
   79CHL1  H18B 8281   6.803   2.377   7.858 -1.6782 -1.8186  2.7235
   79CHL1  H18C 8282   6.695   2.432   7.714 -1.3082  1.1222  0.5069
   79CHL1   C12 8283   6.744   2.139   7.743 -0.4780  0.9217 -0.1175
   79CHL1  H12A 8284   6.848   2.147   7.781  0.2467  0.6174 -1.9409
   79CHL1  H12B 8285   6.715   2.034   7.765  2.9678 -0.3066 -0.8653
   79CHL1   C11 8286   6.751   2.165   7.594  0.3497 -0.1097 -0.3718
   79CHL1  H11A 8287   6.817   2.254   7.595  1.3191 -0.7931  1.1050
   79CHL1  H11B 8288   6.803   2.080   7.544  1.3369 -0.5116  1.2434
   79CHL1    C9 8289   6.617   2.180   7.513 -0.2904 -0.0993 -0.9317
   79CHL1    H9 8290   6.576   2.078   7.526 -0.4574  0.0259 -0.4504
   79CHL1   C10 8291   6.632   2.208   7.362 -0.5044 -0.0123 -0.3625
   79CHL1   C19 8292   6.723   2.331   7.352 -0.0982  0.1776  0.0618
   79CHL1  H19A 8293   6.708   2.413   7.426  1.9087  1.6802 -1.0852
   79CHL1  H19B 8294   6.827   2.300   7.375  0.5404  0.0430 -2.6536
   79CHL1  H19C 8295   6.728   2.356   7.244 -0.1247  0.4572  0.1239
   79CHL1    C1 8296   6.691   2.085   7.288  0.0870  0.4539  0.5012
   79CHL1   H1A 8297   6.786   2.045   7.327 -1.8290 -3.0406  2.0328
   79CHL1   H1B 8298   6.618   2.002   7.303  1.2328 -0.4442  1.2934
   79CHL1    C2 8299   6.702   2.096   7.138 -0.6652 -1.3739 -0.2652
   79CHL1   H2A 8300   6.753   2.010   7.089 -0.9635 -1.1254 -1.0403
   79CHL1   H2B 8301   6.769   2.177   7.104 -0.8247 -1.2525 -0.2945
   79CHL1   C20 8302   6.703   2.226   8.080  0.4690 -0.5539 -0.1032
   79CHL1   H20 8303   6.715   2.336   8.082 -3.0021 -0.0558  0.5590
   79CHL1   C21 8304   6.839   2.165   8.050  0.8590 -0.3274 -0.6139
   79CHL1  H21A 8305   6.877   2.219   7.961 -0.9022  0.6437 -0.8434
   79CHL1  H21B 8306   6.834   2.055   8.036  2.2964 -0.3438 -1.1116
   79CHL1  H21C 8307   6.900   2.185   8.141 -0.7483 -3.3597  1.3098
   79CHL1   C22 8308   6.635   2.180   8.211 -0.7326 -0.0053  0.7236
   79CHL1  H22A 8309   6.534   2.226   8.214 -0.2298  1.3034 -0.9901
   79CHL1  H22B 8310   6.638   2.069   8.212 -1.2010 -0.0707 -1.4208
   79CHL1   C23 8311   6.705   2.219   8.345 -0.2758 -0.1076  0.0037
   79CHL1  H23A 8312   6.814   2.209   8.331 -0.5808 -2.5633 -1.0509
   79CHL1  H23B 8313   6.692   2.327   8.366  2.0590  0.1218  0.4929
   79CHL1   C24 8314   6.665   2.126   8.462 -0.1734  0.9016 -0.5296
   79CHL1  H24A 8315   6.711   2.027   8.442 -0.3684  0.2409  1.9893
   79CHL1  H24B 8316   6.712   2.170   8.553 -0.5488 -1.9579  1.1686
   79CHL1   C25 8317   6.516   2.118   8.490 -0.6051  0.1545  0.0755
   79CHL1   H25 8318   6.465   2.081   8.399 -1.2610 -1.5172  1.0797
   79CHL1   C26 8319   6.488   2.013   8.599  0.8395  0.1985  0.3009
   79CHL1  H26A 8320   6.526   1.909   8.584 -1.7322 -1.2457  2.6844
   79CHL1  H26B 8321   6.528   2.051   8.695 -2.1755  1.5602  1.1539
   79CHL1  H26C 8322   6.379   2.003   8.621  0.6493  1.9243  0.2936
   79CHL1   C27 8323   6.454   2.249   8.525  0.0185 -0.0200  0.1707
   79CHL1  H27A 8324   6.449   2.309   8.432 -2.5585 -1.1715 -0.5118
   79CHL1  H27B 8325   6.353   2.237   8.570  0.1082  1.3850  0.8038
   79CHL1  H27C 8326   6.521   2.305   8.594  0.4685 -2.0869  1.4866
   80CHL1    C3 8327   6.075   5.806   7.083  0.1266 -0.5745  0.2537
   80CHL1    H3 8328   6.166   5.750   7.111  0.9660  0.6028 -0.0284
   80CHL1    O3 8329   6.038   5.791   6.945 -0.0638 -0.4074  0.3592
   80CHL1   H3' 8330   6.118   5.815   6.897  0.3736 -0.5348  1.0156
   80CHL1    C4 8331   5.953   5.760   7.166 -0.2546 -0.7903 -0.1348
   80CHL1   H4A 8332   5.866   5.824   7.140  1.6544  1.4078 -1.5393
   80CHL1   H4B 8333   5.934   5.656   7.133 -1.1369 -0.6577 -0.0576
   80CHL1    C5 8334   5.963   5.781   7.313  0.1627  0.0416  0.2800
   80CHL1    C6 8335   5.941   5.679   7.391 -0.0041 -0.1175 -0.3777
   80CHL1    H6 8336   5.921   5.579   7.350  0.3516 -0.1109 -0.5697
   80CHL1    C7 8337   5.957   5.687   7.543 -0.3416  0.2055  0.6013
   80CHL1   H7A 8338   5.863   5.652   7.590  1.2460 -0.5276  3.5328
   80CHL1   H7B 8339   6.047   5.631   7.578 -0.2477  0.8049  1.3600
   80CHL1    C8 8340   5.981   5.832   7.593 -0.1822  0.5242 -0.0705
   80CHL1    H8 8341   5.881   5.880   7.604 -0.2657  0.3858 -0.2203
   80CHL1   C14 8342   6.030   5.834   7.733  0.1303  0.0005 -0.1827
   80CHL1   H14 8343   6.127   5.781   7.726 -0.0032 -0.2135 -0.4366
   80CHL1   C15 8344   5.954   5.749   7.835 -0.2373  0.1801  0.3721
   80CHL1  H15A 8345   5.846   5.770   7.823  0.2293  1.8569 -1.2387
   80CHL1  H15B 8346   5.968   5.639   7.830 -0.1977  0.2147 -0.3812
   80CHL1   C16 8347   6.011   5.797   7.962  0.4844  0.0075 -0.9734
   80CHL1  H16A 8348   5.934   5.811   8.041  2.2032 -0.3791  0.8617
   80CHL1  H16B 8349   6.086   5.724   7.999  1.9557  2.1307  0.5075
   80CHL1   C17 8350   6.098   5.928   7.943  0.4920  0.5180  0.3412
   80CHL1   H17 8351   6.203   5.892   7.940  0.6914  0.9227  1.7531
   80CHL1   C13 8352   6.044   5.973   7.802  0.2385  0.6472 -0.2466
   80CHL1   C18 8353   5.912   6.052   7.820  0.2673 -0.8996  0.3663
   80CHL1  H18A 8354   5.947   6.153   7.851 -1.0923  0.1778 -1.4047
   80CHL1  H18B 8355   5.862   6.070   7.722 -0.2031  1.0523  0.9202
   80CHL1  H18C 8356   5.841   6.011   7.895 -0.2868 -1.9999 -0.7223
   80CHL1   C12 8357   6.138   6.060   7.712  0.1761 -0.2815 -0.5513
   80CHL1  H12A 8358   6.123   6.165   7.747 -1.0626 -0.3772 -0.7438
   80CHL1  H12B 8359   6.247   6.042   7.718 -0.0257 -1.2104  1.2284
   80CHL1   C11 8360   6.092   6.056   7.566  0.4140  0.6474  0.2181
   80CHL1  H11A 8361   5.996   6.110   7.554 -0.8498 -1.6278 -0.3932
   80CHL1  H11B 8362   6.172   6.109   7.510 -1.1167  1.8491 -0.9125
   80CHL1    C9 8363   6.070   5.914   7.506 -0.4537  0.3871 -0.6901
   80CHL1    H9 8364   6.172   5.870   7.494 -0.3065  0.5684 -0.1201
   80CHL1   C10 8365   6.013   5.924   7.358 -0.3554  0.4610 -0.3728
   80CHL1   C19 8366   5.906   6.033   7.340 -0.0392 -0.3593  0.1279
   80CHL1  H19A 8367   5.843   6.018   7.250  2.0199  0.2983 -1.5083
   80CHL1  H19B 8368   5.846   6.035   7.434  0.2495 -1.8321  0.3754
   80CHL1  H19C 8369   5.935   6.138   7.323 -2.8911  0.3102 -1.1492
   80CHL1    C1 8370   6.131   5.962   7.264 -0.3354  0.1334  0.4985
   80CHL1   H1A 8371   6.150   6.064   7.303 -0.5368  0.6062 -0.6126
   80CHL1   H1B 8372   6.211   5.887   7.279  0.5743  0.6226 -1.5940
   80CHL1    C2 8373   6.105   5.956   7.115  0.6669 -0.2464  0.4018
   80CHL1   H2A 8374   6.185   5.990   7.046  0.2154 -0.8704 -0.4511
   80CHL1   H2B 8375   6.008   6.003   7.089  0.6074 -0.7307 -0.2710
   80CHL1   C20 8376   6.095   6.031   8.062  0.3952  0.5377 -0.8640
   80CHL1   H20 8377   5.992   6.071   8.062 -0.4151 -1.4108 -0.0006
   80CHL1   C21 8378   6.196   6.139   8.036 -0.1108  0.3872  0.2178
   80CHL1  H21A 8379   6.217   6.193   8.130  0.7581  0.1904  0.1502
   80CHL1  H21B 8380   6.161   6.217   7.965  0.6775  1.0003  0.4937
   80CHL1  H21C 8381   6.292   6.094   8.002  0.6570  1.1238  1.3717
   80CHL1   C22 8382   6.110   5.968   8.204 -1.5817  0.5518 -0.2356
   80CHL1  H22A 8383   6.115   6.048   8.281  0.2358  0.5970 -0.3372
   80CHL1  H22B 8384   6.020   5.908   8.227 -0.9990 -0.2596 -0.0035
   80CHL1   C23 8385   6.228   5.870   8.223 -0.4455 -0.0816  0.6280
   80CHL1  H23A 8386   6.205   5.769   8.183  1.4374  0.4171 -1.9985
   80CHL1  H23B 8387   6.307   5.895   8.149 -0.0418 -1.5904  0.5151
   80CHL1   C24 8388   6.294   5.861   8.355 -0.4838  0.0416 -0.0027
   80CHL1  H24A 8389   6.332   5.963   8.376  1.2337 -0.6983  0.6626
   80CHL1  H24B 8390   6.210   5.836   8.423 -1.0750  0.6652 -0.4871
   80CHL1   C25 8391   6.399   5.752   8.374 -0.6410  0.8959  0.3792
   80CHL1   H25 8392   6.351   5.655   8.348 -0.6407  1.3433 -1.3895
   80CHL1   C26 8393   6.523   5.765   8.286  0.4143 -0.2544  0.0659
   80CHL1  H26A 8394   6.595   5.688   8.321  0.4159  0.2592  1.2405
   80CHL1  H26B 8395   6.501   5.748   8.179 -1.0497 -1.3414  0.5116
   80CHL1  H26C 8396   6.580   5.859   8.305 -0.2660 -0.2983  2.7615
   80CHL1   C27 8397   6.442   5.758   8.525 -0.4950  0.3873  0.5850
   80CHL1  H27A 8398   6.482   5.860   8.545 -0.3105  0.1904  1.2302
   80CHL1  H27B 8399   6.357   5.730   8.591  0.5337 -2.5781  0.8101
   80CHL1  H27C 8400   6.527   5.691   8.552  0.4700  0.9855 -0.8513
   81CHL1    C3 8401   4.042   5.291   6.548  0.2630 -0.1854 -0.0890
   81CHL1    H3 8402   3.995   5.190   6.545  1.2682 -0.7240  1.4661
   81CHL1    O3 8403   4.038   5.336   6.419  0.3007 -0.2730  0.4484
   81CHL1   H3' 8404   4.055   5.262   6.360  2.1040  0.9017 -0.6022
   81CHL1    C4 8405   3.977   5.392   6.633 -0.2339 -0.0817 -0.0333
   81CHL1   H4A 8406   4.018   5.494   6.612  1.5108 -1.0653 -1.7772
   81CHL1   H4B 8407   3.870   5.402   6.607  0.0358 -1.1049 -1.6343
   81CHL1    C5 8408   3.986   5.357   6.780  0.8079  0.3112 -0.2788
   81CHL1    C6 8409   3.876   5.332   6.853  0.5651  0.0971  0.2300
   81CHL1    H6 8410   3.780   5.349   6.802  2.0221 -0.1669 -2.8176
   81CHL1    C7 8411   3.868   5.285   6.992  0.1940 -0.5645 -0.2455
   81CHL1   H7A 8412   3.800   5.338   7.062  1.0752  0.4535 -0.1338
   81CHL1   H7B 8413   3.834   5.180   6.981 -0.3633 -0.2869 -1.3856
   81CHL1    C8 8414   4.007   5.286   7.056  0.5216  0.3700  0.3209
   81CHL1    H8 8415   4.025   5.392   7.084  0.4658  0.4274  0.1368
   81CHL1   C14 8416   4.001   5.196   7.174 -0.1182 -0.0162  0.4830
   81CHL1   H14 8417   4.006   5.089   7.145 -0.8376 -0.1073  0.6771
   81CHL1   C15 8418   3.890   5.208   7.282  0.1422  0.3811 -0.4932
   81CHL1  H15A 8419   3.883   5.319   7.291  2.4798  0.8022 -2.7558
   81CHL1  H15B 8420   3.792   5.168   7.249 -0.4969  0.2125  1.4758
   81CHL1   C16 8421   3.942   5.133   7.405  0.5906 -0.1797  0.2725
   81CHL1  H16A 8422   3.915   5.183   7.501 -1.9686 -1.7845  0.4858
   81CHL1  H16B 8423   3.900   5.031   7.422  1.0992 -0.4548 -0.1288
   81CHL1   C17 8424   4.101   5.120   7.385 -0.1771 -0.0661  0.0001
   81CHL1   H17 8425   4.109   5.011   7.363 -1.8592 -1.1891  3.9843
   81CHL1   C13 8426   4.133   5.203   7.260  0.0388  0.1155 -0.3276
   81CHL1   C18 8427   4.156   5.339   7.321 -0.0497 -0.1613 -0.3297
   81CHL1  H18A 8428   4.258   5.338   7.365 -1.3400 -0.2995  2.9137
   81CHL1  H18B 8429   4.158   5.411   7.235 -0.6672  1.7590  1.1916
   81CHL1  H18C 8430   4.082   5.377   7.395  1.1899  0.6481  0.5213
   81CHL1   C12 8431   4.244   5.145   7.171 -0.0019  0.3885  0.8262
   81CHL1  H12A 8432   4.339   5.166   7.226 -0.0601 -0.3324  1.2053
   81CHL1  H12B 8433   4.225   5.038   7.150  1.4414  0.2509  0.0488
   81CHL1   C11 8434   4.258   5.227   7.042 -0.2949  0.7940  0.4134
   81CHL1  H11A 8435   4.291   5.332   7.063  1.9677 -0.0426  1.4102
   81CHL1  H11B 8436   4.340   5.189   6.978 -2.0115 -1.1451 -0.7504
   81CHL1    C9 8437   4.121   5.240   6.965  0.1348 -0.5842 -0.2533
   81CHL1    H9 8438   4.094   5.136   6.938 -1.5424 -0.9809  2.5276
   81CHL1   C10 8439   4.127   5.321   6.833  0.1089 -0.5587  0.6576
   81CHL1   C19 8440   4.205   5.458   6.850  0.1055  0.2598 -0.2367
   81CHL1  H19A 8441   4.305   5.452   6.899  0.3360  2.4438 -0.3345
   81CHL1  H19B 8442   4.229   5.513   6.757  0.9568  0.4681  0.0882
   81CHL1  H19C 8443   4.153   5.530   6.918 -0.0203 -0.4816  0.4681
   81CHL1    C1 8444   4.198   5.231   6.730  0.1162  0.7172 -0.3489
   81CHL1   H1A 8445   4.301   5.208   6.762  0.0057  1.4237  0.5845
   81CHL1   H1B 8446   4.143   5.135   6.735 -0.0138  0.8389  0.9548
   81CHL1    C2 8447   4.187   5.273   6.585  0.0470 -0.4100 -0.3345
   81CHL1   H2A 8448   4.217   5.193   6.514  0.1766 -0.6586 -0.0010
   81CHL1   H2B 8449   4.240   5.370   6.572  1.0391 -0.6794  1.3565
   81CHL1   C20 8450   4.197   5.126   7.510  0.0344  0.0332 -0.6986
   81CHL1   H20 8451   4.199   5.230   7.549 -1.3719  1.0099 -3.0254
   81CHL1   C21 8452   4.343   5.094   7.468 -0.6165  0.3696  0.1196
   81CHL1  H21A 8453   4.399   5.178   7.421 -1.0267 -0.0705 -1.1998
   81CHL1  H21B 8454   4.359   4.997   7.417  0.6369 -0.9679  2.8323
   81CHL1  H21C 8455   4.406   5.077   7.558  0.1560 -1.2780 -0.6975
   81CHL1   C22 8456   4.143   5.049   7.634  1.0058  0.5537  0.2467
   81CHL1  H22A 8457   4.035   5.075   7.643  1.0129  0.3876  0.8228
   81CHL1  H22B 8458   4.151   4.940   7.614 -0.9511  0.3973  0.0804
   81CHL1   C23 8459   4.206   5.099   7.766 -0.1929 -0.5977  0.4041
   81CHL1  H23A 8460   4.313   5.069   7.760 -0.6745 -2.1523 -2.3091
   81CHL1  H23B 8461   4.205   5.210   7.773 -1.7763 -0.4220 -1.6376
   81CHL1   C24 8462   4.143   5.035   7.886 -0.3196 -0.8217  0.6152
   81CHL1  H24A 8463   4.036   5.064   7.889  0.1676  1.1755  0.1478
   81CHL1  H24B 8464   4.154   4.925   7.884 -2.3797 -1.0740  0.8947
   81CHL1   C25 8465   4.199   5.078   8.021 -0.0605  0.0788  0.4804
   81CHL1   H25 8466   4.309   5.061   8.025  0.0007  0.5811  0.9792
   81CHL1   C26 8467   4.187   5.228   8.042 -0.0265 -0.2714  0.4625
   81CHL1  H26A 8468   4.259   5.271   7.969 -0.6064 -0.6411 -0.3388
   81CHL1  H26B 8469   4.086   5.274   8.044 -0.1150 -0.4537  0.2275
   81CHL1  H26C 8470   4.230   5.251   8.142  0.7525 -0.4791  0.1809
   81CHL1   C27 8471   4.138   4.998   8.135 -0.4589 -0.6794 -0.1867
   81CHL1  H27A 8472   4.150   4.892   8.105  0.1917 -1.1139  1.4757
   81CHL1  H27B 8473   4.196   5.029   8.225 -2.6633  1.1610  0.6848
   81CHL1  H27C 8474   4.032   5.025   8.151  0.2529  1.6277  1.2290
   82CHL1    C3 8475   3.437   0.092   6.948  0.1272  0.3359  0.9698
   82CHL1    H3 8476   3.342   0.040   6.973 -0.0162 -1.0989 -2.0711
   82CHL1    O3 8477   3.423   0.115   6.804  0.2392 -0.5468  0.1790
   82CHL1   H3' 8478   3.508   0.145   6.771 -0.5992  0.8991 -0.7569
   82CHL1    C4 8479   3.452   0.222   7.024 -0.6547 -0.0731  0.0597
   82CHL1   H4A 8480   3.555   0.261   7.018  0.6983 -2.5611  3.4730
   82CHL1   H4B 8481   3.380   0.301   6.995  1.4495  1.0959 -2.3637
   82CHL1    C5 8482   3.449   0.192   7.173 -0.1953 -0.2385  0.4214
   82CHL1    C6 8483   3.357   0.257   7.244  0.0298  0.3531  1.1020
   82CHL1    H6 8484   3.292   0.331   7.194  2.5375  1.4874 -0.6860
   82CHL1    C7 8485   3.346   0.248   7.392  0.5414 -0.8624 -0.1513
   82CHL1   H7A 8486   3.355   0.353   7.428  1.4777 -0.0425 -2.5717
   82CHL1   H7B 8487   3.252   0.200   7.425  0.0510  0.1025 -0.0927
   82CHL1    C8 8488   3.463   0.178   7.462 -0.3487  0.1021  0.4241
   82CHL1    H8 8489   3.543   0.255   7.467 -0.3989  0.4488 -2.4400
   82CHL1   C14 8490   3.419   0.138   7.607 -0.5582  0.4963 -0.2177
   82CHL1   H14 8491   3.333   0.068   7.597 -0.9774  0.9871 -0.0991
   82CHL1   C15 8492   3.361   0.245   7.702 -0.6073 -0.2393 -0.0048
   82CHL1  H15A 8493   3.425   0.335   7.691  0.6586 -1.2584 -1.3108
   82CHL1  H15B 8494   3.260   0.281   7.676 -0.7042 -1.5658 -1.6369
   82CHL1   C16 8495   3.380   0.188   7.840  0.5858 -0.2344  0.0342
   82CHL1  H16A 8496   3.428   0.260   7.910 -1.7499  0.0690  1.4158
   82CHL1  H16B 8497   3.278   0.170   7.880 -0.5838 -1.1893 -3.0302
   82CHL1   C17 8498   3.457   0.056   7.824  0.4170 -0.0816 -0.2007
   82CHL1   H17 8499   3.377  -0.018   7.800 -1.5151  1.5904  0.7368
   82CHL1   C13 8500   3.526   0.058   7.687 -0.8977 -0.8411 -0.1204
   82CHL1   C18 8501   3.653   0.143   7.692 -0.0181 -0.0170  0.1183
   82CHL1  H18A 8502   3.722   0.094   7.763 -0.8994  1.2088  1.9015
   82CHL1  H18B 8503   3.704   0.147   7.593  1.5421  1.4337  0.9303
   82CHL1  H18C 8504   3.636   0.245   7.733 -1.6039  0.2927 -1.2080
   82CHL1   C12 8505   3.547  -0.067   7.605 -0.7175  0.5208  0.2876
   82CHL1  H12A 8506   3.621  -0.139   7.646 -1.7938 -0.4271  0.6153
   82CHL1  H12B 8507   3.450  -0.120   7.590 -0.5333  0.4263 -0.6806
   82CHL1   C11 8508   3.591  -0.047   7.457  0.3997  0.7245  0.1465
   82CHL1  H11A 8509   3.699  -0.019   7.455  0.2531  1.4056  1.1318
   82CHL1  H11B 8510   3.582  -0.147   7.408  4.2453  0.3170 -0.0353
   82CHL1    C9 8511   3.504   0.056   7.377 -0.2641  0.0758 -0.9794
   82CHL1    H9 8512   3.416  -0.011   7.363  0.6901 -1.6580  0.6883
   82CHL1   C10 8513   3.550   0.087   7.229 -0.3789 -0.0277 -0.0109
   82CHL1   C19 8514   3.691   0.154   7.237  0.6436 -0.0475  0.0067
   82CHL1  H19A 8515   3.766   0.075   7.257 -1.3657 -2.7973 -2.3751
   82CHL1  H19B 8516   3.717   0.195   7.137  1.7405 -0.6479  0.0339
   82CHL1  H19C 8517   3.700   0.231   7.315  1.5241 -0.7007  0.5739
   82CHL1    C1 8518   3.553  -0.038   7.134 -0.1986 -0.4821  0.1347
   82CHL1   H1A 8519   3.641  -0.101   7.157  0.3803 -0.2546 -1.3892
   82CHL1   H1B 8520   3.459  -0.094   7.154  0.3525 -1.5238 -0.1258
   82CHL1    C2 8521   3.562  -0.003   6.984 -0.2703 -0.7618  0.9659
   82CHL1   H2A 8522   3.562  -0.092   6.918  5.4075  1.2368 -2.4106
   82CHL1   H2B 8523   3.654   0.051   6.952 -0.0667 -2.0237 -0.6781
   82CHL1   C20 8524   3.534   0.014   7.953  0.2703 -0.3144 -0.2785
   82CHL1   H20 8525   3.621   0.083   7.960 -1.4514  2.1052 -1.0080
   82CHL1   C21 8526   3.599  -0.127   7.952 -0.3903 -0.1334  0.4826
   82CHL1  H21A 8527   3.651  -0.133   8.050 -0.6868  1.4486  0.7600
   82CHL1  H21B 8528   3.676  -0.125   7.872  1.8148  1.0195  2.5183
   82CHL1  H21C 8529   3.523  -0.207   7.937 -1.6270  0.8166  1.4732
   82CHL1   C22 8530   3.457   0.033   8.080  0.1169  0.0415 -0.7560
   82CHL1  H22A 8531   3.524   0.024   8.168  0.9883 -2.1475 -1.5816
   82CHL1  H22B 8532   3.430   0.140   8.095  2.1357  0.6546 -1.2417
   82CHL1   C23 8533   3.329  -0.046   8.097 -0.2165  0.5668 -0.4240
   82CHL1  H23A 8534   3.250  -0.007   8.029  0.1304 -2.1414 -2.5696
   82CHL1  H23B 8535   3.349  -0.152   8.072 -1.0466  0.6790 -1.6349
   82CHL1   C24 8536   3.285  -0.035   8.239 -0.7890 -0.0048  0.4310
   82CHL1  H24A 8537   3.361  -0.077   8.308 -0.2376 -0.5229 -0.4748
   82CHL1  H24B 8538   3.272   0.075   8.252 -1.1388  0.4196 -2.6832
   82CHL1   C25 8539   3.154  -0.102   8.275  0.0723  0.9186  0.2813
   82CHL1   H25 8540   3.140  -0.071   8.381 -1.3875  1.2004  0.0321
   82CHL1   C26 8541   3.037  -0.049   8.201 -0.2704  0.2065 -0.2594
   82CHL1  H26A 8542   3.047  -0.078   8.095 -0.8808 -2.3833  0.3138
   82CHL1  H26B 8543   2.940  -0.092   8.235  0.2783  0.1761  1.3882
   82CHL1  H26C 8544   3.029   0.062   8.208 -1.4197  0.0998  0.3578
   82CHL1   C27 8545   3.178  -0.262   8.274  1.1297 -0.3103 -0.0036
   82CHL1  H27A 8546   3.187  -0.299   8.170  2.0645 -3.0318  0.9565
   82CHL1  H27B 8547   3.269  -0.293   8.329  2.5063  0.1253 -1.9268
   82CHL1  H27C 8548   3.089  -0.319   8.310  1.5906 -0.8725  0.2496
   83CHL1    C3 8549   0.015   1.245   6.929  0.0075  0.2629  0.5375
   83CHL1    H3 8550  -0.019   1.140   6.913  1.6069  0.0827 -2.2085
   83CHL1    O3 8551   0.031   1.313   6.807  0.0583  0.1795 -0.3739
   83CHL1   H3' 8552   0.052   1.243   6.744 -3.4811 -2.7938  1.3984
   83CHL1    C4 8553  -0.098   1.313   7.015 -0.3519  0.4823 -0.2904
   83CHL1   H4A 8554  -0.086   1.423   7.020 -2.5536  0.6933  1.7000
   83CHL1   H4B 8555  -0.193   1.291   6.963  0.0955  0.6851 -1.2169
   83CHL1    C5 8556  -0.110   1.253   7.158  0.7713 -0.1758  0.0390
   83CHL1    C6 8557  -0.231   1.201   7.196 -0.9830 -0.0696  0.5300
   83CHL1    H6 8558  -0.315   1.209   7.126 -0.3145 -3.6001 -0.8926
   83CHL1    C7 8559  -0.258   1.123   7.323  0.0508 -0.6648  0.0771
   83CHL1   H7A 8560  -0.358   1.144   7.366 -0.0497  0.1609 -0.5348
   83CHL1   H7B 8561  -0.247   1.013   7.312  0.9857 -0.5663 -0.1067
   83CHL1    C8 8562  -0.150   1.166   7.422  0.3772 -0.2870 -0.1998
   83CHL1    H8 8563  -0.170   1.270   7.455 -1.4013 -0.7154  0.1910
   83CHL1   C14 8564  -0.158   1.078   7.554  0.1287 -0.1166  1.3821
   83CHL1   H14 8565  -0.141   0.973   7.520 -2.2246  0.1171 -0.9204
   83CHL1   C15 8566  -0.293   1.062   7.629 -0.0995  0.0165  0.2142
   83CHL1  H15A 8567  -0.334   1.158   7.665 -2.2972 -1.1089  0.8682
   83CHL1  H15B 8568  -0.370   1.006   7.573  1.0573 -1.4031 -0.0332
   83CHL1   C16 8569  -0.250   0.994   7.757  0.0006  0.7413 -0.2023
   83CHL1  H16A 8570  -0.281   1.043   7.852  2.2280 -0.9127  1.4894
   83CHL1  H16B 8571  -0.285   0.889   7.748 -1.4674  1.2688 -0.9311
   83CHL1   C17 8572  -0.093   0.987   7.761  0.4323 -0.9072  0.0116
   83CHL1   H17 8573  -0.059   0.892   7.714  0.2871 -0.6165 -0.7010
   83CHL1   C13 8574  -0.056   1.104   7.656 -0.3265 -0.7295  0.0022
   83CHL1   C18 8575  -0.070   1.248   7.718  0.9873 -0.1464  0.0806
   83CHL1  H18A 8576  -0.176   1.264   7.746 -0.2859 -0.7446 -3.7997
   83CHL1  H18B 8577  -0.009   1.272   7.808  1.0633  0.8437 -0.2228
   83CHL1  H18C 8578  -0.041   1.324   7.641  0.6215  0.0436  0.1268
   83CHL1   C12 8579   0.080   1.076   7.589  0.4431 -0.3109  0.6681
   83CHL1  H12A 8580   0.168   1.104   7.652  0.1047 -1.3537  1.6445
   83CHL1  H12B 8581   0.077   0.968   7.561  1.1371  0.2336 -1.7382
   83CHL1   C11 8582   0.098   1.159   7.459  0.1242  0.2808 -0.0083
   83CHL1  H11A 8583   0.118   1.262   7.495 -0.8207  0.3403  0.3719
   83CHL1  H11B 8584   0.192   1.129   7.407  0.3731 -1.7213  1.4934
   83CHL1    C9 8585  -0.010   1.151   7.357 -0.2770 -0.4533  0.4799
   83CHL1    H9 8586  -0.002   1.048   7.315  2.4538  1.3946 -4.3639
   83CHL1   C10 8587   0.019   1.246   7.240  0.6176  0.7799 -0.4096
   83CHL1   C19 8588   0.045   1.391   7.291  0.3771  0.8119  0.0326
   83CHL1  H19A 8589   0.143   1.403   7.343  0.7648 -1.3847 -0.0746
   83CHL1  H19B 8590   0.036   1.469   7.212  0.7555  3.6176  2.5928
   83CHL1  H19C 8591  -0.020   1.408   7.379 -0.1855  1.9789 -0.5865
   83CHL1    C1 8592   0.137   1.190   7.147 -0.5768 -0.2409  0.0477
   83CHL1   H1A 8593   0.232   1.219   7.197 -0.2892 -1.6352  0.3530
   83CHL1   H1B 8594   0.115   1.081   7.149 -0.8718 -0.1736  1.0454
   83CHL1    C2 8595   0.149   1.251   7.004  0.3816 -0.6464 -0.1493
   83CHL1   H2A 8596   0.222   1.190   6.949  2.0259 -0.2842  1.5298
   83CHL1   H2B 8597   0.190   1.354   7.003 -3.0356  0.8737 -1.4385
   83CHL1   C20 8598  -0.043   0.987   7.901  0.4130 -0.0123  0.1279
   83CHL1   H20 8599  -0.057   1.092   7.935 -1.9672 -0.1578 -0.2405
   83CHL1   C21 8600   0.112   0.964   7.904  0.8748 -0.3810  0.7883
   83CHL1  H21A 8601   0.144   0.857   7.902  1.9012 -0.0867  1.0673
   83CHL1  H21B 8602   0.158   0.995   8.000 -0.8788 -0.1026  1.5695
   83CHL1  H21C 8603   0.175   1.023   7.834  1.7189 -0.0623  1.7931
   83CHL1   C22 8604  -0.115   0.898   8.000  0.3021 -0.5319  0.4153
   83CHL1  H22A 8605  -0.225   0.897   7.985  0.1799 -0.2306  1.2321
   83CHL1  H22B 8606  -0.082   0.794   7.983  1.5814 -0.1920  0.6731
   83CHL1   C23 8607  -0.081   0.924   8.151 -0.6614  0.0860  0.4874
   83CHL1  H23A 8608   0.027   0.899   8.158 -1.2758 -2.2168  3.1872
   83CHL1  H23B 8609  -0.091   1.034   8.168 -0.2406 -0.0822  1.8826
   83CHL1   C24 8610  -0.171   0.845   8.242  0.8856 -0.6236 -0.4512
   83CHL1  H24A 8611  -0.277   0.875   8.225  1.1519  1.1352  0.6692
   83CHL1  H24B 8612  -0.148   0.741   8.211  2.1161 -0.7354  0.7277
   83CHL1   C25 8613  -0.147   0.866   8.396 -0.3404 -0.3900 -0.2638
   83CHL1   H25 8614  -0.036   0.875   8.397 -0.0190 -3.3885  0.0020
   83CHL1   C26 8615  -0.199   1.000   8.439 -0.4364  0.1154 -0.3086
   83CHL1  H26A 8616  -0.309   1.003   8.419  0.0414  0.7268 -3.4449
   83CHL1  H26B 8617  -0.180   1.029   8.544  0.0041  2.4093 -0.9577
   83CHL1  H26C 8618  -0.151   1.086   8.388 -0.4332  0.8690  0.9219
   83CHL1   C27 8619  -0.196   0.741   8.478 -0.2587 -0.2628  0.0760
   83CHL1  H27A 8620  -0.192   0.760   8.588 -0.0999  1.1277 -0.1464
   83CHL1  H27B 8621  -0.302   0.718   8.456 -0.1424 -0.2771 -0.4929
   83CHL1  H27C 8622  -0.148   0.644   8.453  0.2307  0.2933 -1.2169
   84CHL1    C3 8623   2.713   4.186   6.812  0.6610  0.5096 -0.4021
   84CHL1    H3 8624   2.655   4.281   6.806 -0.3202 -0.1194 -1.3933
   84CHL1    O3 8625   2.707   4.123   6.687  0.4739  0.9207 -0.2312
   84CHL1   H3' 8626   2.618   4.127   6.652  1.1433  0.7640 -2.0265
   84CHL1    C4 8627   2.860   4.208   6.850 -1.2921 -1.1002  0.7486
   84CHL1   H4A 8628   2.919   4.119   6.821  3.3249  2.1046 -0.9465
   84CHL1   H4B 8629   2.904   4.285   6.783  2.3196 -0.2961  3.6993
   84CHL1    C5 8630   2.895   4.237   6.995 -0.3577 -0.1367 -0.2077
   84CHL1    C6 8631   2.970   4.347   7.031  0.5180 -0.9808 -0.0689
   84CHL1    H6 8632   3.020   4.411   6.957 -1.3290  2.1866  1.1674
   84CHL1    C7 8633   2.985   4.388   7.175  0.1846 -0.5357  0.1030
   84CHL1   H7A 8634   3.086   4.435   7.181  0.1884 -0.3852 -0.9555
   84CHL1   H7B 8635   2.911   4.468   7.199  0.2425 -0.1116 -1.0571
   84CHL1    C8 8636   2.969   4.267   7.273 -0.1895 -0.2974  0.3760
   84CHL1    H8 8637   3.049   4.195   7.245  1.7400  2.3154 -1.3974
   84CHL1   C14 8638   2.971   4.321   7.410 -0.5150  0.3454 -0.0926
   84CHL1   H14 8639   2.897   4.402   7.424  1.1436  2.6196 -3.1681
   84CHL1   C15 8640   3.101   4.383   7.463  0.1376  0.0562 -0.0957
   84CHL1  H15A 8641   3.184   4.318   7.428  1.3461  2.7344 -2.5855
   84CHL1  H15B 8642   3.128   4.484   7.427  4.6503 -0.4178  1.3197
   84CHL1   C16 8643   3.087   4.375   7.615  0.7674 -0.7458 -0.0978
   84CHL1  H16A 8644   3.178   4.326   7.657  1.0368 -2.6168 -2.6322
   84CHL1  H16B 8645   3.080   4.475   7.662  1.0847 -0.8547  0.1944
   84CHL1   C17 8646   2.955   4.296   7.647  0.9988 -0.2602  0.3819
   84CHL1   H17 8647   2.883   4.380   7.650  0.5023 -0.6799  0.4446
   84CHL1   C13 8648   2.929   4.214   7.516  0.9318 -0.6220  0.3810
   84CHL1   C18 8649   3.035   4.097   7.514  0.1456 -0.2086  0.3865
   84CHL1  H18A 8650   3.013   4.037   7.605  0.7288 -1.0172 -0.0070
   84CHL1  H18B 8651   3.010   4.044   7.420 -0.8920  1.3598 -0.2730
   84CHL1  H18C 8652   3.139   4.134   7.519  0.0926 -0.0904  0.6373
   84CHL1   C12 8653   2.786   4.165   7.486 -0.4590  0.1163  0.3056
   84CHL1  H12A 8654   2.736   4.092   7.553 -1.3285 -0.5986 -1.0608
   84CHL1  H12B 8655   2.730   4.261   7.483  2.3276  1.8443  0.3653
   84CHL1   C11 8656   2.770   4.109   7.345 -0.1349 -0.4227  0.2541
   84CHL1  H11A 8657   2.827   4.014   7.340  0.4276 -0.0350 -1.4765
   84CHL1  H11B 8658   2.662   4.094   7.324  0.5366 -2.4634 -2.1824
   84CHL1    C9 8659   2.830   4.207   7.245 -0.0981  0.6788  0.3719
   84CHL1    H9 8660   2.762   4.294   7.233 -1.3218 -0.2997  0.0014
   84CHL1   C10 8661   2.817   4.149   7.102 -0.2741 -0.1012  0.4179
   84CHL1   C19 8662   2.877   4.008   7.095  0.6404 -0.5084  0.5224
   84CHL1  H19A 8663   2.883   3.970   6.991  0.2519  0.8965 -0.0376
   84CHL1  H19B 8664   2.983   4.024   7.122  0.4745 -1.0297  1.5271
   84CHL1  H19C 8665   2.819   3.938   7.159 -0.6901  1.0557  1.1047
   84CHL1    C1 8666   2.666   4.140   7.061  0.5940 -0.0363  0.4780
   84CHL1   H1A 8667   2.610   4.066   7.123 -0.3419 -1.5485 -2.0219
   84CHL1   H1B 8668   2.626   4.238   7.094  2.9472  0.9085  0.6598
   84CHL1    C2 8669   2.639   4.095   6.920  0.6177 -0.2113  0.1336
   84CHL1   H2A 8670   2.533   4.071   6.899  0.2392 -0.3455  2.0232
   84CHL1   H2B 8671   2.676   3.992   6.902  2.7225  0.3973  0.7279
   84CHL1   C20 8672   2.965   4.216   7.777 -0.3992 -0.0747  0.6431
   84CHL1   H20 8673   3.054   4.149   7.774  0.6179  1.2549 -2.1083
   84CHL1   C21 8674   2.848   4.125   7.815  0.6558  0.0048  0.6878
   84CHL1  H21A 8675   2.858   4.031   7.757  2.7145  1.0238 -0.7528
   84CHL1  H21B 8676   2.749   4.167   7.790 -0.5567 -3.5047 -0.9810
   84CHL1  H21C 8677   2.854   4.107   7.924 -0.1353 -0.2378  0.6959
   84CHL1   C22 8678   3.001   4.309   7.899 -0.2585 -0.4152  0.5960
   84CHL1  H22A 8679   3.017   4.247   7.990 -0.6577 -0.4629  0.6354
   84CHL1  H22B 8680   3.090   4.368   7.869 -0.8293  1.1344  1.8239
   84CHL1   C23 8681   2.889   4.411   7.941  0.0548  0.1733 -0.7416
   84CHL1  H23A 8682   2.863   4.468   7.850  0.6967  1.6303 -0.0388
   84CHL1  H23B 8683   2.805   4.347   7.978  2.2199 -1.2454  2.1348
   84CHL1   C24 8684   2.906   4.508   8.055 -0.5763 -0.4150  0.7004
   84CHL1  H24A 8685   2.950   4.445   8.136  0.0286 -0.2526  0.4978
   84CHL1  H24B 8686   2.965   4.594   8.018 -2.1339 -0.1532 -1.3506
   84CHL1   C25 8687   2.770   4.566   8.109 -0.2019  0.2784 -0.2268
   84CHL1   H25 8688   2.728   4.480   8.166  1.9605 -0.4610  0.3569
   84CHL1   C26 8689   2.811   4.680   8.206 -0.5897 -0.3491 -0.3817
   84CHL1  H26A 8690   2.885   4.648   8.282 -2.5567 -0.9042  1.3977
   84CHL1  H26B 8691   2.838   4.767   8.143 -1.9426  1.0863  0.9178
   84CHL1  H26C 8692   2.722   4.701   8.270  0.4978  0.6126  0.8844
   84CHL1   C27 8693   2.680   4.630   8.003 -0.2015  0.3400  0.2324
   84CHL1  H27A 8694   2.653   4.568   7.915 -2.8371  0.9997  0.5016
   84CHL1  H27B 8695   2.588   4.664   8.056 -0.2484  0.8133 -0.1420
   84CHL1  H27C 8696   2.725   4.722   7.959 -1.1412  1.2565  1.1135
   85CHL1    C3 8697   2.436   3.420   6.742 -0.3216 -0.1609 -0.3570
   85CHL1    H3 8698   2.532   3.462   6.779  0.4760 -1.8315 -0.4249
   85CHL1    O3 8699   2.418   3.442   6.605  0.0138 -0.0544 -0.1693
   85CHL1   H3' 8700   2.407   3.354   6.567  0.6430 -0.8001  1.2803
   85CHL1    C4 8701   2.410   3.271   6.770 -0.4090 -0.1150  1.6810
   85CHL1   H4A 8702   2.313   3.228   6.737  0.9603 -1.6156 -0.7939
   85CHL1   H4B 8703   2.481   3.207   6.712  0.0963  1.4070  0.5440
   85CHL1    C5 8704   2.426   3.236   6.915  0.6306 -0.3377  0.2249
   85CHL1    C6 8705   2.524   3.157   6.954 -0.1688 -0.5638 -0.2743
   85CHL1    H6 8706   2.586   3.107   6.878 -1.3753 -1.5670 -0.6284
   85CHL1    C7 8707   2.565   3.119   7.094 -0.1063 -0.3235 -0.2582
   85CHL1   H7A 8708   2.581   3.009   7.106  3.4367  0.3562  3.6760
   85CHL1   H7B 8709   2.653   3.182   7.119 -0.1085 -0.6300  0.5578
   85CHL1    C8 8710   2.451   3.160   7.195 -0.0489 -0.7132  0.4333
   85CHL1    H8 8711   2.369   3.087   7.178  0.0789 -0.6661 -0.3965
   85CHL1   C14 8712   2.488   3.158   7.342 -0.6909  0.5401 -0.1926
   85CHL1   H14 8713   2.563   3.239   7.353 -2.1431  1.6711  2.4695
   85CHL1   C15 8714   2.552   3.022   7.390  0.0956 -0.0386 -0.2801
   85CHL1  H15A 8715   2.484   2.945   7.346  0.2211 -0.5364  0.3688
   85CHL1  H15B 8716   2.660   3.001   7.375  0.6294  1.3021  1.3803
   85CHL1   C16 8717   2.527   3.026   7.550 -0.0323  0.5922  0.1236
   85CHL1  H16A 8718   2.462   2.944   7.588  0.3783  0.9074  1.5718
   85CHL1  H16B 8719   2.622   3.019   7.607  0.3313 -4.3206 -0.6562
   85CHL1   C17 8720   2.451   3.160   7.578  0.3774 -0.1470 -0.3139
   85CHL1   H17 8721   2.534   3.233   7.592  0.0049  0.2393 -0.0990
   85CHL1   C13 8722   2.392   3.205   7.448 -0.2701  0.2783 -0.6951
   85CHL1   C18 8723   2.269   3.109   7.439 -0.1859 -1.1206  0.0920
   85CHL1  H18A 8724   2.189   3.156   7.500 -1.2115 -1.8277 -0.6764
   85CHL1  H18B 8725   2.224   3.113   7.337  0.0968  0.0495  0.0018
   85CHL1  H18C 8726   2.296   3.008   7.478  1.2943 -0.8814 -0.2626
   85CHL1   C12 8727   2.366   3.359   7.421  0.3470 -0.0833 -0.0986
   85CHL1  H12A 8728   2.285   3.399   7.485  0.4130  0.6658 -0.4703
   85CHL1  H12B 8729   2.453   3.427   7.433 -0.9943  1.8997 -1.0571
   85CHL1   C11 8730   2.306   3.376   7.279 -0.1294 -0.1022  0.6562
   85CHL1  H11A 8731   2.200   3.344   7.276 -0.0548 -0.3407 -2.4159
   85CHL1  H11B 8732   2.307   3.485   7.260 -0.9758 -0.4057 -1.3214
   85CHL1    C9 8733   2.393   3.304   7.170 -0.4254 -0.1102  0.4931
   85CHL1    H9 8734   2.488   3.361   7.176  0.6382 -1.5188 -1.7156
   85CHL1   C10 8735   2.344   3.320   7.023 -0.2921  0.0816  0.7431
   85CHL1   C19 8736   2.199   3.263   7.015 -0.8733 -0.2324  0.4590
   85CHL1  H19A 8737   2.165   3.264   6.909 -1.7721 -2.0116  0.6757
   85CHL1  H19B 8738   2.196   3.158   7.053 -0.5674 -0.5053 -0.2432
   85CHL1  H19C 8739   2.124   3.321   7.073  1.4721  2.6734  0.8207
   85CHL1    C1 8740   2.346   3.470   6.978  0.4376  0.3481 -0.0202
   85CHL1   H1A 8741   2.255   3.510   7.027 -0.3876 -0.8309 -0.5437
   85CHL1   H1B 8742   2.440   3.519   7.012  1.9676 -2.7025  0.4655
   85CHL1    C2 8743   2.335   3.499   6.824  0.2810  0.4948  0.6246
   85CHL1   H2A 8744   2.335   3.609   6.808  0.3765  0.0331 -3.4772
   85CHL1   H2B 8745   2.236   3.462   6.791 -0.1179  1.1756  1.0161
   85CHL1   C20 8746   2.372   3.170   7.711  0.0376  0.7285  0.3995
   85CHL1   H20 8747   2.308   3.080   7.703  0.3591  0.6649 -2.6490
   85CHL1   C21 8748   2.291   3.297   7.738  0.5662  0.8093  0.1848
   85CHL1  H21A 8749   2.221   3.308   7.652  1.5192  0.2507 -0.6815
   85CHL1  H21B 8750   2.342   3.393   7.759  0.2450  0.6462  1.8488
   85CHL1  H21C 8751   2.226   3.274   7.825  0.2447 -0.7207 -0.4303
   85CHL1   C22 8752   2.468   3.158   7.827 -0.0520  0.4338  0.5831
   85CHL1  H22A 8753   2.559   3.100   7.801 -1.8653 -1.1473 -2.8516
   85CHL1  H22B 8754   2.510   3.260   7.843  1.7888 -0.5751  2.8904
   85CHL1   C23 8755   2.410   3.098   7.957  0.8037  0.3082 -0.7150
   85CHL1  H23A 8756   2.335   3.169   7.998  3.6688  3.2460 -0.1094
   85CHL1  H23B 8757   2.371   2.996   7.940 -1.4887  0.9830  0.0111
   85CHL1   C24 8758   2.526   3.085   8.064 -0.0903  0.5107  0.1747
   85CHL1  H24A 8759   2.604   3.020   8.019  0.6564  0.5709  1.3712
   85CHL1  H24B 8760   2.567   3.187   8.077 -0.6727  0.7262  0.3396
   85CHL1   C25 8761   2.487   3.037   8.202 -0.1092 -0.5915 -0.1841
   85CHL1   H25 8762   2.412   3.108   8.244 -0.0962 -0.8115  0.2130
   85CHL1   C26 8763   2.431   2.895   8.201 -0.4150 -0.1612  0.3006
   85CHL1  H26A 8764   2.423   2.851   8.302 -0.2890 -1.6000 -0.2954
   85CHL1  H26B 8765   2.329   2.895   8.156 -0.1449  0.8784 -0.3557
   85CHL1  H26C 8766   2.495   2.822   8.148 -1.3413 -0.3770 -0.5607
   85CHL1   C27 8767   2.609   3.035   8.294  0.6554  0.1404  0.0312
   85CHL1  H27A 8768   2.638   3.141   8.314 -0.2935  0.1728  1.3407
   85CHL1  H27B 8769   2.580   2.985   8.388 -0.2061 -0.3559 -0.4937
   85CHL1  H27C 8770   2.699   2.986   8.252 -0.7239 -1.5117 -1.1261
   86CHL1    C3 8771   5.108   5.592   6.880  0.3412 -0.0114 -0.0581
   86CHL1    H3 8772   5.201   5.531   6.888  1.2981  1.4719  0.6362
   86CHL1    O3 8773   5.077   5.594   6.741  0.4167 -1.0098  0.3298
   86CHL1   H3' 8774   4.992   5.637   6.750  1.3299  0.8598  0.4171
   86CHL1    C4 8775   4.986   5.534   6.963 -0.4294  0.5202 -0.5684
   86CHL1   H4A 8776   4.887   5.583   6.947 -0.5695 -0.1570 -1.8653
   86CHL1   H4B 8777   4.960   5.435   6.921  1.8418 -0.4583  0.1926
   86CHL1    C5 8778   5.009   5.535   7.111 -0.2770  0.1997  0.0737
   86CHL1    C6 8779   5.001   5.425   7.187 -0.8671  0.3541 -0.0291
   86CHL1    H6 8780   4.988   5.328   7.136  1.0097 -1.3731  2.5418
   86CHL1    C7 8781   5.016   5.418   7.336 -0.5105 -0.3750  0.0558
   86CHL1   H7A 8782   4.954   5.338   7.382  0.2474 -1.2568 -0.4105
   86CHL1   H7B 8783   5.124   5.395   7.349  0.8693  4.8874  0.2031
   86CHL1    C8 8784   5.005   5.557   7.398  0.0558  0.2446  0.2184
   86CHL1    H8 8785   4.900   5.590   7.383  0.9906  2.1971 -3.0823
   86CHL1   C14 8786   5.051   5.558   7.546 -0.2549  0.4135 -0.4775
   86CHL1   H14 8787   5.160   5.534   7.547 -0.4094 -1.9259 -5.6601
   86CHL1   C15 8788   4.977   5.449   7.625  0.6571 -0.3119  0.2206
   86CHL1  H15A 8789   4.873   5.448   7.585  0.5127 -1.2212  0.6043
   86CHL1  H15B 8790   5.010   5.345   7.606 -3.4530 -1.7014 -0.1755
   86CHL1   C16 8791   4.982   5.496   7.772 -0.3675 -0.7269 -0.1948
   86CHL1  H16A 8792   4.875   5.507   7.799  0.1983  0.0953  1.8815
   86CHL1  H16B 8793   5.040   5.433   7.841 -0.5669  2.9888  3.7608
   86CHL1   C17 8794   5.062   5.641   7.763  0.3773  0.6696  0.2619
   86CHL1   H17 8795   5.167   5.607   7.774 -0.0260 -0.5108  0.5773
   86CHL1   C13 8796   5.025   5.689   7.616  0.1359 -0.0223  0.5679
   86CHL1   C18 8797   4.879   5.743   7.608  0.2315 -0.1987  0.0494
   86CHL1  H18A 8798   4.799   5.690   7.664 -2.0843  3.2549  0.3521
   86CHL1  H18B 8799   4.876   5.847   7.645 -2.0632  0.2778 -1.2732
   86CHL1  H18C 8800   4.844   5.752   7.502 -2.4570  0.1891  0.8845
   86CHL1   C12 8801   5.120   5.792   7.548 -0.6442  0.1585  0.1586
   86CHL1  H12A 8802   5.109   5.895   7.587  0.1239  1.1483 -2.1325
   86CHL1  H12B 8803   5.227   5.763   7.552 -0.3615  1.1838  0.1784
   86CHL1   C11 8804   5.091   5.800   7.396  0.1391 -0.4543  0.5467
   86CHL1  H11A 8805   4.998   5.858   7.377  1.6249  1.2520 -2.0555
   86CHL1  H11B 8806   5.176   5.857   7.355 -1.0082 -0.2096 -1.6182
   86CHL1    C9 8807   5.076   5.665   7.323 -0.0103  0.4828  0.8965
   86CHL1    H9 8808   5.181   5.629   7.318  0.3775  1.5401  1.0550
   86CHL1   C10 8809   5.040   5.673   7.173  0.3506  0.9667 -0.8895
   86CHL1   C19 8810   4.906   5.761   7.160 -0.1400  0.1910 -0.0066
   86CHL1  H19A 8811   4.841   5.744   7.249  0.0194  0.7182  0.2180
   86CHL1  H19B 8812   4.930   5.869   7.154  1.4139 -0.2093 -1.8403
   86CHL1  H19C 8813   4.841   5.736   7.073 -1.5469  0.6168  0.8768
   86CHL1    C1 8814   5.159   5.729   7.087 -0.0239  0.4414 -0.2519
   86CHL1   H1A 8815   5.178   5.835   7.116 -1.2825  0.3606  0.9820
   86CHL1   H1B 8816   5.258   5.684   7.111 -0.1526 -0.4644 -1.3499
   86CHL1    C2 8817   5.142   5.731   6.932  0.2786  0.1311 -0.6330
   86CHL1   H2A 8818   5.221   5.794   6.887  0.7189 -0.3081 -0.4880
   86CHL1   H2B 8819   5.042   5.779   6.919  0.0456 -0.6062 -1.6475
   86CHL1   C20 8820   5.026   5.743   7.878  0.4842  0.3725  0.6128
   86CHL1   H20 8821   4.926   5.789   7.858  1.3976  1.9054 -0.6151
   86CHL1   C21 8822   5.138   5.854   7.887 -0.0451  0.3535  0.0298
   86CHL1  H21A 8823   5.123   5.922   7.974 -0.0110 -0.7413  0.9225
   86CHL1  H21B 8824   5.136   5.914   7.794  1.7048  1.4169  0.6338
   86CHL1  H21C 8825   5.245   5.827   7.897  0.0230  0.9196  1.0245
   86CHL1   C22 8826   5.014   5.667   8.009  0.4680  0.1494 -0.4036
   86CHL1  H22A 8827   4.920   5.609   8.003 -0.8607  2.1703  0.0396
   86CHL1  H22B 8828   5.105   5.603   8.010  0.2347 -0.1805 -0.1364
   86CHL1   C23 8829   5.015   5.754   8.134 -0.4707  0.4635 -0.1683
   86CHL1  H23A 8830   5.111   5.809   8.145 -1.0496  1.3034  0.9104
   86CHL1  H23B 8831   4.938   5.833   8.121 -0.6004  0.1468 -1.3785
   86CHL1   C24 8832   4.982   5.669   8.254 -0.9765  0.1867 -0.7049
   86CHL1  H24A 8833   4.898   5.597   8.244  0.0696 -1.4083  1.0663
   86CHL1  H24B 8834   5.080   5.618   8.263  0.1258  2.2416 -0.3976
   86CHL1   C25 8835   4.946   5.747   8.383 -0.4350 -0.1131  0.3220
   86CHL1   H25 8836   5.023   5.826   8.391 -0.3293 -0.0994 -0.6857
   86CHL1   C26 8837   4.808   5.815   8.383 -0.3012  0.2384 -0.5400
   86CHL1  H26A 8838   4.794   5.872   8.289  0.1344 -0.6360 -1.1428
   86CHL1  H26B 8839   4.726   5.740   8.384 -0.2759  0.1897 -1.5785
   86CHL1  H26C 8840   4.801   5.891   8.464 -0.4240  1.5338 -1.7257
   86CHL1   C27 8841   4.955   5.667   8.508  0.2760  0.0052 -0.4338
   86CHL1  H27A 8842   4.920   5.724   8.596  0.1901 -2.4130  1.1921
   86CHL1  H27B 8843   4.890   5.579   8.487 -0.0873  0.1787 -0.0387
   86CHL1  H27C 8844   5.062   5.638   8.518  0.1249 -0.4032  0.0213
   87CHL1    C3 8845   3.687   4.102   6.825 -0.3078 -0.0582  0.2674
   87CHL1    H3 8846   3.594   4.142   6.872  0.4461 -1.6137  3.3516
   87CHL1    O3 8847   3.674   4.117   6.687  0.2384 -0.3118 -0.2694
   87CHL1   H3' 8848   3.634   4.204   6.673 -1.1287 -0.7045  0.9006
   87CHL1    C4 8849   3.806   4.188   6.881  0.2580  0.1981  0.2711
   87CHL1   H4A 8850   3.893   4.144   6.828  0.1191 -0.7136  0.7653
   87CHL1   H4B 8851   3.780   4.291   6.848  1.0034  0.9042  1.8084
   87CHL1    C5 8852   3.818   4.177   7.032  0.4342 -0.4486 -0.0927
   87CHL1    C6 8853   3.813   4.292   7.103 -0.1350 -0.1447 -0.9256
   87CHL1    H6 8854   3.806   4.392   7.058 -0.7872 -0.1357 -0.8139
   87CHL1    C7 8855   3.829   4.271   7.255  0.3977 -0.2172 -0.0458
   87CHL1   H7A 8856   3.884   4.351   7.309 -0.0290  0.6142 -0.8121
   87CHL1   H7B 8857   3.730   4.272   7.305 -0.6071  2.6023 -1.8634
   87CHL1    C8 8858   3.887   4.138   7.296  0.0199  0.5735  0.3361
   87CHL1    H8 8859   3.995   4.134   7.270  0.3785  2.1212  1.4763
   87CHL1   C14 8860   3.871   4.127   7.446  0.1798  0.2734  0.5015
   87CHL1   H14 8861   3.762   4.141   7.455 -0.0758 -1.5769  0.8214
   87CHL1   C15 8862   3.919   4.243   7.530  0.0573 -0.4549  0.0426
   87CHL1  H15A 8863   4.021   4.273   7.495 -0.3795 -0.6127 -1.4382
   87CHL1  H15B 8864   3.850   4.330   7.534  0.6181 -0.0095  0.3489
   87CHL1   C16 8865   3.942   4.185   7.670 -0.6982  0.7809  0.3749
   87CHL1  H16A 8866   4.043   4.201   7.713  0.3992 -0.0284 -1.7685
   87CHL1  H16B 8867   3.861   4.227   7.734 -0.9505  0.7776  0.0573
   87CHL1   C17 8868   3.916   4.026   7.663  0.0815 -0.5126  0.2611
   87CHL1   H17 8869   3.807   4.023   7.685  0.2113  0.4640  1.1337
   87CHL1   C13 8870   3.929   4.002   7.515  0.0570  0.9165 -0.2390
   87CHL1   C18 8871   4.076   3.999   7.485  0.1776 -0.1749 -0.0095
   87CHL1  H18A 8872   4.127   4.095   7.511  0.6243  0.0998 -1.7979
   87CHL1  H18B 8873   4.118   3.907   7.532 -2.5603 -1.1095  0.8133
   87CHL1  H18C 8874   4.093   3.983   7.377  1.1343 -2.7009  0.4382
   87CHL1   C12 8875   3.843   3.881   7.460 -0.4133 -0.2028 -0.2743
   87CHL1  H12A 8876   3.872   3.777   7.489  0.9944  0.6086  1.3784
   87CHL1  H12B 8877   3.740   3.893   7.497 -0.0592 -1.4724  1.2532
   87CHL1   C11 8878   3.855   3.892   7.310  0.1140 -0.0867  0.3085
   87CHL1  H11A 8879   3.955   3.861   7.274  0.0766  0.7198 -0.5254
   87CHL1  H11B 8880   3.785   3.817   7.268 -0.1821  0.0888  0.4804
   87CHL1    C9 8881   3.811   4.019   7.238 -0.0072 -0.1380  0.2989
   87CHL1    H9 8882   3.704   4.045   7.257 -0.8367 -2.6920 -0.5348
   87CHL1   C10 8883   3.824   4.024   7.082  0.6757  0.3265  0.4110
   87CHL1   C19 8884   3.958   3.957   7.034  0.0551 -0.3129 -0.2131
   87CHL1  H19A 8885   4.038   3.997   7.099  0.7657 -0.7843 -0.7770
   87CHL1  H19B 8886   3.948   3.847   7.050 -2.1713 -0.0802  0.3552
   87CHL1  H19C 8887   3.987   3.987   6.932 -1.1907 -1.3741 -0.9183
   87CHL1    C1 8888   3.705   3.950   7.011  0.6869  0.4028  0.0740
   87CHL1   H1A 8889   3.701   3.843   7.038 -0.2912  0.4424  0.1248
   87CHL1   H1B 8890   3.615   3.996   7.057  1.7763  1.3601  1.3084
   87CHL1    C2 8891   3.699   3.960   6.859 -0.2840  0.8726  0.2789
   87CHL1   H2A 8892   3.608   3.905   6.826  1.7759 -2.3502 -0.5345
   87CHL1   H2B 8893   3.791   3.909   6.823 -0.7140 -1.5870  2.3365
   87CHL1   C20 8894   3.987   3.941   7.768  0.3787 -0.5757 -0.1594
   87CHL1   H20 8895   4.097   3.936   7.752  0.8069 -0.4304  2.3036
   87CHL1   C21 8896   3.928   3.797   7.754  0.4306 -0.3695  0.5360
   87CHL1  H21A 8897   3.964   3.757   7.657  2.1962  3.6636 -0.6691
   87CHL1  H21B 8898   3.818   3.811   7.750  0.5765  0.9895  0.8829
   87CHL1  H21C 8899   3.947   3.721   7.834 -1.0471  0.5295  1.7895
   87CHL1   C22 8900   3.960   4.000   7.907  0.3427  0.1255 -0.0181
   87CHL1  H22A 8901   4.009   4.099   7.920  1.6260 -0.5540  0.5176
   87CHL1  H22B 8902   3.852   4.017   7.926  0.7486  2.8128  0.3881
   87CHL1   C23 8903   4.030   3.938   8.023 -0.1542  0.3016 -0.0905
   87CHL1  H23A 8904   4.006   3.831   8.036 -0.2187  0.3311  0.0463
   87CHL1  H23B 8905   4.133   3.938   7.982 -0.7655 -1.4911 -1.7906
   87CHL1   C24 8906   4.012   4.011   8.164 -0.2310  0.2140 -0.1043
   87CHL1  H24A 8907   4.041   4.118   8.161  1.1133 -0.0667  1.5361
   87CHL1  H24B 8908   3.904   4.001   8.189 -0.4328  0.2119 -0.9321
   87CHL1   C25 8909   4.101   3.954   8.285 -0.2600 -0.0185 -0.1387
   87CHL1   H25 8910   4.077   4.009   8.378  2.9320  0.8128  0.3106
   87CHL1   C26 8911   4.082   3.804   8.308  0.2503  0.2096  0.4162
   87CHL1  H26A 8912   4.125   3.744   8.225 -0.1943 -1.1287  1.1223
   87CHL1  H26B 8913   4.135   3.769   8.399  2.9841  2.5050 -0.1285
   87CHL1  H26C 8914   3.972   3.794   8.315  0.1274  1.3675  0.3839
   87CHL1   C27 8915   4.249   3.995   8.261 -0.8100  0.1147  0.3129
   87CHL1  H27A 8916   4.245   4.100   8.224 -2.2672  0.5835  1.6771
   87CHL1  H27B 8917   4.302   3.994   8.358 -1.5446  0.5622  0.7250
   87CHL1  H27C 8918   4.301   3.930   8.187 -0.4365  0.9597 -0.1891
   88CHL1    C3 8919   2.700   2.391   6.905  0.0292  0.2028  0.3342
   88CHL1    H3 8920   2.746   2.477   6.959  0.7347  0.8411 -1.2072
   88CHL1    O3 8921   2.689   2.411   6.760  0.4582  0.1798  0.1078
   88CHL1   H3' 8922   2.775   2.399   6.719  0.1062 -1.0609 -0.3342
   88CHL1    C4 8923   2.774   2.261   6.942  0.7100 -0.5945  0.2069
   88CHL1   H4A 8924   2.730   2.168   6.901  0.5810  0.6057 -2.6198
   88CHL1   H4B 8925   2.871   2.263   6.888  1.3002 -0.0896  1.2420
   88CHL1    C5 8926   2.788   2.266   7.095  0.3924  0.8490 -0.2445
   88CHL1    C6 8927   2.908   2.276   7.157 -0.0215  0.2420  0.4328
   88CHL1    H6 8928   2.996   2.288   7.093 -1.1985  0.7137 -1.1647
   88CHL1    C7 8929   2.940   2.271   7.303 -0.0630 -1.0464 -0.6122
   88CHL1   H7A 8930   3.036   2.223   7.331  0.2029 -0.1376  0.1325
   88CHL1   H7B 8931   2.964   2.376   7.331  1.0956 -1.4394 -0.0765
   88CHL1    C8 8932   2.817   2.233   7.384 -1.0388  0.2700  0.4641
   88CHL1    H8 8933   2.799   2.124   7.372 -2.0610  0.6488 -1.8906
   88CHL1   C14 8934   2.831   2.280   7.530 -0.2520  0.2004 -0.0144
   88CHL1   H14 8935   2.821   2.390   7.518 -2.1157 -0.0342 -0.8994
   88CHL1   C15 8936   2.961   2.250   7.604 -0.8631  0.5234  0.2155
   88CHL1  H15A 8937   3.007   2.152   7.575 -0.2683  0.5017  1.1899
   88CHL1  H15B 8938   3.033   2.329   7.572  1.1953 -1.3051  0.0181
   88CHL1   C16 8939   2.927   2.250   7.747  0.5733  0.2950  0.1308
   88CHL1  H16A 8940   2.939   2.143   7.774 -1.1873  0.3318  1.2366
   88CHL1  H16B 8941   2.990   2.310   7.817  1.6067 -0.4335 -0.1489
   88CHL1   C17 8942   2.772   2.281   7.748  0.6765  0.6354 -0.6561
   88CHL1   H17 8943   2.767   2.392   7.744  1.4313  0.7010 -0.0024
   88CHL1   C13 8944   2.711   2.238   7.618 -0.0391 -0.1068  0.4088
   88CHL1   C18 8945   2.698   2.086   7.625  0.4214 -0.1163 -0.5466
   88CHL1  H18A 8946   2.595   2.079   7.666  0.3601  0.6830 -0.5468
   88CHL1  H18B 8947   2.694   2.037   7.526 -2.9437  1.5698 -1.3881
   88CHL1  H18C 8948   2.768   2.032   7.692  1.7756  1.9870 -0.1853
   88CHL1   C12 8949   2.583   2.295   7.568  0.3828 -0.1560  0.3460
   88CHL1  H12A 8950   2.504   2.248   7.630  1.5859 -2.2397  0.4029
   88CHL1  H12B 8951   2.579   2.406   7.579 -0.0103 -0.0400 -0.8871
   88CHL1   C11 8952   2.562   2.254   7.421 -0.1802  0.6596 -0.5913
   88CHL1  H11A 8953   2.542   2.145   7.425  1.0849  0.4383  0.6658
   88CHL1  H11B 8954   2.470   2.304   7.386 -0.0261  1.1937 -0.2415
   88CHL1    C9 8955   2.681   2.288   7.329  0.3978  0.6912 -0.0224
   88CHL1    H9 8956   2.695   2.398   7.332  0.4079  0.6879  0.0473
   88CHL1   C10 8957   2.654   2.261   7.180  0.5191  0.4591 -0.1600
   88CHL1   C19 8958   2.595   2.118   7.164  0.1899 -0.0200 -0.6797
   88CHL1  H19A 8959   2.598   2.088   7.057 -2.5048  2.6878 -1.6554
   88CHL1  H19B 8960   2.639   2.038   7.227  1.7822  0.6156 -0.9306
   88CHL1  H19C 8961   2.488   2.119   7.194  1.1898  0.9648  3.4815
   88CHL1    C1 8962   2.553   2.367   7.122  0.2004 -0.1875 -0.2224
   88CHL1   H1A 8963   2.450   2.342   7.156  0.6507  0.1120  1.4318
   88CHL1   H1B 8964   2.586   2.467   7.157  0.0334  0.1576 -1.0300
   88CHL1    C2 8965   2.553   2.388   6.969  0.2016  0.6090  0.2358
   88CHL1   H2A 8966   2.516   2.488   6.937 -0.6245 -0.2249 -1.6202
   88CHL1   H2B 8967   2.493   2.309   6.918 -0.3657  0.3843  1.2317
   88CHL1   C20 8968   2.709   2.259   7.883 -0.5255  0.4745  0.0079
   88CHL1   H20 8969   2.656   2.161   7.884 -1.1426  0.7663 -1.3791
   88CHL1   C21 8970   2.618   2.385   7.914  0.1665 -0.0696 -0.3551
   88CHL1  H21A 8971   2.558   2.375   8.007 -0.9540  0.2180 -1.0313
   88CHL1  H21B 8972   2.544   2.406   7.834 -0.9269  1.8427  1.0707
   88CHL1  H21C 8973   2.676   2.478   7.932 -0.3606  0.0836  0.6051
   88CHL1   C22 8974   2.798   2.240   8.007  0.3931  0.1529 -0.0287
   88CHL1  H22A 8975   2.881   2.173   7.976  1.3971  2.1730 -1.9941
   88CHL1  H22B 8976   2.846   2.338   8.027  0.9483 -0.3064  0.9612
   88CHL1   C23 8977   2.723   2.198   8.134 -0.0824 -0.2208  0.3879
   88CHL1  H23A 8978   2.661   2.285   8.166 -1.1221 -1.3981  1.7245
   88CHL1  H23B 8979   2.660   2.109   8.113  0.7064 -0.5390 -0.7695
   88CHL1   C24 8980   2.799   2.176   8.262  0.0002  0.2994 -0.5698
   88CHL1  H24A 8981   2.891   2.117   8.246  0.3267  0.7478 -0.3678
   88CHL1  H24B 8982   2.823   2.276   8.305 -1.1750  0.5564 -0.4725
   88CHL1   C25 8983   2.708   2.097   8.363 -0.7113 -0.6782  0.2940
   88CHL1   H25 8984   2.687   1.997   8.319  0.0586 -0.2036 -1.2203
   88CHL1   C26 8985   2.790   2.072   8.495 -0.3400 -0.3156 -0.1280
   88CHL1  H26A 8986   2.853   1.982   8.479 -0.4127 -0.2471 -0.8379
   88CHL1  H26B 8987   2.842   2.168   8.519  0.9498 -1.4820  2.0301
   88CHL1  H26C 8988   2.722   2.062   8.582  1.4391  0.4865  1.4164
   88CHL1   C27 8989   2.583   2.179   8.403 -0.5237  0.4244 -0.1676
   88CHL1  H27A 8990   2.501   2.185   8.328 -2.2906 -1.3727  1.4621
   88CHL1  H27B 8991   2.534   2.131   8.491 -0.0870  0.1005 -0.0983
   88CHL1  H27C 8992   2.607   2.287   8.413 -0.2537  0.5241 -1.7256
   89CHL1    C3 8993   5.515   5.679   6.869 -0.3047 -0.5995 -0.2862
   89CHL1    H3 8994   5.413   5.714   6.896  0.0311  0.9277 -0.8938
   89CHL1    O3 8995   5.560   5.723   6.742 -0.3742 -0.3463  0.8966
   89CHL1   H3' 8996   5.656   5.718   6.751 -0.2882  2.4858  3.0859
   89CHL1    C4 8997   5.615   5.739   6.983  0.2642  0.3603  0.1295
   89CHL1   H4A 8998   5.717   5.708   6.952  0.4229 -1.4666  2.2512
   89CHL1   H4B 8999   5.611   5.849   6.970 -2.3786  0.3816  0.5112
   89CHL1    C5 9000   5.593   5.692   7.127 -0.4614 -0.3219  0.4109
   89CHL1    C6 9001   5.578   5.779   7.220  0.3059 -0.3898 -0.0231
   89CHL1    H6 9002   5.572   5.882   7.183  1.8831 -0.4237 -0.4150
   89CHL1    C7 9003   5.546   5.749   7.365  0.0592 -0.1217  0.2771
   89CHL1   H7A 9004   5.615   5.806   7.430  1.1238 -0.3906 -0.5819
   89CHL1   H7B 9005   5.441   5.773   7.390  0.3637  0.8936  0.6184
   89CHL1    C8 9006   5.573   5.598   7.396  0.0336  0.6740 -0.4265
   89CHL1    H8 9007   5.680   5.567   7.394 -0.6285 -1.8259 -1.2135
   89CHL1   C14 9008   5.511   5.560   7.528 -0.0044  0.4052 -0.7881
   89CHL1   H14 9009   5.403   5.582   7.513 -0.0684  1.2762  0.6846
   89CHL1   C15 9010   5.540   5.639   7.656 -0.0512 -0.6990 -0.1538
   89CHL1  H15A 9011   5.650   5.638   7.668 -0.0299  1.5455  0.1998
   89CHL1  H15B 9012   5.502   5.741   7.675 -0.0027 -0.6821 -0.1480
   89CHL1   C16 9013   5.474   5.554   7.771 -0.4377  0.4544  0.3556
   89CHL1  H16A 9014   5.554   5.530   7.844  0.0512  1.4507  0.1534
   89CHL1  H16B 9015   5.390   5.609   7.820  0.9716  3.8140 -0.7646
   89CHL1   C17 9016   5.424   5.416   7.709  0.9358 -0.4090 -0.1992
   89CHL1   H17 9017   5.322   5.436   7.671  0.9994 -1.6308 -1.0787
   89CHL1   C13 9018   5.507   5.412   7.574 -0.4932 -0.1018  0.7053
   89CHL1   C18 9019   5.645   5.356   7.599  0.4632  0.2931 -0.4276
   89CHL1  H18A 9020   5.698   5.413   7.678 -0.7211  1.1779 -0.2471
   89CHL1  H18B 9021   5.629   5.252   7.634 -2.5028  0.5785 -0.6562
   89CHL1  H18C 9022   5.704   5.360   7.505 -0.9913  0.5250 -1.3657
   89CHL1   C12 9023   5.434   5.333   7.452  0.1404  0.0088 -0.4408
   89CHL1  H12A 9024   5.433   5.223   7.464  1.2439 -0.3033 -2.7430
   89CHL1  H12B 9025   5.328   5.368   7.448  0.2164  0.3700  0.4343
   89CHL1   C11 9026   5.502   5.366   7.315 -0.0575  0.5877 -0.9512
   89CHL1  H11A 9027   5.597   5.309   7.317 -1.2225 -1.5583  2.1796
   89CHL1  H11B 9028   5.437   5.341   7.228  0.9169  1.0390 -1.8288
   89CHL1    C9 9029   5.513   5.512   7.278  0.6076 -0.5400 -0.3845
   89CHL1    H9 9030   5.407   5.543   7.266  1.1824  0.8203 -2.4887
   89CHL1   C10 9031   5.575   5.538   7.143 -0.5812 -0.4252 -0.2583
   89CHL1   C19 9032   5.714   5.470   7.138 -0.2531 -0.9841  0.7628
   89CHL1  H19A 9033   5.790   5.518   7.072 -0.6434 -2.2304 -0.6612
   89CHL1  H19B 9034   5.768   5.456   7.234  2.7012 -2.4208 -0.9418
   89CHL1  H19C 9035   5.701   5.364   7.107  0.3032 -1.0589  0.7712
   89CHL1    C1 9036   5.482   5.487   7.031 -0.0220  0.9747 -0.4942
   89CHL1   H1A 9037   5.490   5.377   7.023  0.9085  1.1761 -3.7296
   89CHL1   H1B 9038   5.376   5.518   7.047 -0.0607  0.7330 -0.2906
   89CHL1    C2 9039   5.509   5.525   6.882  0.2660 -0.3631 -0.5916
   89CHL1   H2A 9040   5.428   5.490   6.815 -0.5384  5.0089 -2.9369
   89CHL1   H2B 9041   5.609   5.484   6.857  1.5919  0.3142  2.9252
   89CHL1   C20 9042   5.414   5.295   7.807 -0.1525  0.0548  0.0860
   89CHL1   H20 9043   5.519   5.273   7.836  0.5818  0.3567 -2.1392
   89CHL1   C21 9044   5.348   5.177   7.738 -0.6868  0.4369  0.0777
   89CHL1  H21A 9045   5.424   5.151   7.660  2.2633  2.2675  2.1273
   89CHL1  H21B 9046   5.253   5.206   7.688 -0.9605 -0.0571  0.3048
   89CHL1  H21C 9047   5.319   5.098   7.811 -1.7293  0.1786 -0.5886
   89CHL1   C22 9048   5.344   5.341   7.943  0.2658 -0.9750  0.2433
   89CHL1  H22A 9049   5.388   5.434   7.985  0.5737 -0.4600 -1.1790
   89CHL1  H22B 9050   5.237   5.364   7.929  0.6094  0.4020 -0.2337
   89CHL1   C23 9051   5.360   5.232   8.046  0.3339 -0.5675 -0.0599
   89CHL1  H23A 9052   5.284   5.153   8.032  1.1235 -1.6770  1.6263
   89CHL1  H23B 9053   5.457   5.179   8.037  1.9106  1.7544  1.9259
   89CHL1   C24 9054   5.356   5.285   8.186  0.4399 -0.3275  0.4134
   89CHL1  H24A 9055   5.444   5.351   8.201 -0.7462  1.5518 -0.5819
   89CHL1  H24B 9056   5.270   5.353   8.202  0.8466 -0.0800  1.6878
   89CHL1   C25 9057   5.352   5.183   8.304 -0.1992  0.5244 -0.0788
   89CHL1   H25 9058   5.255   5.129   8.299 -1.2362  2.2493  0.4895
   89CHL1   C26 9059   5.457   5.073   8.295  0.1613 -0.3190  0.0874
   89CHL1  H26A 9060   5.554   5.124   8.313 -1.2278  1.7698  2.3019
   89CHL1  H26B 9061   5.441   4.995   8.372  1.4014  0.1603  0.8592
   89CHL1  H26C 9062   5.454   5.035   8.191  1.0453  2.4595 -1.0435
   89CHL1   C27 9063   5.348   5.256   8.442 -0.6894  0.0909 -0.1170
   89CHL1  H27A 9064   5.441   5.313   8.463  1.7896 -3.0245 -1.8069
   89CHL1  H27B 9065   5.259   5.322   8.441 -0.9764 -0.3044 -1.0219
   89CHL1  H27C 9066   5.348   5.189   8.530  1.6696 -0.3117 -0.3655
   90CHL1    C3 9067   4.125   0.368   7.055  0.0697 -0.0431 -0.2221
   90CHL1    H3 9068   4.116   0.461   7.116  1.4590 -0.7900  1.2011
   90CHL1    O3 9069   4.095   0.377   6.917  0.3971 -0.0931 -0.3282
   90CHL1   H3' 9070   4.137   0.299   6.880  1.7442 -0.6183  2.0813
   90CHL1    C4 9071   4.275   0.328   7.072  0.4760 -0.0318  0.8767
   90CHL1   H4A 9072   4.278   0.230   7.018 -0.9887  0.2108  0.3196
   90CHL1   H4B 9073   4.339   0.399   7.016 -1.1761  0.6344 -0.2286
   90CHL1    C5 9074   4.315   0.293   7.213  0.0015 -0.7391  0.5126
   90CHL1    C6 9075   4.425   0.350   7.272 -0.7257 -0.1386  0.0878
   90CHL1    H6 9076   4.496   0.413   7.219  1.3164 -1.5347  1.0285
   90CHL1    C7 9077   4.482   0.317   7.405 -0.3236  0.9922  0.0881
   90CHL1   H7A 9078   4.591   0.299   7.394  0.0001  1.5015  2.1103
   90CHL1   H7B 9079   4.467   0.400   7.478 -0.0070 -0.2153  1.5870
   90CHL1    C8 9080   4.416   0.190   7.471  0.4134  0.4563  0.5501
   90CHL1    H8 9081   4.453   0.098   7.421 -1.9039 -0.1326 -0.2042
   90CHL1   C14 9082   4.439   0.193   7.623  0.3861  0.5510  0.6731
   90CHL1   H14 9083   4.392   0.290   7.648  0.1472  0.4593  0.5743
   90CHL1   C15 9084   4.577   0.209   7.680 -0.7625 -0.2690  0.2868
   90CHL1  H15A 9085   4.644   0.131   7.637 -0.6461 -0.0558  0.0801
   90CHL1  H15B 9086   4.619   0.310   7.660 -0.4795 -0.4137  0.1408
   90CHL1   C16 9087   4.547   0.171   7.826 -0.3985  0.7591  0.1444
   90CHL1  H16A 9088   4.613   0.083   7.842  0.1854  1.5219  2.2661
   90CHL1  H16B 9089   4.590   0.248   7.892 -0.2763  2.9523 -2.3184
   90CHL1   C17 9090   4.403   0.128   7.847  0.4149  0.2924  0.4837
   90CHL1   H17 9091   4.356   0.227   7.864 -1.3950 -0.4140 -0.2194
   90CHL1   C13 9092   4.360   0.086   7.702 -0.4387  0.0643 -0.5037
   90CHL1   C18 9093   4.411  -0.059   7.668 -0.1967  0.2673 -0.6501
   90CHL1  H18A 9094   4.414  -0.069   7.558  1.1490  1.0048 -0.7004
   90CHL1  H18B 9095   4.514  -0.087   7.700 -0.3314  1.0172  0.5215
   90CHL1  H18C 9096   4.350  -0.127   7.732  1.2570  0.9507  1.6029
   90CHL1   C12 9097   4.207   0.111   7.668  0.1694 -0.2967 -0.4746
   90CHL1  H12A 9098   4.144   0.037   7.721 -0.2078  1.1250  1.1303
   90CHL1  H12B 9099   4.180   0.210   7.710  1.5707 -0.7274  1.6170
   90CHL1   C11 9100   4.180   0.092   7.523  0.1507 -0.2034 -0.0941
   90CHL1  H11A 9101   4.201  -0.014   7.498 -0.0898 -0.0109 -1.1206
   90CHL1  H11B 9102   4.072   0.103   7.503 -0.0580 -1.5604  0.2124
   90CHL1    C9 9103   4.263   0.194   7.438 -0.9144  0.2801 -0.0457
   90CHL1    H9 9104   4.235   0.295   7.474  3.3141  1.7169 -0.1977
   90CHL1   C10 9105   4.226   0.196   7.291 -0.0357 -0.4554  0.1858
   90CHL1   C19 9106   4.233   0.054   7.230 -0.4795  0.1671 -0.5419
   90CHL1  H19A 9107   4.332   0.011   7.256  0.3089  1.9703 -0.4040
   90CHL1  H19B 9108   4.156  -0.012   7.275 -1.4384  1.1944 -0.6332
   90CHL1  H19C 9109   4.229   0.056   7.119  0.9371 -2.3590 -0.7247
   90CHL1    C1 9110   4.081   0.256   7.275  1.1572  0.2894 -0.5812
   90CHL1   H1A 9111   4.012   0.182   7.320  3.2656 -2.0522 -0.9736
   90CHL1   H1B 9112   4.070   0.348   7.336 -0.4944 -0.4744  0.3278
   90CHL1    C2 9113   4.034   0.274   7.130 -0.0737  0.7825 -0.0270
   90CHL1   H2A 9114   3.928   0.307   7.122 -0.8817 -1.8594 -1.7298
   90CHL1   H2B 9115   4.021   0.176   7.079  2.4417  0.7379 -0.7196
   90CHL1   C20 9116   4.386   0.027   7.964 -0.1725  0.2516 -0.5054
   90CHL1   H20 9117   4.436  -0.071   7.950  0.2852  0.3063  0.6752
   90CHL1   C21 9118   4.242  -0.002   7.980  0.3684  0.3411  0.4531
   90CHL1  H21A 9119   4.186  -0.056   7.900  0.8496 -0.3177  0.5527
   90CHL1  H21B 9120   4.191   0.095   8.000  2.5898  1.2902  1.8495
   90CHL1  H21C 9121   4.219  -0.074   8.061 -1.4520 -0.7692 -0.9746
   90CHL1   C22 9122   4.453   0.079   8.096  0.0566 -0.4939  0.2973
   90CHL1  H22A 9123   4.559   0.105   8.074  0.4700 -1.5260  1.0165
   90CHL1  H22B 9124   4.394   0.170   8.123  2.7959  1.1163  1.2308
   90CHL1   C23 9125   4.450  -0.026   8.214  0.9213 -0.4880  0.7460
   90CHL1  H23A 9126   4.345  -0.045   8.243  1.4680  1.1532  4.2999
   90CHL1  H23B 9127   4.496  -0.122   8.181  0.7845  0.0216 -1.0503
   90CHL1   C24 9128   4.532   0.033   8.333 -0.0748  0.5252  0.0547
   90CHL1  H24A 9129   4.633   0.048   8.289  0.5040 -2.2496  0.2296
   90CHL1  H24B 9130   4.485   0.127   8.367 -0.8064 -0.5868  2.3287
   90CHL1   C25 9131   4.556  -0.058   8.453 -0.0327 -0.2420  0.0951
   90CHL1   H25 9132   4.602   0.009   8.528  1.6219  0.3452 -1.3512
   90CHL1   C26 9133   4.432  -0.125   8.505  0.6421 -0.6167 -0.6535
   90CHL1  H26A 9134   4.461  -0.159   8.606  1.1785  0.6229 -0.3764
   90CHL1  H26B 9135   4.354  -0.047   8.520 -0.9892 -1.9444 -1.7932
   90CHL1  H26C 9136   4.383  -0.209   8.450  2.8982 -1.1907 -1.9099
   90CHL1   C27 9137   4.667  -0.164   8.419 -0.0356 -0.5776 -0.0666
   90CHL1  H27A 9138   4.756  -0.111   8.380  0.8216 -1.9588 -0.0358
   90CHL1  H27B 9139   4.685  -0.215   8.516  2.8191  1.0651  0.3831
   90CHL1  H27C 9140   4.635  -0.237   8.342 -0.6355 -3.2312  2.5069
   91CHL1    C3 9141   5.746   1.534   7.091  0.4928 -0.0111  0.6648
   91CHL1    H3 9142   5.818   1.452   7.112 -0.1641 -0.8814 -0.4012
   91CHL1    O3 9143   5.725   1.527   6.952 -0.1247 -0.4973 -0.3204
   91CHL1   H3' 9144   5.630   1.536   6.944  0.0231  0.4595 -1.2007
   91CHL1    C4 9145   5.619   1.497   7.161 -0.1219 -0.3220 -0.3750
   91CHL1   H4A 9146   5.548   1.581   7.140  0.4366  0.7933  1.8142
   91CHL1   H4B 9147   5.581   1.397   7.133 -0.1324 -0.4536  0.0975
   91CHL1    C5 9148   5.648   1.494   7.310 -0.1034  0.0734 -0.0887
   91CHL1    C6 9149   5.639   1.384   7.384  0.4674 -0.0490 -0.3022
   91CHL1    H6 9150   5.601   1.289   7.342  0.5837  0.5091 -1.7268
   91CHL1    C7 9151   5.650   1.391   7.535  0.7597  0.6839  0.6028
   91CHL1   H7A 9152   5.564   1.342   7.585  0.2644 -0.1308 -0.9738
   91CHL1   H7B 9153   5.744   1.338   7.562  0.3913 -1.7869 -2.4019
   91CHL1    C8 9154   5.663   1.529   7.597  0.1248 -0.4758 -0.0242
   91CHL1    H8 9155   5.566   1.583   7.602  1.3390  1.8690 -0.3997
   91CHL1   C14 9156   5.715   1.525   7.742 -0.1620  0.1211  0.0319
   91CHL1   H14 9157   5.814   1.480   7.721 -0.4011  0.0561 -0.9920
   91CHL1   C15 9158   5.649   1.424   7.842 -0.1076 -0.9357 -0.3502
   91CHL1  H15A 9159   5.539   1.412   7.831 -0.5727  1.7142  0.6593
   91CHL1  H15B 9160   5.709   1.332   7.835  0.7981 -0.6735  2.6577
   91CHL1   C16 9161   5.674   1.492   7.977  0.6622  0.6570 -0.5008
   91CHL1  H16A 9162   5.581   1.531   8.023  1.3558  1.2910  0.4255
   91CHL1  H16B 9163   5.730   1.426   8.047  0.1636  0.2325 -0.4953
   91CHL1   C17 9164   5.765   1.619   7.958 -0.8966 -0.2861 -0.3938
   91CHL1   H17 9165   5.868   1.579   7.951 -1.1675 -0.8313 -1.5312
   91CHL1   C13 9166   5.729   1.660   7.812 -0.0798  0.0308  1.2415
   91CHL1   C18 9167   5.587   1.722   7.816  0.8830 -0.2513 -0.1026
   91CHL1  H18A 9168   5.507   1.653   7.850  0.4535  0.4494  0.3407
   91CHL1  H18B 9169   5.580   1.810   7.884 -0.1007 -0.7991  0.5341
   91CHL1  H18C 9170   5.553   1.749   7.714  0.0384 -1.7472 -0.2394
   91CHL1   C12 9171   5.818   1.753   7.730  0.3863  0.0565  0.4735
   91CHL1  H12A 9172   5.808   1.858   7.767 -0.9240 -0.0491  0.4472
   91CHL1  H12B 9173   5.923   1.719   7.747 -0.5496 -2.9946  0.7346
   91CHL1   C11 9174   5.789   1.757   7.576 -0.1746 -0.5514 -0.3262
   91CHL1  H11A 9175   5.700   1.822   7.562 -0.5727 -1.1123 -0.4190
   91CHL1  H11B 9176   5.871   1.809   7.522 -0.6939  0.7764  0.1146
   91CHL1    C9 9177   5.752   1.618   7.518  0.3189 -0.1033 -0.0164
   91CHL1    H9 9178   5.846   1.559   7.520  0.8668  0.7390  2.7319
   91CHL1   C10 9179   5.698   1.632   7.371 -0.4668 -0.2125  0.0411
   91CHL1   C19 9180   5.578   1.733   7.363 -0.2884 -0.2590  0.7418
   91CHL1  H19A 9181   5.499   1.714   7.439 -1.1208  1.1864  0.2611
   91CHL1  H19B 9182   5.613   1.836   7.383 -1.3249 -0.0076  1.2965
   91CHL1  H19C 9183   5.537   1.745   7.261 -0.1096  1.3200  0.8371
   91CHL1    C1 9184   5.816   1.685   7.282  0.1858  0.6083 -0.0693
   91CHL1   H1A 9185   5.816   1.794   7.303 -2.0847  0.8992 -1.1842
   91CHL1   H1B 9186   5.914   1.643   7.311 -0.1972 -0.1080  0.1999
   91CHL1    C2 9187   5.789   1.674   7.126  0.2498 -0.3161 -0.1798
   91CHL1   H2A 9188   5.873   1.693   7.055 -1.1513 -4.3588 -3.3318
   91CHL1   H2B 9189   5.708   1.742   7.092  0.4500  0.1016  0.1723
   91CHL1   C20 9190   5.771   1.727   8.073 -0.4467  0.5618  0.8057
   91CHL1   H20 9191   5.678   1.789   8.069 -1.0003 -0.3188 -0.3413
   91CHL1   C21 9192   5.890   1.818   8.045 -0.3834 -0.2744 -0.3018
   91CHL1  H21A 9193   5.914   1.887   8.129 -0.1889 -1.8192  0.9391
   91CHL1  H21B 9194   5.892   1.872   7.948  0.4177 -1.0002 -0.6920
   91CHL1  H21C 9195   5.977   1.750   8.043  0.7582  1.1238 -2.1553
   91CHL1   C22 9196   5.780   1.653   8.218 -0.0651 -0.0431  0.2111
   91CHL1  H22A 9197   5.691   1.590   8.238  0.1192 -0.6053 -0.6608
   91CHL1  H22B 9198   5.872   1.591   8.213 -0.5292 -0.7844  0.6528
   91CHL1   C23 9199   5.789   1.745   8.338  0.0182  0.3140  0.1881
   91CHL1  H23A 9200   5.882   1.804   8.328  0.1074  0.1926  0.2967
   91CHL1  H23B 9201   5.714   1.827   8.350  0.4501  0.5426  1.5314
   91CHL1   C24 9202   5.804   1.661   8.465 -0.0955  0.5043  0.1589
   91CHL1  H24A 9203   5.721   1.587   8.465  0.2237  0.0815 -2.0510
   91CHL1  H24B 9204   5.893   1.596   8.454 -1.6485 -1.8560  0.7938
   91CHL1   C25 9205   5.825   1.743   8.590 -0.4299 -0.1612 -0.8798
   91CHL1   H25 9206   5.830   1.847   8.553 -0.5148  0.2778  0.3002
   91CHL1   C26 9207   5.718   1.723   8.701  0.4755 -0.6174 -0.1244
   91CHL1  H26A 9208   5.678   1.619   8.698  1.3531 -0.9389 -1.7759
   91CHL1  H26B 9209   5.768   1.738   8.800 -0.1735 -0.3354  0.1629
   91CHL1  H26C 9210   5.636   1.797   8.693  2.7676  1.8940 -1.9262
   91CHL1   C27 9211   5.969   1.713   8.648  0.3655 -1.2102  0.3963
   91CHL1  H27A 9212   5.997   1.793   8.720 -1.5323 -0.8218  0.7470
   91CHL1  H27B 9213   5.973   1.614   8.698  0.8233 -0.9186  0.9540
   91CHL1  H27C 9214   6.049   1.711   8.571 -0.3417 -0.4156 -0.3719
   92CHL1    C3 9215   1.449   3.225   7.006 -0.9986  0.0548  0.1311
   92CHL1    H3 9216   1.359   3.208   7.069 -1.7937 -4.7828 -1.7978
   92CHL1    O3 9217   1.414   3.276   6.881  0.1716  0.1054 -0.1469
   92CHL1   H3' 9218   1.340   3.224   6.850 -1.2572  2.8037 -1.6512
   92CHL1    C4 9219   1.561   3.308   7.075 -0.0057 -0.2870 -0.4121
   92CHL1   H4A 9220   1.658   3.304   7.022 -0.3403 -1.0424 -0.9908
   92CHL1   H4B 9221   1.516   3.410   7.069 -2.1065 -1.1088  0.5671
   92CHL1    C5 9222   1.576   3.258   7.216 -0.1876  0.2555 -0.2888
   92CHL1    C6 9223   1.556   3.338   7.326  0.2845 -0.1766  0.0851
   92CHL1    H6 9224   1.515   3.439   7.313 -0.0446 -0.3530 -0.2925
   92CHL1    C7 9225   1.587   3.302   7.468 -0.2659  0.5604  0.0233
   92CHL1   H7A 9226   1.634   3.383   7.528 -1.7234  1.2522  0.2895
   92CHL1   H7B 9227   1.499   3.265   7.526  0.5233  1.9877  2.2577
   92CHL1    C8 9228   1.683   3.180   7.464  0.0641  0.2536 -0.3350
   92CHL1    H8 9229   1.789   3.208   7.444  0.4141 -1.0895 -0.4854
   92CHL1   C14 9230   1.687   3.118   7.605  0.4268 -0.8989  0.0454
   92CHL1   H14 9231   1.585   3.076   7.610  0.2468 -0.4321  0.4203
   92CHL1   C15 9232   1.703   3.213   7.730  1.1726 -0.0890  0.3625
   92CHL1  H15A 9233   1.765   3.299   7.697  1.3482 -0.8741 -1.4810
   92CHL1  H15B 9234   1.599   3.238   7.762  0.8487 -1.1206  0.1716
   92CHL1   C16 9235   1.762   3.131   7.840  0.1643 -0.0389 -0.5849
   92CHL1  H16A 9236   1.864   3.175   7.847 -0.3386  1.0752 -0.0603
   92CHL1  H16B 9237   1.695   3.145   7.928  0.3214 -2.8316  0.0824
   92CHL1   C17 9238   1.762   2.985   7.786  0.0828  0.3461  0.1189
   92CHL1   H17 9239   1.653   2.966   7.800 -0.0066  0.6746 -0.1018
   92CHL1   C13 9240   1.782   3.003   7.630 -0.3638  0.3685 -0.8549
   92CHL1   C18 9241   1.927   3.054   7.600  0.3581  1.1425 -0.1228
   92CHL1  H18A 9242   1.969   3.140   7.657 -0.5315  0.6385  1.3681
   92CHL1  H18B 9243   1.996   2.967   7.607 -0.3131  0.6824  1.3170
   92CHL1  H18C 9244   1.938   3.086   7.495 -1.9263  0.6459 -0.5587
   92CHL1   C12 9245   1.730   2.889   7.543 -0.0204 -0.0534  0.2030
   92CHL1  H12A 9246   1.794   2.798   7.540  0.6537  0.4254 -1.5277
   92CHL1  H12B 9247   1.626   2.867   7.574 -0.1298 -0.0573 -0.1579
   92CHL1   C11 9248   1.717   2.934   7.392 -0.0923 -0.1467 -0.2299
   92CHL1  H11A 9249   1.823   2.951   7.363  0.1952  1.9154  1.7996
   92CHL1  H11B 9250   1.688   2.854   7.320  0.2517 -1.1828  0.7754
   92CHL1    C9 9251   1.636   3.073   7.365  0.4149  0.2244 -0.4451
   92CHL1    H9 9252   1.530   3.059   7.394  0.2959 -0.2883 -1.1063
   92CHL1   C10 9253   1.632   3.118   7.222 -0.4223 -0.4770 -0.2341
   92CHL1   C19 9254   1.776   3.124   7.155 -0.0409 -0.6826 -0.7907
   92CHL1  H19A 9255   1.781   3.144   7.046  0.4750  0.1546 -0.6261
   92CHL1  H19B 9256   1.827   3.207   7.210 -1.2879 -1.3781  1.5637
   92CHL1  H19C 9257   1.835   3.032   7.175  1.9330  0.9155  1.4190
   92CHL1    C1 9258   1.546   3.030   7.129  0.7589 -0.0636  0.3189
   92CHL1   H1A 9259   1.602   2.937   7.108  0.5553  0.1340 -1.1703
   92CHL1   H1B 9260   1.458   2.993   7.186  2.4323 -4.4498  0.4166
   92CHL1    C2 9261   1.509   3.084   6.983 -0.1133 -0.3478  0.4333
   92CHL1   H2A 9262   1.430   3.023   6.934  1.1170 -0.0178 -2.0999
   92CHL1   H2B 9263   1.600   3.081   6.920  0.1819  0.0408  0.8322
   92CHL1   C20 9264   1.843   2.880   7.866  0.7439 -0.0603  0.1647
   92CHL1   H20 9265   1.942   2.867   7.816  1.3921 -0.9768  1.6164
   92CHL1   C21 9266   1.778   2.739   7.850  0.1212 -0.1162 -0.0104
   92CHL1  H21A 9267   1.671   2.747   7.877  0.5435 -0.4042  1.9202
   92CHL1  H21B 9268   1.821   2.665   7.921 -0.7460 -1.1020 -0.4908
   92CHL1  H21C 9269   1.788   2.706   7.744 -2.0293 -1.2464  0.0864
   92CHL1   C22 9270   1.861   2.911   8.023  0.1301 -0.1873 -0.6325
   92CHL1  H22A 9271   1.778   2.976   8.057 -0.5068 -0.7030 -1.1880
   92CHL1  H22B 9272   1.856   2.816   8.081 -2.0180 -0.3701 -1.0376
   92CHL1   C23 9273   1.991   2.983   8.048  0.3316  0.6206  1.0076
   92CHL1  H23A 9274   2.076   2.923   8.008 -0.1364 -0.8782  2.1478
   92CHL1  H23B 9275   1.995   3.082   7.998 -0.9613  0.4598  0.5412
   92CHL1   C24 9276   2.017   3.011   8.195 -0.3385 -0.3869 -0.4458
   92CHL1  H24A 9277   2.032   2.925   8.262 -0.6888 -1.5976 -1.8690
   92CHL1  H24B 9278   2.110   3.069   8.209  0.9059 -1.9439 -1.8535
   92CHL1   C25 9279   1.908   3.102   8.262  0.1271 -0.1224 -1.0356
   92CHL1   H25 9280   1.811   3.049   8.264  0.7326 -1.3776 -2.5754
   92CHL1   C26 9281   1.949   3.115   8.420 -0.3869 -0.5611  0.8837
   92CHL1  H26A 9282   2.045   3.172   8.425 -1.5146  1.3628  1.9493
   92CHL1  H26B 9283   1.883   3.185   8.476 -0.5156 -0.7582  0.9807
   92CHL1  H26C 9284   1.961   3.013   8.462  2.3522 -0.6298  0.1261
   92CHL1   C27 9285   1.900   3.244   8.207  0.1575 -0.6064  0.8998
   92CHL1  H27A 9286   1.909   3.254   8.096 -0.0835  1.4903  1.0276
   92CHL1  H27B 9287   1.798   3.287   8.213  0.2822  0.0503 -0.9086
   92CHL1  H27C 9288   1.979   3.312   8.246 -0.3266 -0.6548  2.0076
   93CHL1    C3 9289   0.636   1.438   6.904  0.3302 -0.1018  0.0865
   93CHL1    H3 9290   0.595   1.540   6.922 -2.2760 -0.8809 -1.0269
   93CHL1    O3 9291   0.640   1.430   6.765  0.6252 -0.1111  0.0803
   93CHL1   H3' 9292   0.672   1.341   6.744  2.4465  0.2407  1.1416
   93CHL1    C4 9293   0.774   1.414   6.966  0.2903  0.4957 -0.2830
   93CHL1   H4A 9294   0.812   1.324   6.912  2.3622  0.8633  0.4559
   93CHL1   H4B 9295   0.846   1.494   6.938  0.5855  0.1994 -0.3804
   93CHL1    C5 9296   0.764   1.380   7.114 -0.1168 -1.1009 -0.6459
   93CHL1    C6 9297   0.828   1.457   7.200 -0.5726  0.1592 -0.3787
   93CHL1    H6 9298   0.883   1.544   7.161 -0.0926 -0.7868 -1.8818
   93CHL1    C7 9299   0.830   1.434   7.345  0.2590 -0.3970 -0.2167
   93CHL1   H7A 9300   0.929   1.435   7.394  1.2851 -0.2651 -2.1923
   93CHL1   H7B 9301   0.779   1.520   7.394  0.7900 -0.0321 -0.2985
   93CHL1    C8 9302   0.774   1.292   7.386  0.6093 -0.2847  0.4023
   93CHL1    H8 9303   0.859   1.223   7.367  0.1772 -0.6775 -0.1042
   93CHL1   C14 9304   0.734   1.284   7.532  0.3514 -0.4710 -0.3010
   93CHL1   H14 9305   0.648   1.353   7.547  1.7269  0.9097  1.8034
   93CHL1   C15 9306   0.836   1.326   7.647 -0.1196  0.2030  0.3710
   93CHL1  H15A 9307   0.943   1.315   7.618  0.1936  0.4378  1.3907
   93CHL1  H15B 9308   0.837   1.436   7.666 -1.5684  0.1877  0.6361
   93CHL1   C16 9309   0.791   1.251   7.773  0.1325 -0.0549  0.3749
   93CHL1  H16A 9310   0.858   1.170   7.808 -2.3626 -2.6729 -0.4773
   93CHL1  H16B 9311   0.781   1.321   7.859 -3.1319 -0.3282  0.3733
   93CHL1   C17 9312   0.653   1.183   7.736  0.3446  0.4470  0.1464
   93CHL1   H17 9313   0.576   1.264   7.742  0.4878  0.5982 -0.0350
   93CHL1   C13 9314   0.672   1.153   7.585 -0.1815 -0.1258  0.3194
   93CHL1   C18 9315   0.780   1.038   7.563  0.5547 -0.7063  0.3619
   93CHL1  H18A 9316   0.738   0.940   7.595  0.7617 -1.1539 -0.6815
   93CHL1  H18B 9317   0.799   1.016   7.456  1.1378  0.8736  0.1212
   93CHL1  H18C 9318   0.871   1.052   7.625 -1.4339  1.8150  2.9603
   93CHL1   C12 9319   0.551   1.123   7.502  0.9590  0.0850  0.0804
   93CHL1  H12A 9320   0.513   1.019   7.516  0.3184  0.0964 -1.3944
   93CHL1  H12B 9321   0.478   1.205   7.517 -1.7602 -1.9778 -0.9629
   93CHL1   C11 9322   0.581   1.129   7.352  0.1678 -0.1773 -0.5307
   93CHL1  H11A 9323   0.636   1.037   7.324  2.4483  0.9718 -0.0643
   93CHL1  H11B 9324   0.484   1.107   7.304 -0.5467  0.6465  0.4907
   93CHL1    C9 9325   0.651   1.258   7.304  0.4817  0.1989  0.3989
   93CHL1    H9 9326   0.577   1.336   7.331  0.4113  1.1362 -2.2543
   93CHL1   C10 9327   0.668   1.270   7.154  0.7708 -0.7157  0.4041
   93CHL1   C19 9328   0.719   1.136   7.097 -0.0410 -0.0854  0.0174
   93CHL1  H19A 9329   0.708   1.128   6.987 -1.9283 -0.4853  0.1961
   93CHL1  H19B 9330   0.825   1.119   7.125  0.2491 -0.3429 -1.1701
   93CHL1  H19C 9331   0.649   1.052   7.114 -0.3738 -0.2256 -1.8076
   93CHL1    C1 9332   0.527   1.297   7.093 -0.0385  0.1903  0.0724
   93CHL1   H1A 9333   0.465   1.206   7.104  0.6161 -0.4297 -1.1832
   93CHL1   H1B 9334   0.463   1.373   7.142 -1.0355  0.2974 -1.3460
   93CHL1    C2 9335   0.535   1.327   6.942 -0.5819 -0.5240  0.3175
   93CHL1   H2A 9336   0.434   1.348   6.900 -0.4038 -2.2986 -1.1430
   93CHL1   H2B 9337   0.571   1.230   6.901  0.0233 -0.3322  0.3750
   93CHL1   C20 9338   0.603   1.066   7.832  0.1786 -0.4293  0.1762
   93CHL1   H20 9339   0.667   0.977   7.814  0.6438 -0.6444  2.5312
   93CHL1   C21 9340   0.453   1.014   7.793 -0.4139 -0.0919  0.5292
   93CHL1  H21A 9341   0.396   1.107   7.775  1.5622  0.6727 -2.6848
   93CHL1  H21B 9342   0.409   0.948   7.871  0.2986 -0.8888  0.2690
   93CHL1  H21C 9343   0.456   0.962   7.695 -0.8668  1.5983 -0.4148
   93CHL1   C22 9344   0.623   1.102   7.977 -0.1251  0.0336 -0.0470
   93CHL1  H22A 9345   0.726   1.138   7.996  0.1007 -0.5921 -0.0522
   93CHL1  H22B 9346   0.555   1.182   8.014 -0.3305 -0.0066 -0.3416
   93CHL1   C23 9347   0.590   0.981   8.072  0.8035  1.1151  0.2322
   93CHL1  H23A 9348   0.493   0.932   8.047  1.8865 -1.0331 -0.0329
   93CHL1  H23B 9349   0.676   0.911   8.063  0.2576  0.5934 -1.1958
   93CHL1   C24 9350   0.573   1.015   8.221 -0.0048 -0.3499  0.0236
   93CHL1  H24A 9351   0.497   1.087   8.258  3.0166  3.0878  0.2385
   93CHL1  H24B 9352   0.543   0.916   8.261  0.9010 -1.1990 -1.2936
   93CHL1   C25 9353   0.705   1.041   8.292 -0.4164  0.0216 -0.2514
   93CHL1   H25 9354   0.789   1.000   8.231  0.5780 -1.4722  1.9900
   93CHL1   C26 9355   0.724   1.200   8.288  0.1190 -0.4096  0.0192
   93CHL1  H26A 9356   0.660   1.249   8.364 -2.8079 -0.8723 -2.0104
   93CHL1  H26B 9357   0.828   1.218   8.323  0.2161 -2.2049  0.7452
   93CHL1  H26C 9358   0.709   1.245   8.188  0.8705  0.6271  0.3453
   93CHL1   C27 9359   0.713   0.985   8.437 -0.8924 -0.6086  0.1619
   93CHL1  H27A 9360   0.709   0.874   8.436 -2.9301 -0.5830 -0.8707
   93CHL1  H27B 9361   0.816   1.001   8.474 -1.3360 -2.6886  2.6048
   93CHL1  H27C 9362   0.631   1.032   8.496 -2.7312 -0.9515 -1.9634
   94CHL1    C3 9363   3.347   3.575   6.846 -0.5383 -0.6170  0.5511
   94CHL1    H3 9364   3.449   3.531   6.851 -0.8446 -1.1985  2.4411
   94CHL1    O3 9365   3.299   3.549   6.714  0.6262 -0.5258 -0.7496
   94CHL1   H3' 9366   3.205   3.567   6.718  0.3100 -1.8451 -1.6283
   94CHL1    C4 9367   3.250   3.504   6.935  0.2191 -0.0242 -0.3007
   94CHL1   H4A 9368   3.144   3.527   6.909  0.7611 -0.3374 -3.1768
   94CHL1   H4B 9369   3.259   3.393   6.923  2.5003 -0.0517  1.1400
   94CHL1    C5 9370   3.277   3.527   7.080  0.0900  0.0620  0.1458
   94CHL1    C6 9371   3.308   3.427   7.167 -0.4156  0.1259  0.3473
   94CHL1    H6 9372   3.297   3.325   7.126  1.5801 -0.7297  1.7977
   94CHL1    C7 9373   3.350   3.442   7.309  0.8510  0.7624 -1.0173
   94CHL1   H7A 9374   3.308   3.361   7.373  0.5796  2.0633  0.4944
   94CHL1   H7B 9375   3.456   3.409   7.305  0.0066 -2.6115  0.3458
   94CHL1    C8 9376   3.314   3.579   7.361 -0.3674  0.6912  0.0815
   94CHL1    H8 9377   3.205   3.589   7.380 -0.8284 -1.8979 -0.7261
   94CHL1   C14 9378   3.395   3.594   7.495  0.4619 -0.4554 -0.4006
   94CHL1   H14 9379   3.501   3.610   7.466  0.1585  0.7775 -0.8957
   94CHL1   C15 9380   3.376   3.487   7.598 -0.0252 -0.1534 -0.6105
   94CHL1  H15A 9381   3.275   3.441   7.603 -0.1488  0.1570 -0.1369
   94CHL1  H15B 9382   3.452   3.409   7.575  0.2036  0.6341 -2.7161
   94CHL1   C16 9383   3.403   3.551   7.735 -0.0075  0.5874 -0.4867
   94CHL1  H16A 9384   3.324   3.532   7.810 -0.8770  1.8189 -1.0565
   94CHL1  H16B 9385   3.500   3.519   7.779  0.5363  0.9306 -1.3911
   94CHL1   C17 9386   3.420   3.704   7.705 -0.3909 -0.1193  0.1588
   94CHL1   H17 9387   3.529   3.724   7.692 -0.4731  0.7497  0.7132
   94CHL1   C13 9388   3.351   3.725   7.571 -0.8220 -0.4726 -0.4558
   94CHL1   C18 9389   3.198   3.734   7.600 -0.1773 -0.6784  0.0968
   94CHL1  H18A 9390   3.124   3.729   7.517 -1.6059  0.6775  1.2383
   94CHL1  H18B 9391   3.167   3.658   7.675 -3.2863  0.1692 -0.1947
   94CHL1  H18C 9392   3.184   3.832   7.649  0.2297  0.2441 -1.5600
   94CHL1   C12 9393   3.401   3.845   7.487 -0.5170  0.4384 -0.5271
   94CHL1  H12A 9394   3.369   3.939   7.538 -0.9999  0.7368 -1.3538
   94CHL1  H12B 9395   3.511   3.836   7.483 -0.3975  0.8957  1.0424
   94CHL1   C11 9396   3.348   3.839   7.338 -0.4901  0.8782  0.2032
   94CHL1  H11A 9397   3.242   3.868   7.353 -0.8844 -1.2066  1.8359
   94CHL1  H11B 9398   3.404   3.912   7.276  0.3002  0.0218 -0.1088
   94CHL1    C9 9399   3.361   3.694   7.271  0.5892  0.6833  0.1999
   94CHL1    H9 9400   3.469   3.672   7.256  0.3080 -1.3078  0.9162
   94CHL1   C10 9401   3.303   3.677   7.122 -0.4099 -0.1720 -1.2315
   94CHL1   C19 9402   3.163   3.749   7.127 -0.0480 -0.0151 -0.5810
   94CHL1  H19A 9403   3.164   3.850   7.173 -0.9656 -0.1310 -0.3051
   94CHL1  H19B 9404   3.105   3.761   7.033 -0.9867  0.3395  0.0345
   94CHL1  H19C 9405   3.095   3.697   7.197  0.0723  1.5026  0.7113
   94CHL1    C1 9406   3.394   3.753   7.027 -0.0665  0.4117  0.0376
   94CHL1   H1A 9407   3.392   3.863   7.041  1.0670  0.6057 -1.1474
   94CHL1   H1B 9408   3.500   3.718   7.033 -0.8245 -2.3801 -1.2997
   94CHL1    C2 9409   3.355   3.723   6.877 -0.6853 -0.4095 -0.1634
   94CHL1   H2A 9410   3.430   3.778   6.816  0.3799 -1.6488 -0.0246
   94CHL1   H2B 9411   3.253   3.764   6.856 -1.0357 -1.1822  0.0042
   94CHL1   C20 9412   3.396   3.792   7.831 -0.2446 -0.6006 -0.5408
   94CHL1   H20 9413   3.285   3.789   7.840 -0.5358  1.7223 -2.2650
   94CHL1   C21 9414   3.437   3.938   7.824 -0.3861 -0.9801  0.2155
   94CHL1  H21A 9415   3.341   3.988   7.800 -0.1555 -1.9477 -3.2571
   94CHL1  H21B 9416   3.513   3.949   7.743 -0.2767 -2.4552  0.1030
   94CHL1  H21C 9417   3.472   3.978   7.922  0.6158 -3.9552  1.1722
   94CHL1   C22 9418   3.459   3.737   7.961 -0.7284 -0.6656 -0.4847
   94CHL1  H22A 9419   3.433   3.813   8.038  3.6719  0.6675 -0.0449
   94CHL1  H22B 9420   3.426   3.635   7.989 -2.1057 -0.4449 -1.2142
   94CHL1   C23 9421   3.609   3.741   7.963  0.4262  0.2189 -0.5329
   94CHL1  H23A 9422   3.658   3.697   7.874 -0.1921 -1.9364  0.1316
   94CHL1  H23B 9423   3.651   3.844   7.960  1.0668 -0.0662 -1.6223
   94CHL1   C24 9424   3.663   3.657   8.078  0.2064 -0.2467 -0.0183
   94CHL1  H24A 9425   3.663   3.549   8.049  2.8072 -0.2108 -0.4365
   94CHL1  H24B 9426   3.773   3.674   8.071  0.7700 -2.4221  2.0029
   94CHL1   C25 9427   3.611   3.692   8.220 -0.3506  0.8055 -0.1906
   94CHL1   H25 9428   3.502   3.667   8.223  0.1371 -1.4913  2.5257
   94CHL1   C26 9429   3.692   3.604   8.309 -0.3328  0.5330 -0.3204
   94CHL1  H26A 9430   3.652   3.600   8.412 -2.7051 -1.3658 -1.2204
   94CHL1  H26B 9431   3.691   3.499   8.272 -0.2092  0.8766 -1.3387
   94CHL1  H26C 9432   3.798   3.638   8.308  0.5825 -1.9828  0.6491
   94CHL1   C27 9433   3.627   3.840   8.254  0.0796 -0.0589  0.0581
   94CHL1  H27A 9434   3.737   3.852   8.246  0.0609 -0.9537 -3.3055
   94CHL1  H27B 9435   3.576   3.901   8.176 -0.1914 -1.1419 -0.6429
   94CHL1  H27C 9436   3.573   3.863   8.348  0.1110  0.4475 -0.0471
   95CHL1    C3 9437   3.979   3.545   6.607 -0.4989 -0.4587  0.1296
   95CHL1    H3 9438   4.065   3.612   6.630  0.7384 -2.0179  0.2265
   95CHL1    O3 9439   3.974   3.550   6.464 -0.5263  0.3751 -0.0652
   95CHL1   H3' 9440   3.965   3.642   6.437  0.0414  0.6914  0.7753
   95CHL1    C4 9441   3.985   3.404   6.665  0.2140  0.0858  0.2205
   95CHL1   H4A 9442   3.892   3.349   6.638  0.6603 -0.6406  0.1057
   95CHL1   H4B 9443   4.075   3.355   6.620  0.1864 -0.5730  0.8758
   95CHL1    C5 9444   4.000   3.406   6.814 -0.5857  0.3213 -0.8290
   95CHL1    C6 9445   4.100   3.343   6.872  0.1707 -0.4191 -0.4819
   95CHL1    H6 9446   4.181   3.299   6.812  1.7999  0.4510  1.0109
   95CHL1    C7 9447   4.113   3.317   7.018 -0.4522  0.6586  0.0172
   95CHL1   H7A 9448   4.152   3.214   7.032  2.6962  1.8120  0.3347
   95CHL1   H7B 9449   4.193   3.382   7.059 -1.2128  0.9041  1.1674
   95CHL1    C8 9450   3.986   3.350   7.095 -1.0815  0.1092 -0.1645
   95CHL1    H8 9451   3.924   3.259   7.079  1.8163 -2.1537  0.6458
   95CHL1   C14 9452   4.018   3.371   7.238  0.6745 -0.4409 -1.1948
   95CHL1   H14 9453   4.085   3.459   7.241 -0.9460  0.7917  0.9821
   95CHL1   C15 9454   4.103   3.264   7.315 -0.7357  0.2886  0.0111
   95CHL1  H15A 9455   4.076   3.160   7.286 -2.1153  0.6744 -0.1620
   95CHL1  H15B 9456   4.212   3.281   7.310 -0.7836  0.3818 -0.8836
   95CHL1   C16 9457   4.063   3.275   7.461 -0.9407 -0.5395  0.1656
   95CHL1  H16A 9458   4.019   3.176   7.485  0.1338 -1.7488 -2.4315
   95CHL1  H16B 9459   4.152   3.295   7.525 -1.0983  0.3333  0.1205
   95CHL1   C17 9460   3.960   3.386   7.466  0.0903  0.2979 -0.8370
   95CHL1   H17 9461   4.011   3.485   7.468  0.2551  0.3560 -3.4264
   95CHL1   C13 9462   3.894   3.394   7.329 -0.1366  0.2854  0.0091
   95CHL1   C18 9463   3.792   3.280   7.307  0.3674 -1.1309 -0.2826
   95CHL1  H18A 9464   3.745   3.270   7.207  2.3237 -1.0303 -1.2563
   95CHL1  H18B 9465   3.845   3.185   7.330  0.5417 -0.5582  1.8796
   95CHL1  H18C 9466   3.709   3.291   7.380 -1.0754 -1.1247 -1.8555
   95CHL1   C12 9467   3.843   3.531   7.291  0.1316  0.6428 -0.2498
   95CHL1  H12A 9468   3.754   3.574   7.341 -1.2364  1.5894 -3.2307
   95CHL1  H12B 9469   3.923   3.608   7.302 -0.5849  1.3037  0.4720
   95CHL1   C11 9470   3.800   3.536   7.145 -0.3739 -0.2636 -0.1385
   95CHL1  H11A 9471   3.703   3.486   7.124  0.0142 -0.4869 -1.5002
   95CHL1  H11B 9472   3.801   3.645   7.122 -0.3785  0.0932  1.4571
   95CHL1    C9 9473   3.909   3.478   7.048 -0.4110  0.3998 -0.1982
   95CHL1    H9 9474   3.999   3.544   7.056  0.7468 -0.9362 -1.5222
   95CHL1   C10 9475   3.886   3.470   6.891  0.6812 -0.4301  0.3653
   95CHL1   C19 9476   3.749   3.395   6.876  0.1949  0.0693 -0.7505
   95CHL1  H19A 9477   3.661   3.453   6.910  0.1803  0.4094 -1.3510
   95CHL1  H19B 9478   3.726   3.383   6.768 -1.1360  0.1068 -0.4863
   95CHL1  H19C 9479   3.758   3.291   6.913 -0.7468 -0.6160 -2.3796
   95CHL1    C1 9480   3.864   3.615   6.832 -0.2691 -0.3579 -1.4894
   95CHL1   H1A 9481   3.779   3.669   6.877  1.0693 -1.7028  3.2254
   95CHL1   H1B 9482   3.948   3.681   6.862 -1.8843  2.0248 -1.9464
   95CHL1    C2 9483   3.858   3.618   6.676 -0.1111 -0.0890  0.1103
   95CHL1   H2A 9484   3.870   3.721   6.637 -0.7997 -0.9279 -2.5402
   95CHL1   H2B 9485   3.762   3.575   6.638 -0.8818  1.1993  0.5398
   95CHL1   C20 9486   3.878   3.366   7.597  0.3528  0.4338  0.7021
   95CHL1   H20 9487   3.854   3.258   7.614  0.8976  0.6552  3.3400
   95CHL1   C21 9488   3.753   3.453   7.594  0.7716 -1.2152  0.2712
   95CHL1  H21A 9489   3.689   3.432   7.506  1.1725 -1.7274  0.0957
   95CHL1  H21B 9490   3.774   3.562   7.602 -0.7720 -0.8573 -0.1326
   95CHL1  H21C 9491   3.695   3.428   7.685 -1.0960  1.7266  0.0347
   95CHL1   C22 9492   3.959   3.405   7.717  0.1898  0.6963 -0.5795
   95CHL1  H22A 9493   4.055   3.348   7.714 -1.8645 -3.3613  2.0002
   95CHL1  H22B 9494   3.991   3.510   7.704  2.9468  0.1628  1.0152
   95CHL1   C23 9495   3.903   3.377   7.860  0.1466  0.5448  0.7444
   95CHL1  H23A 9496   3.812   3.441   7.869 -1.3736 -1.3363 -0.4496
   95CHL1  H23B 9497   3.866   3.272   7.863 -0.7761  0.8724  1.0986
   95CHL1   C24 9498   4.004   3.398   7.975 -0.5818 -0.5604  0.1340
   95CHL1  H24A 9499   4.085   3.322   7.978  0.2786  0.3557  0.9037
   95CHL1  H24B 9500   4.047   3.501   7.971 -1.3637 -0.2209  0.2002
   95CHL1   C25 9501   3.954   3.400   8.120  0.0592 -0.0584  0.3610
   95CHL1   H25 9502   3.880   3.482   8.129  0.0464 -0.2693  2.9150
   95CHL1   C26 9503   3.880   3.272   8.147  0.8524  0.1584 -0.1955
   95CHL1  H26A 9504   3.832   3.274   8.247 -1.8101 -2.4271 -1.2823
   95CHL1  H26B 9505   3.799   3.253   8.074  0.5137  1.3047 -0.1471
   95CHL1  H26C 9506   3.956   3.191   8.145  1.1345  0.3848  0.6257
   95CHL1   C27 9507   4.060   3.432   8.221 -0.1389  0.3363 -0.8884
   95CHL1  H27A 9508   4.099   3.535   8.204  0.4181 -0.3921 -4.9967
   95CHL1  H27B 9509   4.016   3.425   8.323 -0.2644 -1.1363 -1.0276
   95CHL1  H27C 9510   4.149   3.367   8.211  0.2838  0.1956  2.5642
   96CHL1    C3 9511   4.547   2.923   6.593  0.0018 -0.3275 -0.8788
   96CHL1    H3 9512   4.441   2.895   6.613  0.0705 -0.1749 -0.2649
   96CHL1    O3 9513   4.577   2.908   6.461  0.3488  0.3590  0.3618
   96CHL1   H3' 9514   4.520   2.835   6.437  0.1984  1.0511 -1.6060
   96CHL1    C4 9515   4.566   3.074   6.635 -0.2749  0.4802  1.2709
   96CHL1   H4A 9516   4.667   3.103   6.600 -0.1360 -2.0510 -0.6463
   96CHL1   H4B 9517   4.487   3.132   6.582  1.4115  1.3819 -0.3732
   96CHL1    C5 9518   4.555   3.102   6.781 -0.3725 -0.1849  0.4484
   96CHL1    C6 9519   4.461   3.178   6.824  1.0729 -0.3876 -0.0587
   96CHL1    H6 9520   4.391   3.222   6.751  1.2624 -1.7580 -1.1149
   96CHL1    C7 9521   4.453   3.218   6.969 -0.1636 -0.5065 -0.2057
   96CHL1   H7A 9522   4.439   3.328   6.966  2.9934 -0.0447 -1.5625
   96CHL1   H7B 9523   4.364   3.173   7.019  0.4176  2.2142  3.7275
   96CHL1    C8 9524   4.582   3.182   7.044  0.2240  0.8385  0.4154
   96CHL1    H8 9525   4.664   3.252   7.015  0.0336 -0.0524 -2.5887
   96CHL1   C14 9526   4.552   3.192   7.196 -0.1406  0.4035  0.5569
   96CHL1   H14 9527   4.477   3.116   7.226 -1.7368  0.9297 -1.8235
   96CHL1   C15 9528   4.508   3.330   7.250 -0.8311  0.8791  0.6260
   96CHL1  H15A 9529   4.591   3.404   7.239 -1.1601  1.2254  0.4260
   96CHL1  H15B 9530   4.417   3.355   7.192 -0.5931 -2.8272 -1.6746
   96CHL1   C16 9531   4.500   3.310   7.404  0.5175 -0.1850  0.0332
   96CHL1  H16A 9532   4.538   3.406   7.445  0.8320 -0.7336  1.0556
   96CHL1  H16B 9533   4.401   3.277   7.441  0.2323 -1.9323 -2.1010
   96CHL1   C17 9534   4.592   3.180   7.428  0.4270 -0.4811 -0.3334
   96CHL1   H17 9535   4.527   3.094   7.453  0.4596 -0.0643  1.3061
   96CHL1   C13 9536   4.662   3.149   7.290 -0.0493  0.1203  0.3600
   96CHL1   C18 9537   4.795   3.229   7.270  0.2871  0.7789 -0.2500
   96CHL1  H18A 9538   4.891   3.192   7.310  0.9837  1.6841 -1.0216
   96CHL1  H18B 9539   4.819   3.256   7.164 -1.0031  2.1595 -0.2254
   96CHL1  H18C 9540   4.770   3.317   7.332  0.1742  0.4800  0.1291
   96CHL1   C12 9541   4.692   3.000   7.267 -0.6243  0.8288  0.7532
   96CHL1  H12A 9542   4.777   2.965   7.329 -1.5561 -1.3761  0.8648
   96CHL1  H12B 9543   4.607   2.931   7.283  0.7971 -1.0361  0.6256
   96CHL1   C11 9544   4.729   2.984   7.112 -0.3609 -0.2991 -0.5806
   96CHL1  H11A 9545   4.828   3.034   7.107 -0.8806  0.8682  0.2678
   96CHL1  H11B 9546   4.742   2.875   7.094 -1.5064 -0.4095 -0.8762
   96CHL1    C9 9547   4.621   3.034   7.011 -0.6113 -0.8054  0.6969
   96CHL1    H9 9548   4.534   2.967   7.033  0.1359 -1.9882  0.1890
   96CHL1   C10 9549   4.647   3.017   6.864 -0.6490  0.3255 -0.0654
   96CHL1   C19 9550   4.803   3.043   6.844  0.7012 -0.3746 -0.0645
   96CHL1  H19A 9551   4.826   3.035   6.735  1.8786  1.0204  0.0447
   96CHL1  H19B 9552   4.825   3.149   6.871  2.0212 -1.0436  1.6960
   96CHL1  H19C 9553   4.863   2.977   6.910  0.0320  1.5977  2.6990
   96CHL1    C1 9554   4.619   2.873   6.821  0.1523  0.0557  0.5157
   96CHL1   H1A 9555   4.685   2.808   6.882 -0.3607  0.0981  1.1245
   96CHL1   H1B 9556   4.513   2.861   6.851  0.2870  0.5645  1.2132
   96CHL1    C2 9557   4.633   2.829   6.670 -0.4116  0.4960  0.5056
   96CHL1   H2A 9558   4.607   2.721   6.657  1.0579 -0.1204  2.2631
   96CHL1   H2B 9559   4.739   2.839   6.637  0.0599 -0.9176  1.4712
   96CHL1   C20 9560   4.675   3.194   7.557 -0.2503  0.3833 -0.2864
   96CHL1   H20 9561   4.754   3.269   7.536 -0.7753  1.7086  2.1539
   96CHL1   C21 9562   4.742   3.062   7.588  0.1859  0.1700 -0.3046
   96CHL1  H21A 9563   4.800   3.059   7.683 -2.3940 -1.0591  1.3523
   96CHL1  H21B 9564   4.819   3.049   7.509 -0.1540  0.9220 -0.7692
   96CHL1  H21C 9565   4.667   2.980   7.588  1.3353 -1.1922  4.4090
   96CHL1   C22 9566   4.603   3.255   7.685  0.7067 -0.7016 -0.2489
   96CHL1  H22A 9567   4.684   3.244   7.760 -0.1804  1.3665  1.0882
   96CHL1  H22B 9568   4.583   3.364   7.670 -2.0459 -0.7622  2.3085
   96CHL1   C23 9569   4.474   3.182   7.716  0.4041 -0.2104 -0.4112
   96CHL1  H23A 9570   4.394   3.182   7.639 -2.5271  0.6457  2.4016
   96CHL1  H23B 9571   4.494   3.076   7.746  0.5563 -0.0837 -0.0578
   96CHL1   C24 9572   4.398   3.232   7.848  0.5533  0.0186  0.7140
   96CHL1  H24A 9573   4.349   3.329   7.823 -2.0863 -1.6225 -0.9414
   96CHL1  H24B 9574   4.322   3.152   7.865 -1.0513  1.2137 -0.5373
   96CHL1   C25 9575   4.482   3.250   7.974  0.7475 -0.3888  0.1446
   96CHL1   H25 9576   4.557   3.331   7.961  1.1916 -0.8785 -0.4420
   96CHL1   C26 9577   4.390   3.291   8.096 -0.6604  0.3481  0.5427
   96CHL1  H26A 9578   4.430   3.326   8.194 -1.8866 -1.8227  1.9027
   96CHL1  H26B 9579   4.316   3.364   8.059 -2.2735  0.3211  3.3919
   96CHL1  H26C 9580   4.340   3.195   8.118 -2.6008  1.5646  1.7509
   96CHL1   C27 9581   4.563   3.120   8.010  0.5411 -0.4366  0.3491
   96CHL1  H27A 9582   4.636   3.130   8.094  0.6675  0.9019  0.1072
   96CHL1  H27B 9583   4.494   3.033   8.014 -1.6348  1.1777 -0.1827
   96CHL1  H27C 9584   4.621   3.099   7.917 -1.5235  1.8876 -1.6227
   97OSM      N 9585   1.094   2.858  11.261 -0.4525  0.1848  1.2517
   97OSM    C15 9586   1.064   2.875  11.118  0.7208 -0.5238  0.4636
   97OSM   H15A 9587   1.077   2.785  11.061  0.9880 -0.2841  0.1375
   97OSM   H15B 9588   1.136   2.943  11.075  2.8243 -3.6800 -1.3689
   97OSM   H15C 9589   0.962   2.908  11.100 -0.4174 -3.0035  1.9159
   97OSM    C14 9590   1.062   2.983  11.341  0.3814 -0.4614 -0.9003
   97OSM   H14A 9591   1.121   3.062  11.296 -0.4525 -0.4639 -2.0430
   97OSM   H14B 9592   1.092   2.973  11.444 -0.3972 -0.2710 -0.6492
   97OSM   H14C 9593   0.956   3.002  11.334  0.4769  1.0507  0.8131
   97OSM    C13 9594   0.992   2.762  11.319 -0.3000 -0.4151  0.2102
   97OSM   H13A 9595   0.905   2.822  11.339  1.3363  2.5131 -0.9198
   97OSM   H13B 9596   1.024   2.714  11.410  1.4538  0.0499 -0.1343
   97OSM   H13C 9597   0.964   2.688  11.244 -0.6778 -0.0318 -0.0266
   97OSM    C12 9598   1.245   2.812  11.266 -0.1852  0.2910  0.2897
   97OSM   H12A 9599   1.254   2.785  11.370 -1.2704  0.0911  0.3422
   97OSM   H12B 9600   1.303   2.899  11.240  0.5786  0.0741  1.2332
   97OSM    C11 9601   1.286   2.678  11.193  0.0631 -0.5269  0.8880
   97OSM   H11A 9602   1.213   2.597  11.212 -0.9459 -0.0372 -0.7734
   97OSM   H11B 9603   1.385   2.636  11.223  1.5794  0.5042 -2.1992
   97OSM      P 9604   1.390   2.785  10.978 -0.1507  0.0657 -0.2525
   97OSM    O13 9605   1.345   2.923  10.999  0.4048 -0.0438  0.9097
   97OSM    O14 9606   1.527   2.748  11.016  0.3383  0.4309 -0.4861
   97OSM    O11 9607   1.374   2.754  10.825 -0.1421  0.5685 -0.3815
   97OSM    O12 9608   1.285   2.693  11.054 -0.3950 -0.1240 -0.3696
   97OSM    C1S 9609   1.337   2.631  10.758 -0.3112 -0.0557 -0.1592
   97OSM    H1S 9610   1.227   2.637  10.744 -0.1577  1.9504 -0.8640
   97OSM    H1T 9611   1.359   2.543  10.822  0.9480  0.1453 -0.2917
   97OSM     NF 9612   1.324   2.575  10.522 -0.2722  0.0622 -0.8146
   97OSM    HNF 9613   1.327   2.476  10.504 -4.0102 -0.3264 -0.0600
   97OSM    C2S 9614   1.412   2.626  10.628  0.5599  0.2460  0.5826
   97OSM    H2S 9615   1.436   2.727  10.588 -0.8893 -0.7928 -3.4040
   97OSM    C3S 9616   1.544   2.553  10.642  0.0250  0.3399 -0.5254
   97OSM    H3S 9617   1.532   2.451  10.685 -0.1051 -0.3173 -2.0447
   97OSM     O3 9618   1.629   2.621  10.732  0.1479 -0.0045  0.4517
   97OSM    HO3 9619   1.572   2.683  10.778  0.3530 -0.0314  0.7438
   97OSM    C4S 9620   1.602   2.533  10.508 -0.3732  0.1545 -0.0978
   97OSM    H4S 9621   1.573   2.441  10.455 -1.4348  0.2558  0.2904
   97OSM    C5S 9622   1.680   2.615  10.437 -1.1244  0.6112 -0.3024
   97OSM    H5S 9623   1.699   2.717  10.476  0.8036  0.2091 -0.0645
   97OSM    C6S 9624   1.730   2.601  10.293  0.3140 -0.2712  0.4600
   97OSM    H6S 9625   1.821   2.538  10.286  1.4273  1.3911 -0.8989
   97OSM    H6T 9626   1.759   2.702  10.256  0.3111 -0.7361 -0.8791
   97OSM    C7S 9627   1.626   2.548  10.197  0.2590  1.1055 -0.3956
   97OSM    H7S 9628   1.546   2.626  10.199 -1.0097 -0.1471 -0.5151
   97OSM    H7T 9629   1.602   2.446  10.234 -0.0163  1.4567  0.4149
   97OSM    C8S 9630   1.687   2.532  10.061 -0.1716 -0.1271  0.4062
   97OSM    H8S 9631   1.742   2.436  10.064 -0.5635 -0.3632  0.1179
   97OSM    H8T 9632   1.758   2.616  10.039 -1.3706  0.4533 -1.4726
   97OSM    C9S 9633   1.577   2.532   9.956 -0.8872 -0.0681  0.2690
   97OSM    H9S 9634   1.532   2.634   9.952 -1.1377 -0.1910 -0.0553
   97OSM    H9T 9635   1.502   2.455   9.982  0.0214 -0.4884  1.7344
   97OSM   C10S 9636   1.639   2.493   9.816  0.2289 -0.0948 -0.2272
   97OSM   H10S 9637   1.673   2.388   9.822 -0.4845 -0.2993  0.4772
   97OSM   H10T 9638   1.735   2.547   9.803 -0.8245  2.6145  2.0396
   97OSM   C11S 9639   1.532   2.519   9.709  0.7022 -0.3843 -0.0361
   97OSM   H11S 9640   1.543   2.626   9.682 -0.7057 -0.0139  0.7577
   97OSM   H11T 9641   1.433   2.496   9.753 -0.3662  1.5396 -1.2974
   97OSM   C12S 9642   1.562   2.434   9.587  0.9932  0.4974 -0.2074
   97OSM   H12S 9643   1.597   2.334   9.618  0.7079 -0.9453 -3.9862
   97OSM   H12T 9644   1.646   2.477   9.528 -1.9936  2.4744 -3.4418
   97OSM   C13S 9645   1.433   2.413   9.503 -0.3810 -0.6417 -0.5105
   97OSM   H13S 9646   1.391   2.514   9.484  2.7520  1.3439  2.1380
   97OSM   H13T 9647   1.364   2.352   9.566 -0.3117 -0.8608 -0.6442
   97OSM   C14S 9648   1.445   2.348   9.367 -0.2797 -0.8624  0.8529
   97OSM   H14S 9649   1.341   2.330   9.332 -1.5661  0.9819  3.3801
   97OSM   H14T 9650   1.494   2.248   9.373  1.2005 -0.1143  1.6800
   97OSM   C15S 9651   1.541   2.441   9.276 -0.1110 -0.4436  0.5466
   97OSM   H15S 9652   1.648   2.439   9.308  0.7419  1.7212 -1.8187
   97OSM   H15T 9653   1.506   2.546   9.277  0.2855 -0.2317  3.8571
   97OSM   C16S 9654   1.537   2.391   9.131 -0.7355  0.4748  0.0893
   97OSM   H16S 9655   1.438   2.415   9.086 -0.0865 -0.1556 -1.7433
   97OSM   H16T 9656   1.549   2.281   9.133 -0.6768  0.3984 -2.4140
   97OSM   C17S 9657   1.646   2.451   9.042 -0.0936  0.6206  0.3048
   97OSM   H17S 9658   1.659   2.402   8.943 -1.9231  0.3945  0.1425
   97OSM   H17T 9659   1.742   2.453   9.098  0.5066 -0.7523 -0.5932
   97OSM   C18S 9660   1.617   2.595   8.999 -0.1488  0.2001  0.0610
   97OSM   H18S 9661   1.526   2.599   8.936  0.4833  1.3722 -0.8436
   97OSM   H18T 9662   1.707   2.632   8.945 -0.0438  1.8144  1.2879
   97OSM   H18U 9663   1.607   2.667   9.083 -0.7219 -2.1422  2.1180
   97OSM    C1F 9664   1.215   2.638  10.468 -1.2363 -0.3734  0.5607
   97OSM     OF 9665   1.201   2.758  10.488 -1.2056  0.6600  0.7079
   97OSM    C2F 9666   1.120   2.546  10.413  0.0689  0.2440 -0.6888
   97OSM    H2F 9667   1.051   2.518  10.496  0.8957  2.0555  0.6845
   97OSM    H2G 9668   1.174   2.452  10.391 -1.7299 -0.5795 -1.8071
   97OSM    C3F 9669   1.028   2.602  10.306 -0.0972  0.0515  0.2220
   97OSM    H3F 9670   0.962   2.671  10.361  0.0321  0.5984 -0.2905
   97OSM    H3G 9671   0.956   2.522  10.279 -1.6875  0.9437  1.6652
   97OSM    C4F 9672   1.104   2.652  10.182 -0.1093 -0.3300  0.8436
   97OSM    H4F 9673   1.186   2.583  10.151 -0.9407 -0.5973 -0.8506
   97OSM    H4G 9674   1.150   2.749  10.209  0.1607 -0.2950  0.2700
   97OSM    C5F 9675   1.009   2.686  10.064  0.2071  0.6535 -0.1267
   97OSM    H5F 9676   0.940   2.765  10.099 -0.7024  0.0476 -0.5133
   97OSM    H5G 9677   0.950   2.600  10.024 -0.0369  0.8195 -0.1221
   97OSM    C6F 9678   1.089   2.739   9.945  0.4452  0.3751  0.0973
   97OSM    H6F 9679   1.149   2.655   9.906 -0.7352 -0.4881  0.1117
   97OSM    H6G 9680   1.159   2.816   9.985 -0.3600  0.6361  1.0312
   97OSM    C7F 9681   1.006   2.785   9.831 -0.2723  0.4215 -0.2770
   97OSM    H7F 9682   0.943   2.874   9.854  3.2720  2.5478  2.3312
   97OSM    H7G 9683   0.934   2.711   9.790 -0.4411  0.5298 -0.1763
   97OSM    C8F 9684   1.097   2.808   9.706 -0.8314  0.8563 -0.1585
   97OSM    H8F 9685   1.140   2.708   9.681 -0.9234  1.5161 -3.3005
   97OSM    H8G 9686   1.181   2.877   9.729 -0.0756  0.3493 -1.2928
   97OSM    C9F 9687   1.023   2.843   9.579  0.4041  0.6045  0.2687
   97OSM    H9F 9688   0.990   2.946   9.559 -2.3133 -0.3770 -0.8869
   97OSM   C10F 9689   0.977   2.749   9.490  0.2018  0.0913 -0.0026
   97OSM   H10F 9690   0.944   2.788   9.393 -0.0333 -0.6897 -0.2392
   97OSM   C11F 9691   0.988   2.598   9.500 -0.0309 -0.0017 -0.4628
   97OSM   H11F 9692   0.893   2.551   9.464  1.5194 -2.1268 -2.0741
   97OSM   H11G 9693   0.997   2.559   9.604  0.1949  0.4793 -0.3014
   97OSM   C12F 9694   1.094   2.525   9.411  0.3006  0.4548 -0.2981
   97OSM   H12F 9695   1.091   2.414   9.414 -1.6236  0.4364 -1.4520
   97OSM   H12G 9696   1.190   2.566   9.449  1.1911 -0.3158 -1.6275
   97OSM   C13F 9697   1.056   2.549   9.264  0.5423 -0.6559  0.0820
   97OSM   H13F 9698   1.007   2.645   9.238  1.5981  0.0593  0.6837
   97OSM   H13G 9699   0.979   2.476   9.233 -0.4300 -1.1223  3.2362
   97OSM   C14F 9700   1.176   2.524   9.168  0.9915 -0.5595  0.0409
   97OSM   H14F 9701   1.209   2.419   9.152  1.3734 -0.2319 -1.5440
   97OSM   H14G 9702   1.252   2.591   9.214  1.8644 -1.6885  0.2879
   97OSM   C15F 9703   1.152   2.580   9.026  0.0383  0.2271  0.0287
   97OSM   H15F 9704   1.254   2.606   8.989  0.4971  0.5472  1.4395
   97OSM   H15G 9705   1.105   2.680   9.038 -0.0854  0.2483 -0.5836
   97OSM   C16F 9706   1.071   2.496   8.925  0.0366  0.3730 -0.2116
   97OSM   H16F 9707   1.041   2.552   8.834 -1.5731 -0.5143 -0.2683
   97OSM   H16G 9708   0.973   2.483   8.976  1.1902  2.1945  2.7092
   97OSM   C17F 9709   1.129   2.357   8.879  0.0141 -0.1501  0.8647
   97OSM   H17F 9710   1.061   2.307   8.807  0.8486  0.1163 -0.1281
   97OSM   H17G 9711   1.164   2.283   8.955 -0.9342 -0.7894  0.7121
   97OSM   C18F 9712   1.255   2.385   8.794 -0.6524  0.2551  0.2085
   97OSM   H18F 9713   1.329   2.444   8.851  1.2293 -0.9066 -0.9361
   97OSM   H18G 9714   1.233   2.438   8.699 -0.4155  1.7241  0.9421
   97OSM   H18H 9715   1.303   2.288   8.770  2.1349  1.9031 -1.3311
   98OSM      N 9716   0.355   2.525  10.967 -0.2872  0.0339  0.6575
   98OSM    C15 9717   0.227   2.513  11.049  0.8039  0.4737  0.0400
   98OSM   H15A 9718   0.155   2.592  11.034 -1.8809 -1.4229  2.0122
   98OSM   H15B 9719   0.247   2.517  11.155 -2.2405  1.7243  0.6617
   98OSM   H15C 9720   0.173   2.426  11.016  0.4650  0.6423  0.1490
   98OSM    C14 9721   0.434   2.628  11.035 -0.4325 -0.1929 -0.3652
   98OSM   H14A 9722   0.381   2.722  11.029 -1.9416 -0.9657  0.3014
   98OSM   H14B 9723   0.527   2.637  10.980 -0.9139  0.1716 -1.1267
   98OSM   H14C 9724   0.444   2.592  11.136  0.9743 -1.3514 -0.8835
   98OSM    C13 9725   0.436   2.395  10.975 -0.0039  0.6421  0.4214
   98OSM   H13A 9726   0.372   2.321  10.930 -1.9995  1.5783  1.5812
   98OSM   H13B 9727   0.455   2.364  11.077  3.1017 -1.4993 -0.6566
   98OSM   H13C 9728   0.524   2.398  10.913 -0.6835 -0.1942 -0.6337
   98OSM    C12 9729   0.316   2.561  10.821 -0.2035 -0.4692 -0.1911
   98OSM   H12A 9730   0.233   2.503  10.782  2.0684 -3.8322 -0.4234
   98OSM   H12B 9731   0.400   2.541  10.757  0.3226  3.1817 -0.8739
   98OSM    C11 9732   0.289   2.715  10.793 -0.1638  0.0854 -0.0136
   98OSM   H11A 9733   0.255   2.726  10.688 -0.4829  0.1506  0.0961
   98OSM   H11B 9734   0.386   2.770  10.789 -0.3213  0.4265  0.7418
   98OSM      P 9735   0.048   2.812  10.871  0.4046  0.1244  0.3040
   98OSM    O13 9736  -0.022   2.685  10.879 -0.3207  0.4543  0.4436
   98OSM    O14 9737   0.011   2.917  10.973  0.2523  0.1375  1.0252
   98OSM    O11 9738   0.029   2.872  10.731  0.8509  0.4184 -0.2294
   98OSM    O12 9739   0.206   2.783  10.886 -0.2963  0.0095 -0.0585
   98OSM    C1S 9740   0.089   2.990  10.683  0.4103  0.2543  0.7324
   98OSM    H1S 9741   0.171   3.021  10.751  0.8306 -0.8469  0.7448
   98OSM    H1T 9742   0.020   3.077  10.680  0.2699  0.1689  1.2729
   98OSM     NF 9743   0.238   3.084  10.505  0.1721 -0.1254  0.2503
   98OSM    HNF 9744   0.185   3.150  10.453  0.1779  0.4048  0.9006
   98OSM    C2S 9745   0.155   2.969  10.543 -0.0657  0.6218  0.4510
   98OSM    H2S 9746   0.215   2.875  10.541 -0.4198  0.3709  1.4043
   98OSM    C3S 9747   0.048   2.941  10.432 -0.0533  0.0209  0.5613
   98OSM    H3S 9748  -0.019   3.030  10.424  1.2050  1.6225  4.8611
   98OSM     O3 9749  -0.041   2.839  10.464  1.0452 -0.1904 -0.0501
   98OSM    HO3 9750  -0.020   2.806  10.552 -0.3621 -0.3705  0.2405
   98OSM    C4S 9751   0.120   2.904  10.302 -0.7548 -0.3756  0.0811
   98OSM    H4S 9752   0.151   2.799  10.292  0.1250 -0.2590  1.2805
   98OSM    C5S 9753   0.128   2.990  10.198 -0.0448 -0.0554 -0.1492
   98OSM    H5S 9754   0.075   3.087  10.199  0.3405  0.1572  0.5135
   98OSM    C6S 9755   0.193   2.966  10.064 -0.4492  0.5225 -0.2177
   98OSM    H6S 9756   0.218   2.857  10.059  0.4124  0.7240 -0.6379
   98OSM    H6T 9757   0.284   3.029  10.050 -0.6383  0.9868  0.6171
   98OSM    C7S 9758   0.116   2.973   9.934  0.3264 -0.5285  0.5785
   98OSM    H7S 9759   0.085   3.076   9.905  0.3358  0.0706  2.5386
   98OSM    H7T 9760   0.022   2.916   9.951  0.7841 -1.2659  0.6300
   98OSM    C8S 9761   0.182   2.925   9.806  0.0502  0.1134  0.0543
   98OSM    H8S 9762   0.211   2.818   9.803 -0.1085  0.0860 -0.6704
   98OSM    H8T 9763   0.274   2.987   9.810  1.5785 -1.7691 -2.6075
   98OSM    C9S 9764   0.102   2.945   9.675  0.4284 -0.5607 -0.8433
   98OSM    H9S 9765   0.055   3.041   9.704 -3.2252 -2.4472  0.2021
   98OSM    H9T 9766   0.020   2.873   9.651 -2.4105  2.7116 -1.6901
   98OSM   C10S 9767   0.183   2.939   9.544  0.0547  0.2090 -0.5960
   98OSM   H10S 9768   0.217   2.836   9.519 -1.9908 -0.6612  0.0455
   98OSM   H10T 9769   0.277   2.996   9.567 -0.4060  0.3739  1.0086
   98OSM   C11S 9770   0.109   3.013   9.429 -0.0819  0.1280  0.5809
   98OSM   H11S 9771   0.114   3.121   9.455  1.3377  0.5221 -1.1510
   98OSM   H11T 9772   0.005   2.977   9.440 -0.2522  0.1774 -0.7159
   98OSM   C12S 9773   0.169   2.998   9.287 -0.1125 -0.4224  0.0390
   98OSM   H12S 9774   0.151   2.895   9.251 -2.5268 -0.4892  1.2738
   98OSM   H12T 9775   0.279   3.015   9.297 -0.3285  0.6860  0.7634
   98OSM   C13S 9776   0.101   3.096   9.182 -0.1342 -1.0942  0.0708
   98OSM   H13S 9777   0.124   3.204   9.194  0.7491 -0.4883 -5.0318
   98OSM   H13T 9778  -0.009   3.080   9.176 -0.5384  1.2907 -0.1219
   98OSM   C14S 9779   0.159   3.085   9.040  1.2125  0.1794  0.0440
   98OSM   H14S 9780   0.265   3.117   9.045  2.1352 -2.6961  0.8963
   98OSM   H14T 9781   0.104   3.150   8.968 -0.5489  1.8935  2.7206
   98OSM   C15S 9782   0.152   2.935   8.991 -0.1773 -0.7427  0.6100
   98OSM   H15S 9783   0.049   2.895   8.994 -0.4541 -0.0030  1.0853
   98OSM   H15T 9784   0.222   2.870   9.048  2.3747  0.7474 -0.6407
   98OSM   C16S 9785   0.206   2.924   8.846  0.2809  0.3596 -0.0795
   98OSM   H16S 9786   0.309   2.967   8.846  0.6446 -0.4277 -2.0305
   98OSM   H16T 9787   0.132   2.975   8.781  0.4180 -0.4182 -0.8685
   98OSM   C17S 9788   0.212   2.776   8.802 -0.6506  0.1721  0.2493
   98OSM   H17S 9789   0.109   2.747   8.771 -0.6311  0.4266 -0.0636
   98OSM   H17T 9790   0.236   2.702   8.881 -0.7816  0.0340  0.1612
   98OSM   C18S 9791   0.304   2.771   8.678 -0.3059  0.5505 -0.6449
   98OSM   H18S 9792   0.406   2.811   8.697 -0.0220 -0.3350 -0.2679
   98OSM   H18T 9793   0.259   2.829   8.594 -0.5617 -0.5261 -1.2669
   98OSM   H18U 9794   0.319   2.668   8.642 -2.2504 -0.0249  0.0556
   98OSM    C1F 9795   0.356   3.123  10.569  0.1873 -0.5449 -0.3629
   98OSM     OF 9796   0.430   3.044  10.622 -0.0012  0.3025 -0.4140
   98OSM    C2F 9797   0.393   3.269  10.569 -0.4051 -0.5574  0.4321
   98OSM    H2F 9798   0.431   3.304  10.668 -1.2608  0.3860  0.4354
   98OSM    H2G 9799   0.311   3.337  10.537 -1.2804 -1.8898 -0.2172
   98OSM    C3F 9800   0.504   3.274  10.453  1.1544 -0.7971  0.1872
   98OSM    H3F 9801   0.591   3.217  10.491  0.4973 -2.3889 -0.6223
   98OSM    H3G 9802   0.536   3.381  10.452 -2.2533  0.5116  3.2884
   98OSM    C4F 9803   0.464   3.240  10.309  0.1727  0.5304  0.5499
   98OSM    H4F 9804   0.375   3.294  10.271 -0.3523  0.6179  1.8520
   98OSM    H4G 9805   0.420   3.137  10.306 -1.8119  1.2881  1.5387
   98OSM    C5F 9806   0.584   3.242  10.209  0.5654 -0.1728  1.0330
   98OSM    H5F 9807   0.675   3.188  10.242  0.6445 -0.4468  0.3730
   98OSM    H5G 9808   0.615   3.349  10.202 -1.7100  0.6097  1.8901
   98OSM    C6F 9809   0.549   3.197  10.070  1.0260  0.5224  0.0289
   98OSM    H6F 9810   0.470   3.266  10.032 -1.3228 -2.4152 -0.8564
   98OSM    H6G 9811   0.502   3.099  10.092  0.4788  1.3822  3.1162
   98OSM    C7F 9812   0.662   3.169   9.968 -0.2131 -0.1015  0.3536
   98OSM    H7F 9813   0.740   3.098  10.002 -1.5774 -3.0819 -2.1968
   98OSM    H7G 9814   0.707   3.266   9.939  0.0461 -0.1611  0.5553
   98OSM    C8F 9815   0.610   3.103   9.840 -0.2798  0.5503 -0.2959
   98OSM    H8F 9816   0.519   3.158   9.809  0.0047  1.9451  1.1781
   98OSM    H8G 9817   0.565   3.009   9.879  0.3696  0.7193  0.9140
   98OSM    C9F 9818   0.726   3.079   9.744  0.5230  0.1853 -0.1805
   98OSM    H9F 9819   0.807   3.023   9.794  0.1455  0.4473  0.7417
   98OSM   C10F 9820   0.740   3.117   9.619 -0.4624 -0.1563 -0.4803
   98OSM   H10F 9821   0.842   3.103   9.579  0.3104 -0.3924  1.4272
   98OSM   C11F 9822   0.629   3.185   9.543 -0.5968 -0.2647  0.7949
   98OSM   H11F 9823   0.590   3.277   9.592  1.6228 -0.6525  3.5524
   98OSM   H11G 9824   0.543   3.115   9.533 -1.4329  0.8331 -0.1181
   98OSM   C12F 9825   0.672   3.217   9.396 -0.1895  0.1524 -0.5685
   98OSM   H12F 9826   0.581   3.230   9.333 -1.0031 -3.6875 -0.4153
   98OSM   H12G 9827   0.725   3.127   9.357 -0.1657 -0.4367  0.7773
   98OSM   C13F 9828   0.768   3.332   9.377 -0.0510 -0.4006 -0.3687
   98OSM   H13F 9829   0.863   3.318   9.432 -0.1606  1.2098  0.2805
   98OSM   H13G 9830   0.721   3.423   9.420  0.9906  0.3040 -0.6915
   98OSM   C14F 9831   0.814   3.365   9.235  0.1901  0.0044  0.6060
   98OSM   H14F 9832   0.870   3.273   9.206  0.1304  0.7395 -2.1822
   98OSM   H14G 9833   0.896   3.440   9.240 -1.1572  1.6839 -1.2466
   98OSM   C15F 9834   0.713   3.402   9.125  0.0899  0.9459 -0.4008
   98OSM   H15F 9835   0.661   3.490   9.169 -0.5677  0.1417  0.4828
   98OSM   H15G 9836   0.641   3.317   9.132 -1.2053  2.0441  0.1507
   98OSM   C16F 9837   0.779   3.422   8.993 -0.8035 -0.8243  0.0246
   98OSM   H16F 9838   0.825   3.326   8.963 -2.2529 -1.0818 -1.5112
   98OSM   H16G 9839   0.858   3.500   9.009  0.0585 -1.5645 -0.5270
   98OSM   C17F 9840   0.675   3.459   8.885  0.1965  0.4528  0.0257
   98OSM   H17F 9841   0.729   3.494   8.794  0.0184 -2.9394 -1.5234
   98OSM   H17G 9842   0.612   3.544   8.920  0.4829  0.4067  0.6507
   98OSM   C18F 9843   0.573   3.353   8.837 -0.6135 -0.3301  0.3574
   98OSM   H18F 9844   0.554   3.370   8.729 -0.3551  1.3578  0.5509
   98OSM   H18G 9845   0.476   3.368   8.890 -0.1791  1.2428  0.7634
   98OSM   H18H 9846   0.625   3.258   8.859  0.4266  0.1460 -0.0049
   99OSM      N 9847   1.816   4.108  10.956  0.0676 -0.4481  0.4714
   99OSM    C15 9848   1.950   4.148  11.000 -0.3550  0.2221  0.4356
   99OSM   H15A 9849   2.001   4.179  10.910 -0.9914 -1.5914 -0.6244
   99OSM   H15B 9850   2.006   4.069  11.048  1.4206 -0.2222 -2.1607
   99OSM   H15C 9851   1.929   4.226  11.071 -0.7467 -0.2174  0.8143
   99OSM    C14 9852   1.734   4.062  11.074 -0.1976  1.1022  0.3793
   99OSM   H14A 9853   1.810   4.032  11.145 -1.2483  2.4757  2.1516
   99OSM   H14B 9854   1.680   3.974  11.041  2.8267 -0.5911 -0.4393
   99OSM   H14C 9855   1.678   4.147  11.109  3.4694  3.3293  1.3974
   99OSM    C13 9856   1.753   4.223  10.892  0.8372 -1.0361  0.8650
   99OSM   H13A 9857   1.770   4.316  10.943  0.8749 -0.3716 -0.3378
   99OSM   H13B 9858   1.649   4.199  10.873  1.1226 -2.4524  0.9750
   99OSM   H13C 9859   1.793   4.235  10.792  0.9614  0.1830  1.0487
   99OSM    C12 9860   1.824   4.004  10.848 -0.2546 -0.0499 -0.3862
   99OSM   H12A 9861   1.897   3.931  10.880 -0.1835  0.4916  0.7011
   99OSM   H12B 9862   1.868   4.051  10.761  3.9482 -0.3225  1.3228
   99OSM    C11 9863   1.710   3.916  10.804  0.0979  0.2549  0.0689
   99OSM   H11A 9864   1.708   3.835  10.879 -1.5787  0.9761  0.8327
   99OSM   H11B 9865   1.744   3.861  10.714  3.1938 -0.6282  1.6309
   99OSM      P 9866   1.448   3.931  10.846 -0.4317  0.2112  0.0587
   99OSM    O13 9867   1.481   3.851  10.966 -0.0953  0.4703 -0.4734
   99OSM    O14 9868   1.362   4.042  10.870  0.1503 -0.0083  0.2273
   99OSM    O11 9869   1.392   3.838  10.738 -0.1204 -0.6664 -0.3582
   99OSM    O12 9870   1.587   3.990  10.788  0.0894  0.2431  1.0477
   99OSM    C1S 9871   1.424   3.845  10.602  0.6760 -0.0025 -0.1528
   99OSM    H1S 9872   1.529   3.824  10.571  0.0439 -0.2434 -2.2865
   99OSM    H1T 9873   1.410   3.951  10.571 -0.5712 -0.7550 -2.4621
   99OSM     NF 9874   1.350   3.829  10.380  0.4988 -0.0298 -0.3037
   99OSM    HNF 9875   1.276   3.896  10.378 -0.7213 -1.3159 -1.2652
   99OSM    C2S 9876   1.338   3.754  10.504 -0.7695 -0.2745  0.0433
   99OSM    H2S 9877   1.383   3.654  10.486  0.6933  0.4788 -0.8251
   99OSM    C3S 9878   1.194   3.734  10.561 -0.2777  0.1228  0.2603
   99OSM    H3S 9879   1.157   3.837  10.580 -0.4722  0.1295 -0.1442
   99OSM     O3 9880   1.194   3.664  10.684  0.4245  0.6465  0.0611
   99OSM    HO3 9881   1.286   3.678  10.706  0.1822  0.5975  1.1298
   99OSM    C4S 9882   1.108   3.657  10.461  0.5987  0.6770 -0.0528
   99OSM    H4S 9883   1.137   3.558  10.422  2.8396  1.6690 -1.0917
   99OSM    C5S 9884   0.992   3.696  10.412  0.1309 -0.2112 -0.5375
   99OSM    H5S 9885   0.948   3.795  10.428 -0.4713 -0.1624 -2.2968
   99OSM    C6S 9886   0.909   3.611  10.319  0.0984 -0.3375 -0.0572
   99OSM    H6S 9887   0.805   3.592  10.355  0.1052  0.4838  0.4157
   99OSM    H6T 9888   0.950   3.509  10.304 -0.5034 -0.5555 -0.2835
   99OSM    C7S 9889   0.915   3.677  10.182  0.1746 -0.2537  0.6346
   99OSM    H7S 9890   0.877   3.781  10.190  0.4110  0.0445 -1.6838
   99OSM    H7T 9891   0.850   3.636  10.102  0.1321  1.2901 -0.1594
   99OSM    C8S 9892   1.063   3.692  10.128 -0.3994  0.2315 -1.0368
   99OSM    H8S 9893   1.120   3.596  10.134 -3.3990 -1.7606 -2.0081
   99OSM    H8T 9894   1.116   3.763  10.195 -0.2657 -1.2579  0.5164
   99OSM    C9S 9895   1.065   3.767   9.995 -0.2464  0.6309 -0.2605
   99OSM    H9S 9896   0.965   3.810   9.973  0.1543  1.2462 -0.9342
   99OSM    H9T 9897   1.085   3.687   9.920  2.1918  1.1591 -0.2637
   99OSM   C10S 9898   1.174   3.877   9.972 -0.0334  0.0391 -0.1314
   99OSM   H10S 9899   1.277   3.837   9.979 -0.7038 -1.9193 -0.8310
   99OSM   H10T 9900   1.165   3.946  10.059  3.3854 -1.6349  1.7600
   99OSM   C11S 9901   1.151   3.946   9.836  0.1073  0.2027  0.1196
   99OSM   H11S 9902   1.230   4.024   9.827  1.5768 -1.2464  0.1039
   99OSM   H11T 9903   1.056   4.004   9.840  0.4886  0.8580 -0.1839
   99OSM   C12S 9904   1.131   3.859   9.712 -0.2501  0.0845 -0.4804
   99OSM   H12S 9905   1.222   3.795   9.709 -0.3423 -0.0516 -3.4721
   99OSM   H12T 9906   1.046   3.790   9.734  0.9355 -1.0934  0.6486
   99OSM   C13S 9907   1.111   3.933   9.578 -0.6522  0.2277  0.5021
   99OSM   H13S 9908   1.078   4.036   9.604 -1.5650  0.1701 -0.3908
   99OSM   H13T 9909   1.030   3.881   9.522  0.4333  0.4532 -1.3829
   99OSM   C14S 9910   1.236   3.940   9.482 -0.5524 -0.0941  0.0881
   99OSM   H14S 9911   1.244   3.846   9.424 -0.4809  0.4092 -0.7347
   99OSM   H14T 9912   1.330   3.959   9.538 -0.2862  0.0081 -0.3875
   99OSM   C15S 9913   1.218   4.063   9.392 -0.4142 -0.3862  0.1845
   99OSM   H15S 9914   1.313   4.067   9.333 -0.1703 -0.7642  0.5451
   99OSM   H15T 9915   1.224   4.153   9.458  0.7944 -0.7299  0.5715
   99OSM   C16S 9916   1.094   4.071   9.306 -0.0786 -0.6283 -0.1752
   99OSM   H16S 9917   1.009   4.097   9.373  1.1535  0.9072  0.8754
   99OSM   H16T 9918   1.069   3.968   9.273 -1.0326 -1.3609  2.5431
   99OSM   C17S 9919   1.096   4.162   9.185  0.0536  0.0631  0.2104
   99OSM   H17S 9920   1.166   4.127   9.106 -0.4501  0.8735 -0.6161
   99OSM   H17T 9921   1.127   4.264   9.217 -2.1002  0.7633  0.2498
   99OSM   C18S 9922   0.955   4.178   9.115  0.2267 -0.3025  0.0893
   99OSM   H18S 9923   0.907   4.089   9.070 -1.3459  0.5869 -0.1019
   99OSM   H18T 9924   0.961   4.251   9.031 -0.9469 -0.7579 -0.4184
   99OSM   H18U 9925   0.886   4.224   9.190 -0.3870 -3.5207  1.6545
   99OSM    C1F 9926   1.459   3.841  10.304 -0.2428 -0.1377 -0.2401
   99OSM     OF 9927   1.557   3.773  10.328  0.2630 -0.2550  0.2545
   99OSM    C2F 9928   1.461   3.955  10.202 -0.5469 -0.0267 -0.3555
   99OSM    H2F 9929   1.417   4.045  10.250 -1.3304 -2.1635  3.3378
   99OSM    H2G 9930   1.398   3.933  10.114 -1.3592  1.4174 -0.1665
   99OSM    C3F 9931   1.608   3.988  10.173 -0.1424  0.6290 -0.2256
   99OSM    H3F 9932   1.665   4.008  10.266  0.6273  1.8384 -0.9353
   99OSM    H3G 9933   1.658   3.901  10.126  1.9162  1.6689 -0.0735
   99OSM    C4F 9934   1.638   4.103  10.071 -0.6427 -0.1196  0.0484
   99OSM    H4F 9935   1.743   4.088  10.038 -0.5596 -2.4196  1.1416
   99OSM    H4G 9936   1.640   4.203  10.119 -0.5663  0.8993 -1.9664
   99OSM    C5F 9937   1.561   4.096   9.939  0.5154 -0.1179 -0.1070
   99OSM    H5F 9938   1.456   4.126   9.962  0.6845  1.9727 -1.7557
   99OSM    H5G 9939   1.559   3.997   9.890  0.9156  0.0443 -0.4573
   99OSM    C6F 9940   1.607   4.200   9.833 -0.1828  0.6660 -0.2706
   99OSM    H6F 9941   1.695   4.171   9.772  0.2935  2.1190 -0.3264
   99OSM    H6G 9942   1.629   4.298   9.882  0.2547  1.4240 -1.9288
   99OSM    C7F 9943   1.500   4.236   9.725 -0.7864 -0.6412  0.1459
   99OSM    H7F 9944   1.411   4.287   9.769 -2.3546 -4.4143  1.7955
   99OSM    H7G 9945   1.476   4.135   9.684  0.3054 -1.4885  1.5050
   99OSM    C8F 9946   1.567   4.318   9.611 -0.2738 -0.1172  0.8820
   99OSM    H8F 9947   1.647   4.372   9.666  1.6907  1.7424 -3.2766
   99OSM    H8G 9948   1.504   4.404   9.578  1.9652  2.5650  3.0644
   99OSM    C9F 9949   1.628   4.235   9.499  0.7273  0.1732  0.0279
   99OSM    H9F 9950   1.696   4.158   9.539  1.0099 -0.1242 -1.0096
   99OSM   C10F 9951   1.620   4.262   9.371 -0.1935 -0.0060  0.5043
   99OSM   H10F 9952   1.673   4.197   9.300  0.4188  1.5934 -0.5447
   99OSM   C11F 9953   1.545   4.377   9.305  0.3009 -0.6081 -0.2937
   99OSM   H11F 9954   1.605   4.470   9.295 -0.0683 -0.3350  0.0048
   99OSM   H11G 9955   1.456   4.390   9.370  0.4015 -0.5989 -0.1581
   99OSM   C12F 9956   1.488   4.348   9.167 -0.2501  0.1605  0.4662
   99OSM   H12F 9957   1.395   4.410   9.161  0.0212  0.9026  2.8962
   99OSM   H12G 9958   1.451   4.244   9.160 -0.0607  0.1502 -0.5142
   99OSM   C13F 9959   1.578   4.380   9.042 -0.7212 -0.1912 -0.0433
   99OSM   H13F 9960   1.686   4.362   9.060 -0.6677 -0.3372 -0.4988
   99OSM   H13G 9961   1.577   4.488   9.018 -1.1388  0.1218  1.2741
   99OSM   C14F 9962   1.539   4.297   8.914 -0.7608 -0.5997  0.2165
   99OSM   H14F 9963   1.431   4.314   8.894 -0.4103 -0.4415 -1.8113
   99OSM   H14G 9964   1.556   4.191   8.942 -0.9061 -1.1271 -1.5652
   99OSM   C15F 9965   1.612   4.336   8.788  0.3532 -0.1417  0.1487
   99OSM   H15F 9966   1.598   4.445   8.770  2.1906  0.0762 -0.1907
   99OSM   H15G 9967   1.554   4.282   8.710 -1.2272 -0.5717  1.5699
   99OSM   C16F 9968   1.764   4.314   8.760 -0.0666 -0.3697  0.2428
   99OSM   H16F 9969   1.785   4.208   8.736  0.6445 -0.5914  1.7124
   99OSM   H16G 9970   1.823   4.325   8.854  1.8544 -0.7818 -0.8534
   99OSM   C17F 9971   1.824   4.413   8.662 -0.3872 -0.6060  0.4559
   99OSM   H17F 9972   1.931   4.394   8.642 -0.2334 -0.7167  1.3307
   99OSM   H17G 9973   1.830   4.516   8.705  1.1925  0.0415 -1.2000
   99OSM   C18F 9974   1.753   4.430   8.527  0.3502  0.7084 -0.0003
   99OSM   H18F 9975   1.788   4.521   8.475  0.1461  1.5887  1.3482
   99OSM   H18G 9976   1.643   4.431   8.543  0.3417 -1.9422  0.5909
   99OSM   H18H 9977   1.780   4.339   8.468 -1.2353 -0.0320  0.3546
  100OSM      N 9978   4.175   5.179  10.721  0.5915  0.5605  0.3963
  100OSM    C15 9979   4.202   5.275  10.604 -0.3586 -0.1606 -0.9069
  100OSM   H15A 9980   4.220   5.373  10.645  0.0317 -1.2330  1.6545
  100OSM   H15B 9981   4.116   5.278  10.538 -0.3320  0.9476 -0.9138
  100OSM   H15C 9982   4.288   5.250  10.544 -0.3321 -0.4976 -0.7327
  100OSM    C14 9983   4.130   5.047  10.675 -0.0215  0.6937  0.9490
  100OSM   H14A 9984   4.048   5.069  10.608 -0.4930  1.0446  1.6201
  100OSM   H14B 9985   4.098   4.982  10.755 -1.5751 -0.6065 -0.6584
  100OSM   H14C 9986   4.207   4.990  10.627  0.4681  2.0634  0.0426
  100OSM    C13 9987   4.294   5.160  10.800 -0.6598  0.5398 -0.1298
  100OSM   H13A 9988   4.346   5.252  10.822  0.2442  0.6630 -2.5155
  100OSM   H13B 9989   4.367   5.105  10.743  1.3263  1.9145  0.9756
  100OSM   H13C 9990   4.274   5.107  10.892 -3.7568  1.0220 -0.4030
  100OSM    C12 9991   4.069   5.246  10.816  0.0451  0.0347 -0.3856
  100OSM   H12A 9992   4.106   5.338  10.859 -0.0719  0.4233 -1.0957
  100OSM   H12B 9993   4.044   5.182  10.899 -0.8370  1.5493  0.5582
  100OSM    C11 9994   3.931   5.284  10.748 -0.2826  0.3030  0.0752
  100OSM   H11A 9995   3.958   5.371  10.684  2.5003 -1.0681 -0.7539
  100OSM   H11B 9996   3.860   5.308  10.830 -3.1333 -2.0097 -1.4825
  100OSM      P 9997   3.782   5.064  10.760  0.3823  0.0797 -0.3426
  100OSM    O13 9998   3.860   5.020  10.876  0.3133  0.4161 -0.3140
  100OSM    O14 9999   3.648   5.122  10.786 -0.1716  0.6842 -0.1375
  100OSM    O1110000   3.770   4.947  10.658  0.1317  0.3284  0.2036
  100OSM    O1210001   3.869   5.176  10.675 -0.4328  0.0693 -0.3227
  100OSM    C1S10002   3.694   4.954  10.532  0.2259 -0.7901 -0.0701
  100OSM    H1S10003   3.659   5.057  10.512  0.9715 -0.6824 -0.8389
  100OSM    H1T10004   3.599   4.899  10.552 -0.3348  0.2086  0.0487
  100OSM     NF10005   3.694   4.936  10.289 -0.2496  0.2161 -0.4446
  100OSM    HNF10006   3.660   4.851  10.249 -0.9068  0.3533 -0.2015
  100OSM    C2S10007   3.773   4.912  10.414 -1.2236  0.5398 -0.4432
  100OSM    H2S10008   3.854   4.988  10.412 -0.5466 -0.0702  1.4217
  100OSM    C3S10009   3.843   4.778  10.427 -0.1387 -0.1603  0.4537
  100OSM    H3S10010   3.765   4.699  10.433 -2.3472  1.8477 -0.5929
  100OSM     O310011   3.943   4.770  10.535  0.3926  0.3321  0.1654
  100OSM    HO310012   3.909   4.833  10.598  3.9560  2.4615  0.2193
  100OSM    C4S10013   3.929   4.762  10.300  0.4156 -0.1034 -0.1216
  100OSM    H4S10014   4.031   4.804  10.299  0.2848  0.2544  0.4765
  100OSM    C5S10015   3.901   4.670  10.202 -0.7608  0.3488  0.8235
  100OSM    H5S10016   3.814   4.603  10.197  0.6772 -1.4887 -1.5484
  100OSM    C6S10017   3.993   4.645  10.083 -0.3225  0.1408  0.8398
  100OSM    H6S10018   4.036   4.542  10.087  0.6559  0.4116 -1.2486
  100OSM    H6T10019   4.082   4.711  10.088 -0.7568  0.9074 -0.7914
  100OSM    C7S10020   3.919   4.667   9.952  0.0673 -0.9228  0.3097
  100OSM    H7S10021   3.813   4.634   9.954  0.5110 -2.4816 -0.3788
  100OSM    H7T10022   3.973   4.605   9.878  1.1849  1.0149 -0.5725
  100OSM    C8S10023   3.901   4.811   9.902  0.3697  1.1223  0.6902
  100OSM    H8S10024   3.999   4.830   9.854  1.0595  1.2537  2.1262
  100OSM    H8T10025   3.889   4.875   9.991 -1.5217 -0.4884  1.6862
  100OSM    C9S10026   3.778   4.839   9.800  0.0391 -0.2598  0.0614
  100OSM    H9S10027   3.796   4.938   9.754 -0.9901  1.7110  3.5271
  100OSM    H9T10028   3.686   4.838   9.862  0.4777 -1.3608  0.7353
  100OSM   C10S10029   3.765   4.750   9.685 -0.3535  0.1304  0.7307
  100OSM   H10S10030   3.663   4.759   9.643 -0.7146  3.1188  1.9404
  100OSM   H10T10031   3.779   4.641   9.700  0.8471 -0.0812 -1.4729
  100OSM   C11S10032   3.878   4.776   9.578  0.8009  0.0549 -0.1045
  100OSM   H11S10033   3.977   4.742   9.617  0.3552 -0.8435  0.2792
  100OSM   H11T10034   3.882   4.883   9.549  0.0691  0.0716 -0.1619
  100OSM   C12S10035   3.869   4.683   9.456  0.1934 -0.1293 -0.3861
  100OSM   H12S10036   3.771   4.681   9.403 -0.4966  1.7098  0.7298
  100OSM   H12T10037   3.889   4.579   9.489 -0.3205 -0.4816 -1.1358
  100OSM   C13S10038   3.977   4.705   9.350  0.1749  0.1103 -0.2678
  100OSM   H13S10039   4.077   4.691   9.397 -0.7113 -1.5433  1.2662
  100OSM   H13T10040   3.967   4.809   9.310  1.0338  0.9299  1.5196
  100OSM   C14S10041   3.971   4.603   9.232 -0.6664 -0.2961  0.5575
  100OSM   H14S10042   3.861   4.597   9.212 -0.6744  0.5751  0.2955
  100OSM   H14T10043   4.005   4.500   9.256  1.4544  0.6434  1.8087
  100OSM   C15S10044   4.029   4.656   9.099  0.4898 -0.2113 -0.4594
  100OSM   H15S10045   4.136   4.682   9.119  0.8330 -1.6566 -0.3296
  100OSM   H15T10046   3.961   4.739   9.071 -0.1738 -1.1282 -1.6637
  100OSM   C16S10047   4.035   4.562   8.974  0.3396 -0.3180  0.2752
  100OSM   H16S10048   4.084   4.467   9.004 -0.0215  0.1503  2.5311
  100OSM   H16T10049   4.109   4.620   8.915  1.2648  1.8615  3.3081
  100OSM   C17S10050   3.907   4.534   8.897 -0.0668 -0.0713  0.5739
  100OSM   H17S10051   3.940   4.473   8.811  2.5696 -1.4664  2.4483
  100OSM   H17T10052   3.867   4.631   8.859 -0.2001  0.1896  1.3456
  100OSM   C18S10053   3.802   4.460   8.984  0.5020 -0.4146 -0.0451
  100OSM   H18S10054   3.709   4.443   8.925  0.6036  0.1847 -0.3778
  100OSM   H18T10055   3.762   4.529   9.061  0.6078  0.8620 -1.1001
  100OSM   H18U10056   3.856   4.372   9.025  4.1800  0.6197 -2.2146
  100OSM    C1F10057   3.638   5.044  10.239 -0.4819 -0.8250  0.1137
  100OSM     OF10058   3.681   5.155  10.282  0.4416 -0.4093 -0.1352
  100OSM    C2F10059   3.538   5.033  10.124  0.4009 -0.1863 -0.1307
  100OSM    H2F10060   3.449   4.986  10.172  0.8147  0.6754  1.5567
  100OSM    H2G10061   3.572   4.960  10.049  0.2982 -2.3465  1.8206
  100OSM    C3F10062   3.504   5.168  10.059  0.5142  0.0355 -0.0148
  100OSM    H3F10063   3.601   5.220  10.044  0.1046  1.3856  1.7602
  100OSM    H3G10064   3.445   5.227  10.132  1.9237  0.1019  1.1277
  100OSM    C4F10065   3.424   5.146   9.931 -0.5163  0.1847  0.2450
  100OSM    H4F10066   3.417   5.244   9.879  0.4834  0.7684  1.1722
  100OSM    H4G10067   3.324   5.102   9.948 -0.2502 -0.4326  0.2412
  100OSM    C5F10068   3.492   5.060   9.819 -0.2166 -0.6081 -0.1242
  100OSM    H5F10069   3.511   4.960   9.864  1.4867  0.0324  0.6569
  100OSM    H5G10070   3.594   5.103   9.808 -0.1207 -0.6264  0.6124
  100OSM    C6F10071   3.425   5.054   9.686 -0.2771 -0.0351  0.9078
  100OSM    H6F10072   3.317   5.028   9.695 -0.7568  0.5105 -2.1528
  100OSM    H6G10073   3.468   4.971   9.627 -1.6955  0.6180 -1.1825
  100OSM    C7F10074   3.438   5.173   9.594 -0.5536  0.2808 -1.2328
  100OSM    H7F10075   3.416   5.255   9.665 -2.1694 -1.4261  0.3529
  100OSM    H7G10076   3.361   5.178   9.514 -0.3054 -1.8480 -1.6798
  100OSM    C8F10077   3.589   5.192   9.550  0.4248  0.1606 -0.3755
  100OSM    H8F10078   3.630   5.092   9.525  0.1496 -0.2860  0.8650
  100OSM    H8G10079   3.649   5.225   9.638 -2.7657  0.6055  1.8229
  100OSM    C9F10080   3.621   5.283   9.431 -0.1636  0.5515  0.2205
  100OSM    H9F10081   3.645   5.385   9.465 -1.7897  0.7178  0.9883
  100OSM   C10F10082   3.609   5.241   9.303 -0.5504  0.8870  0.4398
  100OSM   H10F10083   3.643   5.305   9.221 -0.5663 -0.8671 -0.9759
  100OSM   C11F10084   3.571   5.099   9.252 -0.0793 -0.3434  0.9380
  100OSM   H11F10085   3.529   5.034   9.331  0.0014 -0.0120  1.2576
  100OSM   H11G10086   3.666   5.053   9.217 -0.0800  1.2710 -1.4121
  100OSM   C12F10087   3.483   5.112   9.128  0.4008 -0.2605  1.3884
  100OSM   H12F10088   3.488   5.218   9.095 -0.2484 -0.8807 -0.8834
  100OSM   H12G10089   3.374   5.107   9.144  0.2063  1.0245  0.6463
  100OSM   C13F10090   3.517   5.025   9.015  0.3751  0.6439 -0.0067
  100OSM   H13F10091   3.435   5.028   8.940  0.3032 -0.6575 -0.0049
  100OSM   H13G10092   3.533   4.920   9.047  2.0470  1.0419  0.5432
  100OSM   C14F10093   3.641   5.074   8.938 -0.2185  0.1844 -0.7268
  100OSM   H14F10094   3.727   5.039   8.998 -1.1035  1.3483  1.3261
  100OSM   H14G10095   3.635   5.184   8.924 -0.9615  0.0009 -1.9874
  100OSM   C15F10096   3.652   5.010   8.800 -0.0450  0.0229  0.1247
  100OSM   H15F10097   3.564   5.037   8.739  0.1663 -1.3634 -0.8445
  100OSM   H15G10098   3.640   4.901   8.818 -1.5255  0.0340 -0.6480
  100OSM   C16F10099   3.777   5.023   8.713 -0.4755 -0.4953 -0.5122
  100OSM   H16F10100   3.862   4.981   8.772  1.1089  0.5083 -2.0117
  100OSM   H16G10101   3.807   5.130   8.708 -0.7484 -0.4086 -0.3361
  100OSM   C17F10102   3.776   4.955   8.578 -0.1847 -0.2607 -1.2421
  100OSM   H17F10103   3.794   4.847   8.592  1.2117  0.0782 -0.0368
  100OSM   H17G10104   3.861   5.006   8.528 -1.3689  1.8835 -1.1970
  100OSM   C18F10105   3.651   4.990   8.488 -0.0770 -0.0926  0.1934
  100OSM   H18F10106   3.558   4.939   8.521 -0.2558 -0.0626 -0.2529
  100OSM   H18G10107   3.662   4.953   8.384 -0.3383 -0.4646  0.2932
  100OSM   H18H10108   3.637   5.100   8.501  0.6597 -0.0139  0.3546
  101OSM      N10109   0.280   3.669  11.082  0.1550 -0.5294  0.1068
  101OSM    C1510110   0.339   3.675  11.220  0.5414 -0.1787  0.0293
  101OSM   H15A10111   0.341   3.578  11.266 -0.7542 -0.7652 -1.0802
  101OSM   H15B10112   0.275   3.733  11.285  0.6854  0.2884 -0.2347
  101OSM   H15C10113   0.438   3.715  11.234  0.5117 -0.5065  1.3420
  101OSM    C1410114   0.294   3.808  11.019 -0.4343  0.1843 -0.2584
  101OSM   H14A10115   0.393   3.852  11.014 -0.4643  0.1752 -1.0913
  101OSM   H14B10116   0.230   3.879  11.069  1.0407  0.4713  1.3218
  101OSM   H14C10117   0.260   3.793  10.918 -0.1406 -1.0012 -0.1919
  101OSM    C1310118   0.361   3.575  10.999 -0.6142  0.1680  0.0622
  101OSM   H13A10119   0.361   3.470  11.022 -0.1331 -0.0480 -0.8998
  101OSM   H13B10120   0.464   3.606  10.992 -0.0008 -2.0680 -1.7587
  101OSM   H13C10121   0.319   3.569  10.900 -0.1204  1.1003 -0.2207
  101OSM    C1210122   0.131   3.629  11.061 -0.3684 -0.2061 -0.0893
  101OSM   H12A10123   0.070   3.695  11.122 -0.0032  1.1232 -1.1042
  101OSM   H12B10124   0.121   3.530  11.103  0.2116 -0.8000 -1.3272
  101OSM    C1110125   0.064   3.632  10.921  0.4051 -0.0582  0.1687
  101OSM   H11A10126   0.054   3.737  10.886 -2.6847 -0.0070  0.9603
  101OSM   H11B10127  -0.043   3.607  10.935 -0.3719  2.0284 -1.5699
  101OSM      P10128   0.074   3.394  10.797  0.3860  0.9053 -0.0148
  101OSM    O1310129   0.189   3.312  10.763  0.8080  0.4206 -0.2671
  101OSM    O1410130  -0.022   3.335  10.901 -0.3628  0.2714  0.8065
  101OSM    O1110131  -0.007   3.400  10.669 -0.0646  0.3068  0.0630
  101OSM    O1210132   0.118   3.545  10.827 -0.1808 -0.4259  0.9553
  101OSM    C1S10133  -0.042   3.519  10.585 -0.5699  0.2146  0.1447
  101OSM    H1S10134  -0.008   3.613  10.635  2.7195 -0.6355 -0.2209
  101OSM    H1T10135  -0.150   3.513  10.560 -0.8959 -1.3694  1.7480
  101OSM     NF10136   0.007   3.658  10.384  0.0523 -0.1440 -0.5541
  101OSM    HNF10137  -0.056   3.652  10.307 -0.8297 -2.3237  0.2273
  101OSM    C2S10138   0.039   3.528  10.450  0.2924  0.2678 -0.1810
  101OSM    H2S10139   0.147   3.524  10.476  0.2534 -0.9421 -0.1254
  101OSM    C3S10140   0.017   3.400  10.368  0.3765  0.0674  0.2053
  101OSM    H3S10141  -0.093   3.394  10.356  0.6867 -0.2728 -3.8242
  101OSM     O310142   0.063   3.283  10.434 -0.3218 -0.3140  0.2946
  101OSM    HO310143   0.066   3.317  10.524 -2.2977  0.0060  0.2816
  101OSM    C4S10144   0.094   3.419  10.242  0.4602  0.2581 -0.2593
  101OSM    H4S10145   0.201   3.439  10.257  0.8610 -2.0858  0.2937
  101OSM    C5S10146   0.048   3.426  10.112  0.0367  0.1242 -0.2264
  101OSM    H5S10147  -0.053   3.400  10.077 -0.6960  0.2571  1.6885
  101OSM    C6S10148   0.137   3.467  10.000 -0.7321  0.0990  0.4581
  101OSM    H6S10149   0.246   3.467  10.020  0.1657 -1.4807 -3.5690
  101OSM    H6T10150   0.105   3.567   9.965 -0.3316 -0.7542 -2.6783
  101OSM    C7S10151   0.116   3.372   9.880  0.1850 -0.2343  0.2588
  101OSM    H7S10152   0.010   3.347   9.859  1.1562 -2.6693 -2.3145
  101OSM    H7T10153   0.161   3.273   9.905 -0.3670 -1.0289 -1.7228
  101OSM    C8S10154   0.180   3.423   9.750  0.4381  0.2453  0.3600
  101OSM    H8S10155   0.289   3.423   9.768  0.0607 -0.8208  3.0758
  101OSM    H8T10156   0.149   3.526   9.723  1.5919  1.0260  1.8661
  101OSM    C9S10157   0.141   3.337   9.629 -0.7254 -0.1908 -0.2652
  101OSM    H9S10158   0.030   3.336   9.633 -0.7157  1.4353  1.7408
  101OSM    H9T10159   0.176   3.234   9.648 -1.5555 -0.4430 -0.0672
  101OSM   C10S10160   0.190   3.401   9.499 -0.4844  0.1160  0.0793
  101OSM   H10S10161   0.156   3.506   9.493  1.7878  1.0337  1.5558
  101OSM   H10T10162   0.134   3.347   9.419  0.8131  0.0062 -0.7843
  101OSM   C11S10163   0.340   3.401   9.476 -0.5940 -0.3222  0.4276
  101OSM   H11S10164   0.370   3.294   9.471 -0.4760 -0.3775  1.8538
  101OSM   H11T10165   0.401   3.433   9.563 -0.5109 -1.0745  0.6531
  101OSM   C12S10166   0.393   3.487   9.355  0.2604  0.0136 -0.2005
  101OSM   H12S10167   0.496   3.463   9.323 -0.3045 -0.7777 -1.5132
  101OSM   H12T10168   0.396   3.597   9.373 -1.2951  0.0539 -0.0276
  101OSM   C13S10169   0.318   3.457   9.220 -0.1653  0.3748 -0.5310
  101OSM   H13S10170   0.209   3.460   9.240  0.2807  0.5915  2.3341
  101OSM   H13T10171   0.353   3.356   9.191 -1.7262  0.1849 -1.8543
  101OSM   C14S10172   0.351   3.561   9.111 -0.5507  0.4348  0.4872
  101OSM   H14S10173   0.458   3.560   9.082 -0.9298 -1.6361 -1.0560
  101OSM   H14T10174   0.329   3.665   9.144 -0.2738  1.2450 -1.6921
  101OSM   C15S10175   0.269   3.545   8.987 -0.3066 -0.1414  0.7086
  101OSM   H15S10176   0.160   3.531   9.004 -0.3128 -1.3744 -0.2183
  101OSM   H15T10177   0.297   3.447   8.944  3.1826  0.8304  0.4962
  101OSM   C16S10178   0.261   3.653   8.874  0.1434 -0.2004  0.2350
  101OSM   H16S10179   0.365   3.689   8.857 -0.6805  2.3811  0.1783
  101OSM   H16T10180   0.197   3.735   8.913  0.8230 -0.6289  2.3583
  101OSM   C17S10181   0.202   3.610   8.744 -0.1033  0.0824 -0.2393
  101OSM   H17S10182   0.186   3.698   8.679  0.7750 -0.2399 -0.9104
  101OSM   H17T10183   0.107   3.555   8.756  0.7583 -1.1121  1.5705
  101OSM   C18S10184   0.299   3.513   8.675  0.5964 -0.7471 -0.3563
  101OSM   H18S10185   0.301   3.412   8.719  0.3752 -0.7813 -0.4267
  101OSM   H18T10186   0.403   3.548   8.653  0.4999 -0.8197 -0.9522
  101OSM   H18U10187   0.260   3.500   8.571 -2.2866  1.6023  0.2896
  101OSM    C1F10188   0.049   3.776  10.426  0.6295 -0.3594 -0.0861
  101OSM     OF10189   0.128   3.785  10.521  0.4926 -0.5322 -0.1837
  101OSM    C2F10190   0.007   3.894  10.344  0.3455 -0.2003  0.2490
  101OSM    H2F10191  -0.004   3.986  10.406  0.3959 -2.4260  3.8710
  101OSM    H2G10192  -0.091   3.881  10.294 -0.2382  1.0233  0.9995
  101OSM    C3F10193   0.103   3.929  10.225 -0.1341  0.4765 -0.2757
  101OSM    H3F10194   0.206   3.918  10.265 -1.5944 -1.0079  3.6137
  101OSM    H3G10195   0.089   4.035  10.195  0.9863  1.3347  1.9670
  101OSM    C4F10196   0.080   3.834  10.103 -1.3345 -0.5642 -0.2577
  101OSM    H4F10197  -0.026   3.805  10.088 -1.5847  0.1960 -0.0173
  101OSM    H4G10198   0.138   3.742  10.126 -1.2583 -0.6275 -0.7066
  101OSM    C5F10199   0.145   3.902   9.978  0.0420 -0.4809 -0.3361
  101OSM    H5F10200   0.243   3.949  10.003 -1.4382  4.2304 -2.2014
  101OSM    H5G10201   0.077   3.985   9.949 -1.5481 -2.3792 -2.3643
  101OSM    C6F10202   0.148   3.818   9.853  0.5372  0.5704 -0.0140
  101OSM    H6F10203   0.221   3.736   9.873  0.0676 -0.4032 -1.9948
  101OSM    H6G10204   0.049   3.772   9.829  0.8788  0.6452 -1.7112
  101OSM    C7F10205   0.191   3.890   9.726  0.0723  0.1095  0.0597
  101OSM    H7F10206   0.286   3.945   9.738  0.8170 -1.2053  0.4217
  101OSM    H7G10207   0.121   3.973   9.702  0.3660  0.7703  1.3995
  101OSM    C8F10208   0.211   3.796   9.603 -0.1480  0.6392 -0.3316
  101OSM    H8F10209   0.114   3.749   9.577 -0.1717 -0.2320  1.2263
  101OSM    H8G10210   0.266   3.709   9.644 -0.9488  0.0042 -0.5676
  101OSM    C9F10211   0.271   3.871   9.480  0.8547 -1.0651 -0.0477
  101OSM    H9F10212   0.360   3.932   9.502  0.6820  0.4247 -3.0096
  101OSM   C10F10213   0.233   3.882   9.354  0.0079  0.1699 -0.5023
  101OSM   H10F10214   0.293   3.949   9.291  1.4944 -1.2578 -0.6737
  101OSM   C11F10215   0.107   3.819   9.298 -0.4355 -0.4901  0.0188
  101OSM   H11F10216   0.032   3.779   9.369 -1.8174  1.6964 -0.1020
  101OSM   H11G10217   0.118   3.735   9.226 -0.7334 -1.9220  1.5871
  101OSM   C12F10218   0.017   3.926   9.230  0.4339  0.3166 -0.9437
  101OSM   H12F10219   0.064   3.982   9.146  1.6424  0.9490  0.1288
  101OSM   H12G10220  -0.007   3.994   9.314  0.4476 -3.2714  2.1936
  101OSM   C13F10221  -0.116   3.866   9.179 -0.4963  0.4773  0.4215
  101OSM   H13F10222  -0.197   3.940   9.196 -0.2997  1.3492 -1.9299
  101OSM   H13G10223  -0.138   3.779   9.244  2.3613  0.8973  2.1160
  101OSM   C14F10224  -0.112   3.833   9.032  0.0183  0.2602 -0.5782
  101OSM   H14F10225  -0.025   3.765   9.029 -0.2839 -0.1909  0.3931
  101OSM   H14G10226  -0.093   3.925   8.973  0.0867  2.0598  2.0664
  101OSM   C15F10227  -0.243   3.758   8.989  0.0608  0.3557 -0.0767
  101OSM   H15F10228  -0.325   3.823   9.027 -0.0949  0.2545 -0.2366
  101OSM   H15G10229  -0.254   3.660   9.039 -3.5951  0.8902  0.4755
  101OSM   C16F10230  -0.256   3.748   8.842  0.3597  0.3555  0.2980
  101OSM   H16F10231  -0.243   3.852   8.806  2.0227  0.6395  1.5874
  101OSM   H16G10232  -0.362   3.723   8.822  0.1140  1.3649  0.3136
  101OSM   C17F10233  -0.158   3.644   8.774 -0.6005  0.4578 -0.1758
  101OSM   H17F10234  -0.161   3.543   8.820  1.0894 -1.5879 -4.0542
  101OSM   H17G10235  -0.054   3.678   8.795  0.7343 -1.8218 -2.5268
  101OSM   C18F10236  -0.167   3.634   8.628 -0.6522  0.7735  0.1710
  101OSM   H18F10237  -0.256   3.578   8.593  0.1326  0.1802 -0.9563
  101OSM   H18G10238  -0.073   3.588   8.592 -0.5964  1.5027 -0.6530
  101OSM   H18H10239  -0.167   3.732   8.575 -1.0880  0.3707 -0.5925
  102OSM      N10240   4.107   5.984  10.559  0.0506  0.8820 -0.4392
  102OSM    C1510241   4.175   5.916  10.671  0.0680  0.4856  0.0613
  102OSM   H15A10242   4.112   5.833  10.703  3.6417 -1.7998  1.8200
  102OSM   H15B10243   4.213   5.976  10.752 -2.1937  1.1416  0.7316
  102OSM   H15C10244   4.266   5.872  10.635 -0.8292 -0.2447 -1.4182
  102OSM    C1410245   4.199   6.071  10.489  0.1287 -0.2283 -0.3491
  102OSM   H14A10246   4.142   6.134  10.423 -1.0182  0.6776  1.4296
  102OSM   H14B10247   4.278   6.011  10.446  0.5199  0.4622 -0.5899
  102OSM   H14C10248   4.242   6.139  10.561 -1.8885  1.5655 -0.7423
  102OSM    C1310249   4.051   5.875  10.468 -0.0047  0.1831  0.1848
  102OSM   H13A10250   4.128   5.805  10.440 -0.9331 -0.6702 -0.3268
  102OSM   H13B10251   4.016   5.925  10.379 -1.5539  0.8165  1.1131
  102OSM   H13C10252   3.982   5.807  10.517  2.2953 -2.6349 -0.2059
  102OSM    C1210253   3.992   6.061  10.617 -0.3238  0.1478  0.1542
  102OSM   H12A10254   4.020   6.121  10.702  0.4782 -1.0358  0.7549
  102OSM   H12B10255   3.914   5.992  10.650  1.3736 -1.9270  0.0605
  102OSM    C1110256   3.920   6.148  10.515 -0.6798  0.0492  0.2113
  102OSM   H11A10257   3.815   6.161  10.549 -0.7564  0.1641 -0.0706
  102OSM   H11B10258   3.916   6.103  10.414 -2.8415 -0.5781  0.5116
  102OSM      P10259   3.970   6.374  10.625 -0.0201 -0.3405  0.5406
  102OSM    O1310260   3.833   6.430  10.633  0.2259  0.3002 -0.2098
  102OSM    O1410261   4.031   6.314  10.743  0.0409 -0.4574  0.4262
  102OSM    O1110262   4.074   6.486  10.579  0.1479 -0.4254  0.2441
  102OSM    O1210263   3.985   6.271  10.511 -0.3359 -0.6041  1.1577
  102OSM    C1S10264   4.182   6.458  10.496 -0.4609 -0.5158  0.6555
  102OSM    H1S10265   4.198   6.350  10.477  0.1138 -0.7851  2.4823
  102OSM    H1T10266   4.269   6.506  10.546  1.1292 -2.5285 -0.0526
  102OSM     NF10267   4.280   6.495  10.270  0.6192 -0.6708  0.2630
  102OSM    HNF10268   4.338   6.563  10.226 -1.1980  1.2978  0.7514
  102OSM    C2S10269   4.173   6.531  10.360  0.2030 -0.8990 -0.4518
  102OSM    H2S10270   4.079   6.508  10.305  0.5668  1.5031 -2.2541
  102OSM    C3S10271   4.159   6.681  10.385  0.0174 -0.3154 -0.6623
  102OSM    H3S10272   4.231   6.723  10.458  0.0479 -0.6586 -0.4945
  102OSM     O310273   4.032   6.717  10.450 -0.5899 -0.4871 -0.6978
  102OSM    HO310274   3.985   6.633  10.446  0.8607 -1.4959  1.6482
  102OSM    C4S10275   4.150   6.745  10.253 -0.5018 -0.2732  0.9732
  102OSM    H4S10276   4.071   6.713  10.184  1.4883 -1.7998 -0.7414
  102OSM    C5S10277   4.239   6.833  10.196 -0.2895  1.3284  0.2463
  102OSM    H5S10278   4.328   6.852  10.257 -0.0942 -1.5518  1.0240
  102OSM    C6S10279   4.230   6.894  10.060  0.5350  0.3253  0.1030
  102OSM    H6S10280   4.206   7.003  10.060 -0.7792  0.0495 -0.0614
  102OSM    H6T10281   4.139   6.855  10.009  0.3068 -0.2744  0.9585
  102OSM    C7S10282   4.348   6.871   9.974  0.2507  0.1846  0.1959
  102OSM    H7S10283   4.410   6.785  10.006 -0.0870 -0.3490 -0.5629
  102OSM    H7T10284   4.422   6.954   9.983  2.2947 -1.2213 -2.4198
  102OSM    C8S10285   4.322   6.874   9.825  0.5809  0.3865  0.7459
  102OSM    H8S10286   4.220   6.836   9.801  0.7878  1.3223 -1.8397
  102OSM    H8T10287   4.399   6.811   9.776  0.3171  0.1953  0.5737
  102OSM    C9S10288   4.314   7.008   9.756 -0.3794  0.2829 -0.2542
  102OSM    H9S10289   4.415   7.044   9.725 -0.3067  0.1501 -0.1716
  102OSM    H9T10290   4.268   7.074   9.832  0.0379  0.2824  0.0024
  102OSM   C10S10291   4.221   7.012   9.624 -0.2731 -0.6224 -0.4992
  102OSM   H10S10292   4.253   6.924   9.563  1.3363  1.3588 -2.7127
  102OSM   H10T10293   4.238   7.100   9.558 -1.3966  0.8647  1.1229
  102OSM   C11S10294   4.064   7.008   9.644  0.2782 -0.4583 -0.3579
  102OSM   H11S10295   4.038   7.088   9.717 -0.9754  0.6346 -1.9417
  102OSM   H11T10296   4.038   6.915   9.698 -0.0454  0.2184  0.7021
  102OSM   C12S10297   3.988   7.030   9.517  1.1137  0.3374  0.4979
  102OSM   H12S10298   3.881   7.009   9.538  1.7242 -1.1015  2.3771
  102OSM   H12T10299   4.036   6.960   9.445 -0.1727 -1.1485  1.0378
  102OSM   C13S10300   3.995   7.171   9.456  0.8193  0.5405  0.3335
  102OSM   H13S10301   4.099   7.210   9.459  0.5084  1.6855 -1.7620
  102OSM   H13T10302   3.933   7.239   9.518 -3.3859 -1.2633 -1.4952
  102OSM   C14S10303   3.946   7.183   9.316  0.4877  0.1277 -0.3005
  102OSM   H14S10304   3.835   7.181   9.311  0.4154  1.9953  0.1502
  102OSM   H14T10305   3.984   7.095   9.260 -0.5139 -1.0964  0.8638
  102OSM   C15S10306   3.984   7.308   9.239  0.5263 -0.1633 -0.2342
  102OSM   H15S10307   4.067   7.362   9.289  0.4923 -0.1040 -0.2415
  102OSM   H15T10308   3.897   7.376   9.227  1.4008  0.8829 -0.6843
  102OSM   C16S10309   4.027   7.278   9.093  0.3541  0.2970  0.6001
  102OSM   H16S10310   4.096   7.193   9.072 -1.5539 -0.8745 -1.2879
  102OSM   H16T10311   4.066   7.371   9.045 -0.6703 -0.0858 -1.0643
  102OSM   C17S10312   3.893   7.249   9.010 -0.5428  0.1429 -0.0888
  102OSM   H17S10313   3.825   7.337   9.018 -1.1194 -0.2618 -0.4484
  102OSM   H17T10314   3.847   7.165   9.066 -0.7519  0.1673 -0.2212
  102OSM   C18S10315   3.931   7.205   8.861  0.1518 -0.9347  0.2176
  102OSM   H18S10316   3.984   7.109   8.874 -1.4587 -1.7481  1.1844
  102OSM   H18T10317   3.993   7.285   8.815 -0.9641 -0.9001 -1.3233
  102OSM   H18U10318   3.838   7.200   8.800  0.7659 -1.2689 -0.7060
  102OSM    C1F10319   4.289   6.368  10.221  0.6233  0.1913 -0.3205
  102OSM     OF10320   4.205   6.279  10.252  0.3009  0.6836 -0.3962
  102OSM    C2F10321   4.401   6.342  10.129  0.1465  0.3387  0.3241
  102OSM    H2F10322   4.433   6.237  10.148 -0.3694  0.3695  1.4101
  102OSM    H2G10323   4.480   6.419  10.140 -0.2550  0.7426  0.3888
  102OSM    C3F10324   4.348   6.338   9.984  0.2394  0.2533  0.3365
  102OSM    H3F10325   4.276   6.259   9.956 -0.0855  0.2379  1.1676
  102OSM    H3G10326   4.426   6.326   9.906 -0.8949  1.1160 -0.9674
  102OSM    C4F10327   4.292   6.480   9.942 -0.5400  0.1108 -0.2678
  102OSM    H4F10328   4.360   6.567   9.958  0.4198  0.0378 -3.1788
  102OSM    H4G10329   4.200   6.496  10.002  0.4133 -0.2560  1.3223
  102OSM    C5F10330   4.244   6.483   9.800  0.2975  0.9863  0.6981
  102OSM    H5F10331   4.203   6.585   9.785 -0.4062  0.5687 -0.3239
  102OSM    H5G10332   4.162   6.410   9.781  1.6264 -0.0637 -1.2417
  102OSM    C6F10333   4.353   6.448   9.689  0.1623 -0.3907  1.1696
  102OSM    H6F10334   4.329   6.342   9.666 -1.9866  0.3725 -0.4880
  102OSM    H6G10335   4.459   6.447   9.721  0.4011 -1.9842  0.4420
  102OSM    C7F10336   4.341   6.535   9.559  0.2608  0.2821  0.1519
  102OSM    H7F10337   4.383   6.634   9.584 -1.5822  1.3845 -0.8703
  102OSM    H7G10338   4.234   6.552   9.534  0.0435  0.6437  1.2871
  102OSM    C8F10339   4.398   6.466   9.431 -0.3318 -0.9680 -0.2663
  102OSM    H8F10340   4.363   6.360   9.434 -0.5446 -0.8909  2.5032
  102OSM    H8G10341   4.508   6.469   9.426 -0.3319 -0.4187  0.0350
  102OSM    C9F10342   4.347   6.528   9.302  0.6459 -0.6129 -0.3645
  102OSM    H9F10343   4.240   6.518   9.279  0.6112 -2.5578  0.4114
  102OSM   C10F10344   4.414   6.606   9.213 -0.1497  0.5437 -0.2777
  102OSM   H10F10345   4.374   6.651   9.122 -0.6791 -1.6224 -1.1680
  102OSM   C11F10346   4.559   6.652   9.220  0.5133  0.3846 -0.1636
  102OSM   H11F10347   4.628   6.587   9.278 -0.4379  0.6008  1.2575
  102OSM   H11G10348   4.560   6.749   9.273 -1.5455 -0.7093  2.0802
  102OSM   C12F10349   4.609   6.684   9.079  0.1449  0.1383 -0.2005
  102OSM   H12F10350   4.539   6.759   9.036  0.5860  0.0521 -1.0807
  102OSM   H12G10351   4.614   6.595   9.013  0.6912  0.8536 -1.1422
  102OSM   C13F10352   4.743   6.755   9.091  0.3042 -0.1234  0.6321
  102OSM   H13F10353   4.825   6.686   9.121 -0.8062 -1.5163  0.5269
  102OSM   H13G10354   4.750   6.835   9.169  2.1583 -0.8895  1.3218
  102OSM   C14F10355   4.793   6.811   8.953  0.5642  0.3023  0.0565
  102OSM   H14F10356   4.867   6.893   8.964 -0.8802  1.9335 -1.7171
  102OSM   H14G10357   4.703   6.855   8.907 -1.0529 -1.5432  1.2910
  102OSM   C15F10358   4.844   6.705   8.854  0.3093 -0.1956  0.1377
  102OSM   H15F10359   4.761   6.633   8.839 -0.5654  0.1193  2.8766
  102OSM   H15G10360   4.919   6.647   8.911  2.0131  2.4268  0.6996
  102OSM   C16F10361   4.883   6.755   8.711 -0.8348  0.8095  0.2996
  102OSM   H16F10362   4.956   6.837   8.729 -1.7713  1.4114  1.5990
  102OSM   H16G10363   4.794   6.790   8.654  0.4937  1.5404 -1.4314
  102OSM   C17F10364   4.951   6.645   8.622 -0.1841  0.3717  0.3555
  102OSM   H17F10365   4.878   6.574   8.580  2.1021 -3.0502  1.6987
  102OSM   H17G10366   5.020   6.590   8.690 -0.4405 -1.2874 -0.6957
  102OSM   C18F10367   5.036   6.706   8.505 -0.8481 -0.5032 -0.0289
  102OSM   H18F10368   5.072   6.628   8.436 -1.4869 -0.8847  0.0627
  102OSM   H18G10369   5.121   6.765   8.545 -2.2140  1.4270  0.1947
  102OSM   H18H10370   4.979   6.771   8.435  1.5706  1.5036 -0.2856
  103OSM      N10371   2.639   3.247  10.662 -0.0912  0.2025 -0.0863
  103OSM    C1510372   2.769   3.315  10.617 -0.6820  0.1817 -0.8674
  103OSM   H15A10373   2.852   3.286  10.681 -1.6730 -1.0964 -0.1113
  103OSM   H15B10374   2.773   3.422  10.625  0.8397  0.1832 -1.1834
  103OSM   H15C10375   2.797   3.293  10.515  0.5172  0.5825 -0.6475
  103OSM    C1410376   2.661   3.097  10.662  0.1430 -0.7462  0.6687
  103OSM   H14A10377   2.713   3.063  10.574  0.6412  2.8496 -0.5605
  103OSM   H14B10378   2.567   3.046  10.676  0.4833 -1.2824  1.0663
  103OSM   H14C10379   2.713   3.067  10.752  0.5444  0.5903  0.9007
  103OSM    C1310380   2.595   3.294  10.797  0.6700  0.7062 -0.1039
  103OSM   H13A10381   2.617   3.398  10.816  0.1120  0.4494  2.2560
  103OSM   H13B10382   2.640   3.228  10.871  1.8775 -0.8471 -2.1021
  103OSM   H13C10383   2.490   3.272  10.804  1.1871 -2.0645  0.4543
  103OSM    C1210384   2.533   3.281  10.563  0.4269  0.1729  0.1403
  103OSM   H12A10385   2.560   3.253  10.462 -2.1087 -0.0761 -0.5392
  103OSM   H12B10386   2.515   3.387  10.565  3.4793  0.7626  0.7615
  103OSM    C1110387   2.388   3.220  10.591 -0.3744  0.2454 -0.1220
  103OSM   H11A10388   2.399   3.110  10.591 -2.0484  0.0442 -0.6477
  103OSM   H11B10389   2.329   3.232  10.497  0.6331 -2.5091 -1.2055
  103OSM      P10390   2.238   3.384  10.714  0.0170  0.0791 -0.0058
  103OSM    O1310391   2.216   3.412  10.854 -0.2876 -0.1051  0.1058
  103OSM    O1410392   2.298   3.485  10.633 -0.2228  0.3807  0.1444
  103OSM    O1110393   2.096   3.347  10.667 -0.1490 -0.1029 -0.1354
  103OSM    O1210394   2.315   3.254  10.712  0.0101  0.2047 -0.3833
  103OSM    C1S10395   2.012   3.430  10.588 -0.4381  0.7909  0.0498
  103OSM    H1S10396   2.051   3.534  10.584 -0.4733  0.8896  1.5924
  103OSM    H1T10397   1.914   3.448  10.639 -0.3514 -0.5275  0.7282
  103OSM     NF10398   1.968   3.466  10.346 -0.5496 -0.7416 -0.2095
  103OSM    HNF10399   1.870   3.480  10.332 -0.0192  0.6087 -3.3808
  103OSM    C2S10400   2.009   3.367  10.441 -0.0630  0.2853 -0.2016
  103OSM    H2S10401   2.114   3.335  10.423 -0.0170  0.0490  0.4650
  103OSM    C3S10402   1.924   3.243  10.449 -0.0872  0.4685 -0.7225
  103OSM    H3S10403   1.821   3.263  10.487 -0.2720 -1.2824 -0.2202
  103OSM     O310404   1.974   3.144  10.529  0.1601  0.7665 -0.4802
  103OSM    HO310405   2.018   3.199  10.595  0.0202 -0.1888  0.4432
  103OSM    C4S10406   1.922   3.186  10.313 -0.0766  0.2218 -0.8447
  103OSM    H4S10407   2.026   3.154  10.295  0.1520  1.0545 -1.0427
  103OSM    C5S10408   1.821   3.148  10.229 -0.2481 -0.2546  0.5741
  103OSM    H5S10409   1.722   3.192  10.248 -1.3346 -2.8288  1.3826
  103OSM    C6S10410   1.853   3.109  10.084 -0.5099 -0.5537  0.6497
  103OSM    H6S10411   1.811   3.008  10.070 -1.4986 -0.2908  1.5792
  103OSM    H6T10412   1.962   3.097  10.064 -0.2527 -1.5732  2.4356
  103OSM    C7S10413   1.788   3.204   9.981 -0.4099 -0.1943 -0.1763
  103OSM    H7S10414   1.847   3.298   9.979 -0.6582 -0.0369 -0.1839
  103OSM    H7T10415   1.681   3.222  10.004  0.0735 -1.3011  3.4821
  103OSM    C8S10416   1.803   3.141   9.837 -0.6780  0.7796 -0.5368
  103OSM    H8S10417   1.756   3.042   9.816 -1.2729  1.5839 -3.5177
  103OSM    H8T10418   1.912   3.131   9.822 -0.7802  0.0506 -0.8548
  103OSM    C9S10419   1.739   3.233   9.741 -0.2452  0.3310 -0.1744
  103OSM    H9S10420   1.778   3.338   9.746 -1.5355  0.8569 -0.7641
  103OSM    H9T10421   1.632   3.253   9.762 -0.8700 -0.7638 -2.1159
  103OSM   C10S10422   1.757   3.194   9.593  0.0772 -0.4774 -0.0448
  103OSM   H10S10423   1.729   3.087   9.596  2.8953 -1.3252 -0.8901
  103OSM   H10T10424   1.866   3.201   9.572  0.5657 -1.2428  2.0593
  103OSM   C11S10425   1.674   3.263   9.497  0.1074 -0.3051 -0.0747
  103OSM   H11S10426   1.676   3.374   9.501 -2.2704 -0.2449  2.4530
  103OSM   H11T10427   1.566   3.240   9.514 -0.4915  1.0709 -1.6620
  103OSM   C12S10428   1.700   3.227   9.348 -0.0475  0.9266 -0.2506
  103OSM   H12S10429   1.707   3.116   9.350  1.7366  0.9853 -1.3676
  103OSM   H12T10430   1.797   3.278   9.330  0.2226  0.7602  0.6879
  103OSM   C13S10431   1.592   3.277   9.255 -0.1250  0.2548 -0.2625
  103OSM   H13S10432   1.575   3.386   9.269  0.9283  0.1686  1.9982
  103OSM   H13T10433   1.503   3.224   9.295 -1.5776  1.6908 -1.4757
  103OSM   C14S10434   1.626   3.237   9.110  0.4527 -0.0973  0.3329
  103OSM   H14S10435   1.648   3.128   9.101  1.1948  0.0567  0.2214
  103OSM   H14T10436   1.718   3.290   9.079  0.5681 -0.3501  0.2363
  103OSM   C15S10437   1.520   3.279   9.002 -0.2589  0.3425 -0.1830
  103OSM   H15S10438   1.492   3.387   9.008 -1.2896  0.1207 -0.6927
  103OSM   H15T10439   1.425   3.231   9.032  0.3506 -0.9699 -0.2918
  103OSM   C16S10440   1.557   3.237   8.857  0.1414 -0.3386 -0.3702
  103OSM   H16S10441   1.647   3.297   8.830 -0.1213  1.0921  1.7488
  103OSM   H16T10442   1.476   3.272   8.790  0.5956  0.1608 -0.6716
  103OSM   C17S10443   1.564   3.086   8.836 -0.3995  1.0664  0.1607
  103OSM   H17S10444   1.470   3.035   8.867 -0.5259  0.9375 -0.4246
  103OSM   H17T10445   1.639   3.037   8.902 -1.8335  0.0291  1.1035
  103OSM   C18S10446   1.593   3.037   8.698  0.3172 -0.1885  0.6668
  103OSM   H18S10447   1.693   3.075   8.666  0.0663 -0.2898 -0.2768
  103OSM   H18T10448   1.514   3.078   8.631 -0.9358 -1.6337  1.2069
  103OSM   H18U10449   1.598   2.927   8.694  0.2231 -0.1812  0.3529
  103OSM    C1F10450   2.053   3.559  10.303  0.3440 -0.0213 -0.5759
  103OSM     OF10451   2.164   3.560  10.353 -0.1535 -0.4821  0.3521
  103OSM    C2F10452   2.010   3.669  10.208 -0.5677 -0.6083 -0.0173
  103OSM    H2F10453   2.105   3.718  10.178  0.7616 -2.4041  1.1005
  103OSM    H2G10454   1.943   3.737  10.265 -0.9878 -1.4531  0.5234
  103OSM    C3F10455   1.939   3.598  10.086 -0.5803 -0.1949 -0.7717
  103OSM    H3F10456   1.848   3.544  10.118  0.1631 -0.9933  0.0733
  103OSM    H3G10457   1.999   3.518  10.037 -3.0256 -0.6561 -3.2100
  103OSM    C4F10458   1.894   3.699   9.978  0.9706  0.3253  0.2995
  103OSM    H4F10459   1.819   3.768  10.021 -0.4622  0.5309 -2.3425
  103OSM    H4G10460   1.857   3.638   9.892  0.3273 -0.2396  0.9612
  103OSM    C5F10461   2.010   3.787   9.914  0.5421  0.7407  0.5164
  103OSM    H5F10462   2.079   3.711   9.874 -1.0811 -1.6344  1.9575
  103OSM    H5G10463   2.057   3.856   9.987 -2.8711  1.8124  1.9477
  103OSM    C6F10464   1.969   3.874   9.798  0.2967  0.1589  0.3439
  103OSM    H6F10465   1.930   3.969   9.841 -0.2166 -0.5838  1.5854
  103OSM    H6G10466   1.886   3.827   9.742  1.4993 -0.9896 -0.5486
  103OSM    C7F10467   2.081   3.893   9.694  0.1992 -0.0042 -0.7750
  103OSM    H7F10468   2.127   3.792   9.684 -3.2413 -1.5189 -4.1892
  103OSM    H7G10469   2.157   3.965   9.731 -0.2147  0.1587 -0.2337
  103OSM    C8F10470   2.031   3.933   9.547 -0.1984  0.4320 -0.4290
  103OSM    H8F10471   1.945   3.865   9.530  0.6346 -1.1935  1.4158
  103OSM    H8G10472   2.114   3.895   9.483  1.2858  0.0294  1.6274
  103OSM    C9F10473   2.001   4.075   9.518  0.1996  0.0960  0.0350
  103OSM    H9F10474   1.979   4.140   9.603 -1.0779  0.5195 -0.5829
  103OSM   C10F10475   1.990   4.130   9.396  0.1970  0.4148  0.2056
  103OSM   H10F10476   1.956   4.234   9.393 -0.7526  0.1063 -0.5077
  103OSM   C11F10477   2.014   4.073   9.258 -0.0558  0.4712  0.9125
  103OSM   H11F10478   1.940   4.100   9.180 -0.1864  0.6744  1.1067
  103OSM   H11G10479   2.024   3.963   9.267  0.3182  0.4876  0.7017
  103OSM   C12F10480   2.151   4.115   9.200 -0.0318  0.5119  0.3796
  103OSM   H12F10481   2.234   4.061   9.250 -0.7975 -1.0449  0.0265
  103OSM   H12G10482   2.164   4.225   9.196 -0.9963  0.6632  1.0122
  103OSM   C13F10483   2.162   4.062   9.055  0.2110  0.1830  0.2915
  103OSM   H13F10484   2.119   3.960   9.055 -2.9039  1.3712  1.1069
  103OSM   H13G10485   2.268   4.046   9.028 -0.5611 -1.9148 -1.8157
  103OSM   C14F10486   2.082   4.142   8.950 -1.2559 -0.7492  0.2817
  103OSM   H14F10487   2.116   4.246   8.964  1.0057 -1.2455 -1.0764
  103OSM   H14G10488   1.976   4.129   8.981 -0.8230  0.4545  2.4341
  103OSM   C15F10489   2.109   4.107   8.804  0.1194 -0.4182  1.2789
  103OSM   H15F10490   2.218   4.120   8.789  0.0199 -0.1459  0.7701
  103OSM   H15G10491   2.054   4.185   8.746 -1.3374 -2.1087  0.2849
  103OSM   C16F10492   2.058   3.962   8.767  0.1305 -0.7010 -0.3198
  103OSM   H16F10493   1.963   3.947   8.824 -0.6913 -2.1784 -1.9753
  103OSM   H16G10494   2.130   3.895   8.818  0.1734 -0.1769  0.3243
  103OSM   C17F10495   2.056   3.938   8.614 -0.4289 -1.4215 -0.2707
  103OSM   H17F10496   1.995   3.849   8.586 -0.8838 -0.6450 -1.9010
  103OSM   H17G10497   2.157   3.914   8.576  0.1956  2.3837 -1.4313
  103OSM   C18F10498   1.999   4.050   8.520 -0.0959  0.3197 -0.4301
  103OSM   H18F10499   2.081   4.117   8.487  1.1301 -0.5563  0.7476
  103OSM   H18G10500   1.927   4.115   8.574 -1.0402 -0.7410 -0.4002
  103OSM   H18H10501   1.944   3.993   8.443  2.9359 -0.0326 -2.5174
  104OSM      N10502   3.557   2.202  10.920  1.1034 -0.1408 -0.2518
  104OSM    C1510503   3.637   2.292  10.848 -0.2462  0.2332  0.0788
  104OSM   H15A10504   3.605   2.394  10.866 -1.7306 -0.1698 -0.1506
  104OSM   H15B10505   3.636   2.285  10.740 -2.1518  1.0307 -0.0015
  104OSM   H15C10506   3.738   2.274  10.882 -0.2912 -0.3127 -0.0759
  104OSM    C1410507   3.599   2.061  10.912 -0.2415  0.2192 -0.3363
  104OSM   H14A10508   3.689   2.049  10.971 -2.7196 -0.3449  3.6890
  104OSM   H14B10509   3.629   2.030  10.813 -1.1018 -0.1579 -0.4855
  104OSM   H14C10510   3.534   1.994  10.965  3.2152 -2.1087  1.3464
  104OSM    C1310511   3.552   2.246  11.069  0.6508 -0.2521 -0.0307
  104OSM   H13A10512   3.483   2.173  11.108  1.5107 -2.8631 -2.9722
  104OSM   H13B10513   3.520   2.348  11.083  1.9737  0.3205 -0.9798
  104OSM   H13C10514   3.646   2.244  11.122 -0.1027  1.0675  1.4470
  104OSM    C1210515   3.418   2.216  10.856  0.4392  0.6035  0.4324
  104OSM   H12A10516   3.354   2.141  10.900  0.8892 -0.0086  0.0711
  104OSM   H12B10517   3.430   2.198  10.750  0.3917 -1.4037  0.7289
  104OSM    C1110518   3.335   2.351  10.879 -0.5672  0.2858  0.6090
  104OSM   H11A10519   3.308   2.354  10.987 -0.0792 -0.9044  0.7761
  104OSM   H11B10520   3.241   2.329  10.825 -0.7000  1.2122  0.4524
  104OSM      P10521   3.350   2.551  10.722 -0.2256 -0.3537 -0.1806
  104OSM    O1310522   3.200   2.556  10.728 -0.2812 -0.0252 -0.8789
  104OSM    O1410523   3.425   2.675  10.711 -0.2888 -0.5950  0.3201
  104OSM    O1110524   3.393   2.460  10.603 -0.1917 -0.1484  0.6499
  104OSM    O1210525   3.401   2.469  10.837  0.2534 -0.2320 -0.6014
  104OSM    C1S10526   3.339   2.471  10.473 -0.3219  0.2611  0.0374
  104OSM    H1S10527   3.298   2.572  10.455  0.3086  0.6526  0.7325
  104OSM    H1T10528   3.255   2.399  10.462 -1.2355  1.2518  0.3235
  104OSM     NF10529   3.404   2.457  10.230  0.2682  0.1404 -0.5418
  104OSM    HNF10530   3.381   2.380  10.172 -0.9670  0.8496 -1.0421
  104OSM    C2S10531   3.442   2.431  10.372 -0.0991  0.1470  0.5454
  104OSM    H2S10532   3.531   2.493  10.396  0.4139  0.0600 -1.0154
  104OSM    C3S10533   3.491   2.286  10.390  0.0940  0.1375  0.1213
  104OSM    H3S10534   3.409   2.212  10.378  1.8924 -2.2036  1.2522
  104OSM     O310535   3.526   2.256  10.524  0.2143 -0.1218 -0.4079
  104OSM    HO310536   3.496   2.335  10.570  0.2389  1.0760 -2.3087
  104OSM    C4S10537   3.613   2.253  10.302  0.2772 -0.3715  0.4299
  104OSM    H4S10538   3.692   2.329  10.292 -0.2832  0.0066 -1.6456
  104OSM    C5S10539   3.618   2.141  10.227  0.1418  0.7579  0.7033
  104OSM    H5S10540   3.538   2.065  10.224  0.1246  0.6739  2.5029
  104OSM    C6S10541   3.728   2.100  10.128 -0.4210 -0.5705 -0.3861
  104OSM    H6S10542   3.685   2.016  10.069 -0.9661 -0.7153  0.1996
  104OSM    H6T10543   3.825   2.077  10.177 -0.9221  0.4211  1.1583
  104OSM    C7S10544   3.766   2.215  10.037  0.8046 -0.2986  0.7794
  104OSM    H7S10545   3.857   2.192   9.978  0.3968 -0.9251  0.3833
  104OSM    H7T10546   3.784   2.303  10.102 -3.2801  0.7916  0.7209
  104OSM    C8S10547   3.639   2.253   9.948 -0.2589 -0.2746 -0.0137
  104OSM    H8S10548   3.554   2.294  10.008 -0.5352  1.4011 -1.4795
  104OSM    H8T10549   3.594   2.158   9.911 -0.1894 -0.3827  0.1767
  104OSM    C9S10550   3.672   2.342   9.831  0.6389 -0.2534  0.4523
  104OSM    H9S10551   3.765   2.303   9.783  1.0273  0.7949  0.3366
  104OSM    H9T10552   3.702   2.440   9.873  0.3070 -0.7540  1.9104
  104OSM   C10S10553   3.560   2.376   9.732  0.0523  0.3295 -0.2110
  104OSM   H10S10554   3.481   2.440   9.778 -1.6537  0.8276 -3.4923
  104OSM   H10T10555   3.503   2.286   9.699  1.8367 -1.7106  1.8970
  104OSM   C11S10556   3.614   2.449   9.605  0.1727 -0.4004 -0.8312
  104OSM   H11S10557   3.682   2.529   9.642  0.0555 -2.2920  4.4096
  104OSM   H11T10558   3.529   2.486   9.544  0.5676  0.0693 -1.0994
  104OSM   C12S10559   3.696   2.361   9.503 -0.6585 -0.3596 -0.1354
  104OSM   H12S10560   3.609   2.300   9.470  0.1511 -0.6349 -1.8558
  104OSM   H12T10561   3.771   2.291   9.544  0.3280  0.4842 -0.4556
  104OSM   C13S10562   3.754   2.436   9.381 -0.1858  0.2309  0.4716
  104OSM   H13S10563   3.842   2.492   9.420 -1.5039  0.7656  2.8575
  104OSM   H13T10564   3.668   2.501   9.354 -0.1164 -0.0612 -0.5003
  104OSM   C14S10565   3.798   2.355   9.258 -0.0821  0.3674  0.1694
  104OSM   H14S10566   3.706   2.309   9.215 -0.6178  1.3588  0.2271
  104OSM   H14T10567   3.872   2.277   9.285  1.0390  1.6946  1.1070
  104OSM   C15S10568   3.846   2.433   9.131 -0.4812 -0.0555 -0.2290
  104OSM   H15S10569   3.950   2.465   9.149  0.0446 -1.5107 -0.5476
  104OSM   H15T10570   3.781   2.521   9.110  0.9731  0.9244 -0.7570
  104OSM   C16S10571   3.836   2.342   9.008 -0.4368 -0.2646 -0.1812
  104OSM   H16S10572   3.730   2.327   8.979 -0.2734 -3.2234  0.4732
  104OSM   H16T10573   3.877   2.246   9.045  0.1436  0.3286  0.7608
  104OSM   C17S10574   3.914   2.403   8.886  0.6334 -0.4435  0.0250
  104OSM   H17S10575   4.010   2.430   8.936  0.6354 -2.0534  0.9374
  104OSM   H17T10576   3.862   2.493   8.847  1.0996 -0.7057 -1.2641
  104OSM   C18S10577   3.936   2.310   8.768 -0.3187  0.0051  0.4174
  104OSM   H18S10578   3.981   2.212   8.794  0.7937  0.5522  0.6140
  104OSM   H18T10579   4.008   2.361   8.701 -0.4205  2.1472  1.8338
  104OSM   H18U10580   3.848   2.284   8.704  0.6900  0.7279 -1.3403
  104OSM    C1F10581   3.379   2.574  10.178  0.2948 -0.1311  0.4515
  104OSM     OF10582   3.418   2.671  10.239 -0.1252  0.0342  0.2076
  104OSM    C2F10583   3.299   2.580  10.047 -0.0380 -0.4403 -0.3274
  104OSM    H2F10584   3.190   2.585  10.070  0.0844 -3.1288  1.2400
  104OSM    H2G10585   3.324   2.487   9.993  1.1434 -0.1322 -0.3313
  104OSM    C3F10586   3.342   2.691   9.952 -0.2723 -0.1022 -0.0391
  104OSM    H3F10587   3.447   2.680   9.917 -0.1194 -0.0804  0.4050
  104OSM    H3G10588   3.354   2.790  10.002  0.4553  0.8187 -1.9432
  104OSM    C4F10589   3.255   2.729   9.832 -0.6572 -0.0470  0.3626
  104OSM    H4F10590   3.258   2.648   9.755 -0.2222  1.8999 -1.7810
  104OSM    H4G10591   3.306   2.819   9.791 -0.1817  1.3780  3.7349
  104OSM    C5F10592   3.106   2.773   9.856 -0.0529  0.4053  0.3453
  104OSM    H5F10593   3.097   2.811   9.960  0.7613 -1.9792  1.3592
  104OSM    H5G10594   3.047   2.678   9.852 -1.7556  1.4542 -0.5630
  104OSM    C6F10595   3.035   2.867   9.759  0.1149  0.0661  0.2665
  104OSM    H6F10596   3.010   2.820   9.662 -0.1555 -2.2943  1.4163
  104OSM    H6G10597   3.101   2.955   9.745  1.3396 -0.8585  0.0823
  104OSM    C7F10598   2.899   2.929   9.820  0.0309  0.6854 -0.0714
  104OSM    H7F10599   2.840   2.839   9.848  1.4593 -0.6142 -1.1010
  104OSM    H7G10600   2.840   2.968   9.735 -2.1581  1.1800  1.5614
  104OSM    C8F10601   2.922   3.043   9.916  0.1620  0.3655  0.8057
  104OSM    H8F10602   2.948   3.130   9.852  1.5930 -0.2613  0.4890
  104OSM    H8G10603   3.011   3.022   9.981  1.1474 -0.2310 -0.6906
  104OSM    C9F10604   2.802   3.076   9.994  0.6197 -0.6245 -0.5043
  104OSM    H9F10605   2.767   3.004  10.069 -0.6736 -1.4980 -1.8906
  104OSM   C10F10606   2.735   3.188   9.978  0.5316 -1.5197 -0.3830
  104OSM   H10F10607   2.644   3.194  10.040  1.2421  1.7728  0.4856
  104OSM   C11F10608   2.755   3.304   9.888 -0.6745 -0.3595  0.2434
  104OSM   H11F10609   2.830   3.280   9.810  0.4236 -2.1626  1.7783
  104OSM   H11G10610   2.794   3.395   9.939  0.2534  0.5391 -1.9060
  104OSM   C12F10611   2.621   3.344   9.820 -0.3745  0.1570  0.2617
  104OSM   H12F10612   2.630   3.435   9.757 -0.6206  0.4599  0.6566
  104OSM   H12G10613   2.538   3.363   9.892  1.1329  1.0408  1.8509
  104OSM   C13F10614   2.558   3.239   9.727 -1.1253 -0.7877  0.0158
  104OSM   H13F10615   2.482   3.292   9.666  1.9465  0.6231 -2.8791
  104OSM   H13G10616   2.496   3.156   9.769  0.2308 -2.7093 -1.5661
  104OSM   C14F10617   2.646   3.180   9.609  0.0989 -0.7022 -0.5228
  104OSM   H14F10618   2.732   3.133   9.661 -0.3449  1.7011  2.6921
  104OSM   H14G10619   2.680   3.258   9.537  1.0074  0.5812  1.2359
  104OSM   C15F10620   2.571   3.085   9.515 -0.3637  0.5296 -0.1102
  104OSM   H15F10621   2.479   3.135   9.480 -1.4016  0.0173  1.7512
  104OSM   H15G10622   2.538   2.995   9.572 -1.1283  1.8294  1.5782
  104OSM   C16F10623   2.659   3.034   9.397 -0.2380  0.3972 -0.3016
  104OSM   H16F10624   2.742   2.967   9.426 -1.1842 -0.0314  1.5469
  104OSM   H16G10625   2.702   3.121   9.343 -1.3726  1.5922  0.6623
  104OSM   C17F10626   2.574   2.957   9.287 -0.1491 -0.1062 -0.6589
  104OSM   H17F10627   2.515   2.884   9.347  0.5674  0.3168  0.5827
  104OSM   H17G10628   2.641   2.893   9.226  0.8958 -0.1269  0.4940
  104OSM   C18F10629   2.478   3.035   9.203 -0.1996 -0.6569  0.2667
  104OSM   H18F10630   2.400   3.081   9.268 -1.9904 -0.2157 -2.0764
  104OSM   H18G10631   2.427   2.965   9.134 -0.8247 -1.4327  1.4690
  104OSM   H18H10632   2.528   3.124   9.159  1.0293 -0.3302  2.1883
  105OSM      N10633   6.227   4.811  10.841 -0.7560 -0.6133  0.0674
  105OSM    C1510634   6.207   4.902  10.962  0.9313  0.1037  0.2384
  105OSM   H15A10635   6.103   4.923  10.986  0.8298 -0.9504  0.7872
  105OSM   H15B10636   6.254   4.998  10.954  2.1838 -0.4864  0.3324
  105OSM   H15C10637   6.259   4.856  11.045  0.8727 -2.9698 -1.2903
  105OSM    C1410638   6.161   4.866  10.717  0.5171  0.9026  0.0457
  105OSM   H14A10639   6.054   4.851  10.722  0.6912 -0.1873  1.1359
  105OSM   H14B10640   6.194   4.808  10.631  1.4435  0.4957  0.6536
  105OSM   H14C10641   6.196   4.968  10.708  1.5552  0.5738  0.2209
  105OSM    C1310642   6.373   4.800  10.822 -0.3729 -0.0505  0.6969
  105OSM   H13A10643   6.419   4.896  10.805 -2.7213  1.3674  1.8167
  105OSM   H13B10644   6.404   4.746  10.734  0.0502 -0.6886  1.2308
  105OSM   H13C10645   6.423   4.753  10.906  1.7976 -0.3160 -0.6756
  105OSM    C1210646   6.168   4.678  10.866 -0.2383  0.6184  0.1599
  105OSM   H12A10647   6.224   4.624  10.941  0.3294  0.9908  0.0122
  105OSM   H12B10648   6.173   4.628  10.770 -3.2373 -0.6567  0.5580
  105OSM    C1110649   6.018   4.676  10.908  0.1658  0.3957  0.7850
  105OSM   H11A10650   6.002   4.739  10.998  0.7092 -1.5437  2.2943
  105OSM   H11B10651   5.994   4.577  10.952  1.6802 -0.2086  0.3105
  105OSM      P10652   5.784   4.746  10.824 -0.5166 -0.4551 -0.4162
  105OSM    O1310653   5.758   4.736  10.971 -0.1064  0.2662  0.6069
  105OSM    O1410654   5.751   4.884  10.779  0.1310 -0.1164 -0.3048
  105OSM    O1110655   5.702   4.630  10.754  0.0206 -0.6432 -0.6789
  105OSM    O1210656   5.935   4.708  10.799 -0.0437  0.5275  0.0744
  105OSM    C1S10657   5.678   4.651  10.612 -0.2794  0.6239  0.6547
  105OSM    H1S10658   5.674   4.755  10.573  0.3264 -0.2597 -2.0018
  105OSM    H1T10659   5.584   4.601  10.583  0.9869 -0.9999 -0.9171
  105OSM     NF10660   5.768   4.635  10.375 -0.3922  0.0789  0.1848
  105OSM    HNF10661   5.718   4.578  10.310 -0.4555 -0.8122  0.9902
  105OSM    C2S10662   5.778   4.583  10.513 -0.5513 -0.2899  0.2978
  105OSM    H2S10663   5.883   4.595  10.546  0.5632 -1.8605 -2.3507
  105OSM    C3S10664   5.764   4.426  10.530  0.0979  0.0723  0.1038
  105OSM    H3S10665   5.663   4.391  10.498  0.3559  0.2578 -0.9636
  105OSM     O310666   5.759   4.386  10.670 -0.4196  0.1223  0.3126
  105OSM    HO310667   5.772   4.461  10.727  0.5502 -0.1060  0.4198
  105OSM    C4S10668   5.869   4.368  10.444  0.0512  0.3011  0.2292
  105OSM    H4S10669   5.837   4.341  10.342 -3.1995  2.8705  0.4022
  105OSM    C5S10670   5.994   4.337  10.484  0.1305  0.0549  0.1580
  105OSM    H5S10671   6.012   4.361  10.590 -1.4870 -0.1170  0.4935
  105OSM    C6S10672   6.108   4.277  10.404 -0.2694 -0.2767 -0.9384
  105OSM    H6S10673   6.167   4.202  10.461  1.6349  0.6150 -1.6513
  105OSM    H6T10674   6.186   4.353  10.381  1.0920 -0.4158  2.4872
  105OSM    C7S10675   6.063   4.208  10.277 -0.4149 -0.4154  0.1788
  105OSM    H7S10676   6.013   4.282  10.211 -0.1597 -0.9566 -0.6375
  105OSM    H7T10677   5.983   4.133  10.292  0.6869 -1.5382  0.6645
  105OSM    C8S10678   6.177   4.138  10.198 -0.7879 -0.2377 -0.0585
  105OSM    H8S10679   6.225   4.059  10.258  0.6118 -0.4000 -1.3266
  105OSM    H8T10680   6.242   4.220  10.159  0.6382 -1.1232  0.3956
  105OSM    C9S10681   6.124   4.072  10.070 -0.0887 -0.3205 -0.3367
  105OSM    H9S10682   6.075   4.142  10.000  1.9261  0.8180 -0.6765
  105OSM    H9T10683   6.053   3.989  10.090  2.6004 -3.2197 -2.0017
  105OSM   C10S10684   6.246   4.000   9.994 -0.9524 -0.3900  0.5829
  105OSM   H10S10685   6.257   3.918  10.069  2.3610  0.0216  0.6687
  105OSM   H10T10686   6.343   4.051   9.977  0.0355 -2.4560 -0.4653
  105OSM   C11S10687   6.211   3.933   9.862  0.0204 -0.1382 -0.4683
  105OSM   H11S10688   6.100   3.928   9.864 -0.1783  2.1720 -1.7975
  105OSM   H11T10689   6.228   3.823   9.863  1.5907  0.0812  0.9882
  105OSM   C12S10690   6.270   4.009   9.740 -0.5808  0.1534 -0.2193
  105OSM   H12S10691   6.380   4.003   9.746 -0.6212 -0.3089  0.1307
  105OSM   H12T10692   6.228   4.111   9.733  1.6535  1.0784 -0.9208
  105OSM   C13S10693   6.236   3.937   9.611 -0.1935  0.3590  0.7214
  105OSM   H13S10694   6.129   3.962   9.592 -0.5278 -1.4528  0.0772
  105OSM   H13T10695   6.249   3.829   9.632 -0.6459  0.1409 -0.0675
  105OSM   C14S10696   6.316   3.979   9.486  0.1389 -0.9218 -0.1348
  105OSM   H14S10697   6.423   3.953   9.504 -1.0383 -5.0643  2.4145
  105OSM   H14T10698   6.307   4.089   9.477  0.5147 -0.5883  2.7233
  105OSM   C15S10699   6.258   3.903   9.361  0.2197 -0.1971 -0.2582
  105OSM   H15S10700   6.148   3.918   9.364  0.0414 -1.3829 -0.5719
  105OSM   H15T10701   6.255   3.792   9.361  2.8759 -0.3471 -0.9993
  105OSM   C16S10702   6.333   3.948   9.233  0.4558  0.7519 -0.5240
  105OSM   H16S10703   6.309   3.876   9.152  2.7354 -0.5142 -0.1823
  105OSM   H16T10704   6.438   3.934   9.267 -0.7439 -0.0594  3.3506
  105OSM   C17S10705   6.319   4.084   9.173 -0.0880  0.9486 -0.6679
  105OSM   H17S10706   6.350   4.169   9.237 -0.3605 -1.0059  2.2249
  105OSM   H17T10707   6.210   4.098   9.155  0.0617  0.8996 -1.6852
  105OSM   C18S10708   6.392   4.076   9.028  0.8371  0.5063 -0.4288
  105OSM   H18S10709   6.494   4.038   9.049  0.3931  0.0163  1.0344
  105OSM   H18T10710   6.388   4.177   8.982  0.6231  0.4032 -0.6397
  105OSM   H18U10711   6.346   3.995   8.969  3.0694 -1.0999 -0.0769
  105OSM    C1F10712   5.802   4.757  10.340 -0.1704 -0.5811 -0.1332
  105OSM     OF10713   5.842   4.838  10.424  0.1206 -0.5318 -0.4790
  105OSM    C2F10714   5.790   4.807  10.197 -0.4995  0.6297  0.3452
  105OSM    H2F10715   5.714   4.744  10.146  0.7791 -2.1999  1.6738
  105OSM    H2G10716   5.883   4.779  10.143 -0.2447  0.1190  1.0379
  105OSM    C3F10717   5.763   4.954  10.180 -0.7355  0.0001 -0.1593
  105OSM    H3F10718   5.798   5.008  10.271 -1.1188 -1.7327  1.0579
  105OSM    H3G10719   5.653   4.966  10.184 -0.6670  0.4797  0.5276
  105OSM    C4F10720   5.823   5.008  10.051  0.1742  0.3336 -0.2548
  105OSM    H4F10721   5.934   5.003  10.057  0.1507 -1.1703 -0.7410
  105OSM    H4G10722   5.792   5.112  10.028 -3.0348 -0.0520  1.7012
  105OSM    C5F10723   5.781   4.936   9.925  0.4555  0.6952  0.1700
  105OSM    H5F10724   5.672   4.914   9.925  0.6972 -0.6541 -1.1089
  105OSM    H5G10725   5.830   4.837   9.919  2.3740  1.5452  0.8363
  105OSM    C6F10726   5.826   5.000   9.792 -0.4867  0.0319 -0.7895
  105OSM    H6F10727   5.936   5.018   9.791 -0.4034 -0.4083 -0.2591
  105OSM    H6G10728   5.776   5.099   9.789 -1.1256 -0.2042  0.9980
  105OSM    C7F10729   5.800   4.926   9.667 -0.1891 -0.5134  0.1373
  105OSM    H7F10730   5.690   4.909   9.671 -0.3717  0.2112 -1.3434
  105OSM    H7G10731   5.848   4.826   9.663  0.5234 -0.1961  0.5798
  105OSM    C8F10732   5.834   5.010   9.541  0.2144 -0.5219  0.2933
  105OSM    H8F10733   5.791   5.112   9.550  2.2639  0.3929  0.1896
  105OSM    H8G10734   5.783   4.955   9.459  0.8059  2.1679 -2.0170
  105OSM    C9F10735   5.987   5.025   9.523 -0.5387  0.0552  0.4705
  105OSM    H9F10736   6.046   5.065   9.607 -1.4548  2.8092 -0.0779
  105OSM   C10F10737   6.043   5.022   9.395  0.2820 -0.1131 -1.0943
  105OSM   H10F10738   6.153   5.030   9.395  0.1497  3.0269  0.1914
  105OSM   C11F10739   5.985   5.003   9.262 -0.2315  0.2973  0.1553
  105OSM   H11F10740   5.950   5.105   9.233 -1.9227 -0.5010 -0.7486
  105OSM   H11G10741   5.903   4.929   9.269 -0.3982  0.6120  2.0322
  105OSM   C12F10742   6.083   4.958   9.155  0.5127 -0.3700 -0.4052
  105OSM   H12F10743   6.140   4.868   9.189  0.5390 -0.6429 -1.1542
  105OSM   H12G10744   6.148   5.043   9.126 -0.8449 -0.1116 -2.9692
  105OSM   C13F10745   6.021   4.922   9.025 -0.4249 -0.5097 -0.8460
  105OSM   H13F10746   5.933   4.859   9.050 -0.7027  1.2556  3.4356
  105OSM   H13G10747   6.102   4.873   8.967  0.5708 -0.9798  0.8816
  105OSM   C14F10748   5.968   5.046   8.949  0.5538 -0.1764  0.4065
  105OSM   H14F10749   6.055   5.113   8.931  0.3792 -0.1187 -0.2423
  105OSM   H14G10750   5.894   5.101   9.012  0.8054  0.6722 -0.0219
  105OSM   C15F10751   5.904   5.007   8.814 -0.5373  0.0681 -0.1455
  105OSM   H15F10752   5.860   5.100   8.772  0.0873 -0.5610 -2.3341
  105OSM   H15G10753   5.819   4.946   8.851  1.0465 -0.8111  2.2603
  105OSM   C16F10754   5.989   4.952   8.705 -0.2031 -0.2436 -0.2422
  105OSM   H16F10755   6.066   4.881   8.743  0.2423  0.9459  1.1585
  105OSM   H16G10756   6.038   5.033   8.647 -1.2608  1.9772  1.8052
  105OSM   C17F10757   5.913   4.867   8.603  0.2875  0.0102  0.2654
  105OSM   H17F10758   5.838   4.935   8.558  0.2621 -0.8722 -1.0841
  105OSM   H17G10759   5.865   4.783   8.657  3.3985 -1.7028  0.6269
  105OSM   C18F10760   6.017   4.814   8.500  0.6804  0.5028  0.6579
  105OSM   H18F10761   5.961   4.727   8.459  2.7492 -0.0852 -1.0562
  105OSM   H18G10762   6.113   4.773   8.537  0.6992 -2.2754 -2.0982
  105OSM   H18H10763   6.037   4.889   8.421  0.0911 -1.6140 -1.5931
  106OSM      N10764   4.271   4.502  10.864 -0.1870  0.3711 -0.3190
  106OSM    C1510765   4.367   4.510  10.974 -0.1209  0.1590  0.1046
  106OSM   H15A10766   4.354   4.601  11.030  2.8164  0.1625  0.9356
  106OSM   H15B10767   4.461   4.503  10.920 -1.6432 -1.0711 -2.6227
  106OSM   H15C10768   4.365   4.426  11.042  0.1607  0.5166  0.5519
  106OSM    C1410769   4.128   4.479  10.909 -0.2931 -0.1835  0.4332
  106OSM   H14A10770   4.063   4.468  10.823  0.4456 -0.0550 -0.1510
  106OSM   H14B10771   4.103   4.568  10.965 -0.0807 -0.9277  1.7297
  106OSM   H14C10772   4.115   4.389  10.966  1.5928 -0.7318  0.0580
  106OSM    C1310773   4.267   4.627  10.778  0.5306  0.1385 -0.1770
  106OSM   H13A10774   4.355   4.642  10.718  0.4135  0.1895 -0.3354
  106OSM   H13B10775   4.256   4.719  10.834 -1.0295 -0.1063 -0.0553
  106OSM   H13C10776   4.178   4.624  10.718  0.5790 -0.2574 -0.2344
  106OSM    C1210777   4.309   4.387  10.770 -0.2195  0.1574  0.1817
  106OSM   H12A10778   4.231   4.370  10.698  1.6065 -1.2084 -1.6299
  106OSM   H12B10779   4.307   4.299  10.832 -2.1543  0.3936  0.5001
  106OSM    C1110780   4.443   4.377  10.702 -0.7623 -0.7481  0.2812
  106OSM   H11A10781   4.439   4.455  10.623 -1.6740 -0.0416  0.9955
  106OSM   H11B10782   4.445   4.276  10.656  2.0511 -0.3791 -0.5831
  106OSM      P10783   4.688   4.439  10.735  0.2866  0.5963 -0.1428
  106OSM    O1310784   4.766   4.517  10.830  0.1409 -0.1473  0.0504
  106OSM    O1410785   4.750   4.312  10.691  0.1664 -0.7422  0.6075
  106OSM    O1110786   4.667   4.527  10.610 -0.3500 -0.5022  0.0311
  106OSM    O1210787   4.548   4.398  10.788  0.0379 -0.1598 -0.2619
  106OSM    C1S10788   4.761   4.529  10.501  0.4791 -0.0901  0.9879
  106OSM    H1S10789   4.798   4.426  10.482  2.0694  0.0645  2.8630
  106OSM    H1T10790   4.848   4.593  10.528 -0.3253  1.7440 -0.5742
  106OSM     NF10791   4.810   4.567  10.269 -0.6000  0.4560 -0.1398
  106OSM    HNF10792   4.868   4.647  10.263  1.0802 -0.7382 -0.4657
  106OSM    C2S10793   4.709   4.584  10.369 -0.4303  0.3054 -0.2820
  106OSM    H2S10794   4.619   4.527  10.339 -1.5938  1.3675  0.9992
  106OSM    C3S10795   4.660   4.729  10.396  0.1631  0.0451  0.3366
  106OSM    H3S10796   4.749   4.787  10.431 -0.1748  1.0326 -0.3832
  106OSM     O310797   4.555   4.736  10.492 -0.6224  0.1809 -0.4390
  106OSM    HO310798   4.570   4.649  10.530 -1.7365  1.1239  2.3822
  106OSM    C4S10799   4.600   4.790  10.269 -0.1330  0.2811 -0.1850
  106OSM    H4S10800   4.508   4.750  10.224  0.2319  1.2421 -1.8485
  106OSM    C5S10801   4.665   4.890  10.213 -0.3552 -0.1188  0.7403
  106OSM    H5S10802   4.746   4.939  10.268  0.9328 -0.4784 -0.7696
  106OSM    C6S10803   4.626   4.963  10.082  0.7084  0.1461 -0.0481
  106OSM    H6S10804   4.675   5.063  10.079  1.5214 -0.2288  0.3538
  106OSM    H6T10805   4.516   4.972  10.071  0.7609  1.3610  0.2727
  106OSM    C7S10806   4.680   4.892   9.955  0.1073 -0.7505 -0.8551
  106OSM    H7S10807   4.640   4.943   9.864 -0.8570  0.4287  0.1974
  106OSM    H7T10808   4.631   4.792   9.953 -0.2046 -0.5947 -1.1568
  106OSM    C8S10809   4.832   4.879   9.955 -0.2230  0.5786  0.2672
  106OSM    H8S10810   4.862   4.831  10.051 -2.5894  0.6739  1.1330
  106OSM    H8T10811   4.884   4.976   9.943  2.6700 -1.0760 -1.6722
  106OSM    C9S10812   4.888   4.797   9.831  0.0896  0.3635 -1.1932
  106OSM    H9S10813   4.843   4.698   9.809  0.6274 -0.0780 -0.3310
  106OSM    H9T10814   4.991   4.776   9.864 -0.5256  1.9798  2.2781
  106OSM   C10S10815   4.890   4.880   9.701 -0.6844  0.0373  0.3612
  106OSM   H10S10816   4.937   4.978   9.726 -1.2882  0.7990 -1.3565
  106OSM   H10T10817   4.785   4.895   9.669  0.0788  3.7849 -0.8872
  106OSM   C11S10818   4.972   4.814   9.589  0.3449  0.9744  0.2405
  106OSM   H11S10819   4.949   4.707   9.574  1.7976  0.5728  0.7009
  106OSM   H11T10820   5.082   4.811   9.602  0.4879 -3.9832 -0.1515
  106OSM   C12S10821   4.962   4.875   9.451  0.0658  0.1821 -0.6424
  106OSM   H12S10822   4.992   4.981   9.458  0.7996 -0.1214  2.5926
  106OSM   H12T10823   4.858   4.894   9.419 -0.5073 -0.2848  0.8392
  106OSM   C13S10824   5.030   4.809   9.336  0.7271  0.1604  0.4269
  106OSM   H13S10825   5.008   4.700   9.335 -0.4389  0.2969  3.3317
  106OSM   H13T10826   5.139   4.830   9.342  1.4049 -2.2953 -1.4847
  106OSM   C14S10827   5.001   4.873   9.198  0.2561 -0.5573  0.7317
  106OSM   H14S10828   5.038   4.977   9.195 -3.0845  0.7761  0.6948
  106OSM   H14T10829   4.893   4.868   9.170  0.0581  0.5573  1.2557
  106OSM   C15S10830   5.072   4.795   9.088  0.7796  0.2484  0.5369
  106OSM   H15S10831   5.050   4.688   9.107  1.3389  0.4307  2.3500
  106OSM   H15T10832   5.180   4.800   9.111  0.5635 -1.7830  2.2732
  106OSM   C16S10833   5.033   4.829   8.946  0.8743 -0.0668  0.3357
  106OSM   H16S10834   4.923   4.837   8.933  1.0689  4.1788  0.0292
  106OSM   H16T10835   5.079   4.737   8.902 -0.1868 -1.1725  1.4491
  106OSM   C17S10836   5.111   4.956   8.894 -0.2488  0.2834 -0.3318
  106OSM   H17S10837   5.216   4.940   8.925 -0.5775 -2.4572 -0.3592
  106OSM   H17T10838   5.067   5.037   8.956 -1.6186 -2.2017  2.2023
  106OSM   C18S10839   5.086   5.000   8.749  0.9878 -0.6964  0.4929
  106OSM   H18S10840   5.169   5.065   8.714 -1.1752  2.7363  1.2701
  106OSM   H18T10841   4.989   5.052   8.737 -2.0084 -5.7634 -0.1723
  106OSM   H18U10842   5.068   4.912   8.684 -2.5061  0.3927 -0.2126
  106OSM    C1F10843   4.825   4.448  10.214  0.3391 -0.1161 -0.4230
  106OSM     OF10844   4.746   4.356  10.241 -0.0880 -0.0053  0.4237
  106OSM    C2F10845   4.932   4.430  10.103 -0.5307  0.2466 -0.4909
  106OSM    H2F10846   5.019   4.380  10.151  0.8148  2.7416 -0.2068
  106OSM    H2G10847   4.965   4.527  10.061 -0.6004 -0.1553 -1.4917
  106OSM    C3F10848   4.884   4.346   9.975  0.0566  0.1875  0.3479
  106OSM    H3F10849   4.788   4.389   9.941 -0.5017 -0.1848  1.4091
  106OSM    H3G10850   4.873   4.242  10.013 -0.1143  0.4841  1.1344
  106OSM    C4F10851   4.993   4.348   9.867 -0.1198  0.0490 -0.1440
  106OSM    H4F10852   5.081   4.306   9.920 -1.2981  0.0260  1.8780
  106OSM    H4G10853   5.026   4.449   9.834  0.5972 -0.1118  0.0580
  106OSM    C5F10854   4.961   4.272   9.745  0.7766 -0.2129  0.3227
  106OSM    H5F10855   4.880   4.322   9.688  1.8173 -2.3500 -3.4316
  106OSM    H5G10856   4.923   4.168   9.760 -2.1751  0.7213 -0.0318
  106OSM    C6F10857   5.080   4.281   9.646  0.2590 -0.7385  0.1019
  106OSM    H6F10858   5.167   4.225   9.685  2.0465  1.0611 -1.1258
  106OSM    H6G10859   5.100   4.389   9.626  0.8218 -0.7103  0.7903
  106OSM    C7F10860   5.027   4.232   9.510 -0.4279 -0.6285  1.0124
  106OSM    H7F10861   4.948   4.305   9.484 -0.6207 -0.7344  1.2963
  106OSM    H7G10862   4.991   4.127   9.515  2.4112 -1.8036 -0.7105
  106OSM    C8F10863   5.135   4.240   9.402 -0.4048 -0.5169 -0.2613
  106OSM    H8F10864   5.230   4.194   9.434 -0.7504 -0.5135  0.8227
  106OSM    H8G10865   5.170   4.343   9.380  1.3706 -1.3416 -1.5323
  106OSM    C9F10866   5.101   4.173   9.280 -0.2168 -0.1472 -0.1876
  106OSM    H9F10867   5.026   4.096   9.303  1.0233 -0.6783  2.4652
  106OSM   C10F10868   5.151   4.197   9.159 -0.1115 -0.9130  1.0638
  106OSM   H10F10869   5.122   4.127   9.080  1.1138 -0.5014  0.2090
  106OSM   C11F10870   5.237   4.304   9.098  0.8711 -0.4659 -0.5996
  106OSM   H11F10871   5.345   4.287   9.117  1.3592 -0.8155 -3.2952
  106OSM   H11G10872   5.213   4.401   9.147  1.2583 -1.1830  1.0656
  106OSM   C12F10873   5.204   4.318   8.947  0.0607  0.0202 -0.0065
  106OSM   H12F10874   5.097   4.305   8.920  0.1285  0.2974 -0.4240
  106OSM   H12G10875   5.251   4.239   8.886 -2.0878 -2.4659  1.3418
  106OSM   C13F10876   5.239   4.463   8.900  0.5604 -0.0322  0.4685
  106OSM   H13F10877   5.346   4.491   8.910  0.6209 -0.3668  0.8138
  106OSM   H13G10878   5.176   4.533   8.959  0.5427  1.3293 -1.0978
  106OSM   C14F10879   5.189   4.488   8.756  0.9180 -0.6233 -0.7170
  106OSM   H14F10880   5.219   4.592   8.729  0.0570 -0.1513  0.0624
  106OSM   H14G10881   5.078   4.478   8.757  0.6870  1.4728 -1.0666
  106OSM   C15F10882   5.256   4.397   8.645  0.0084 -0.2267  0.3064
  106OSM   H15F10883   5.214   4.294   8.639 -2.0735  0.6591 -2.6808
  106OSM   H15G10884   5.365   4.392   8.665 -0.0044  1.1418  0.8207
  106OSM   C16F10885   5.224   4.456   8.505  0.1564  0.2183  0.4534
  106OSM   H16F10886   5.225   4.567   8.507  2.7789  0.2506  1.9155
  106OSM   H16G10887   5.116   4.434   8.489 -0.4158  0.2700  3.5652
  106OSM   C17F10888   5.309   4.394   8.386  0.4810  0.2980 -0.1145
  106OSM   H17F10889   5.300   4.284   8.375  1.9996  0.1958 -0.5962
  106OSM   H17G10890   5.416   4.407   8.414  0.4290  0.8685 -0.1749
  106OSM   C18F10891   5.294   4.458   8.247 -0.3009 -0.7335  0.4833
  106OSM   H18F10892   5.309   4.567   8.238 -2.2105 -0.5222 -0.5737
  106OSM   H18G10893   5.197   4.425   8.203 -1.1951 -0.8667  2.4771
  106OSM   H18H10894   5.371   4.415   8.178  1.7399 -0.3942  2.4285
  107OSM      N10895   2.198   2.839  10.822 -0.5589 -0.2768  1.2540
  107OSM    C1510896   2.186   2.994  10.835  0.5546  0.4187  0.4349
  107OSM   H15A10897   2.257   3.048  10.774  1.5150 -2.1309 -0.8684
  107OSM   H15B10898   2.201   3.032  10.935 -1.0128  1.2536  0.3780
  107OSM   H15C10899   2.086   3.020  10.805  0.2177 -0.5041  0.7094
  107OSM    C1410900   2.076   2.768  10.870  0.4320  0.5046 -0.6357
  107OSM   H14A10901   1.990   2.800  10.814  0.4685  2.2125  0.2228
  107OSM   H14B10902   2.052   2.782  10.974 -2.1458  0.0012 -1.0914
  107OSM   H14C10903   2.079   2.660  10.859  1.1183  0.4536 -0.0099
  107OSM    C1310904   2.210   2.807  10.669 -0.3393  0.0617 -0.4596
  107OSM   H13A10905   2.114   2.819  10.621 -0.0386 -3.1303 -2.1115
  107OSM   H13B10906   2.245   2.705  10.670 -0.0508  0.1653 -0.0881
  107OSM   H13C10907   2.287   2.865  10.620 -0.2602 -1.2529 -1.9930
  107OSM    C1210908   2.322   2.793  10.892 -0.1459  0.0678  0.3704
  107OSM   H12A10909   2.321   2.685  10.893 -0.2436  0.0207 -1.4803
  107OSM   H12B10910   2.318   2.828  10.994  0.2071  0.5944  0.2102
  107OSM    C1110911   2.465   2.852  10.850  0.9170  0.1587  0.2814
  107OSM   H11A10912   2.544   2.811  10.917  0.6136 -3.2957 -1.2315
  107OSM   H11B10913   2.454   2.960  10.871  0.7901  0.0314  0.8796
  107OSM      P10914   2.558   2.713  10.658 -0.2387  0.3796  0.1310
  107OSM    O1310915   2.686   2.679  10.729  0.3363 -0.5010 -0.7065
  107OSM    O1410916   2.455   2.605  10.638  0.5541  0.1199  0.2141
  107OSM    O1110917   2.604   2.771  10.514  0.6389  0.2260 -0.2167
  107OSM    O1210918   2.491   2.846  10.714  0.6330 -0.0183 -0.2628
  107OSM    C1S10919   2.498   2.829  10.436  1.4211  0.1202 -0.1481
  107OSM    H1S10920   2.488   2.933  10.475  0.7839  0.5210 -1.3434
  107OSM    H1T10921   2.401   2.779  10.455  1.4719 -0.0711 -0.3902
  107OSM     NF10922   2.416   2.918  10.221 -0.0294  0.0217  0.1105
  107OSM    HNF10923   2.352   2.866  10.165 -0.0340 -0.8292  0.8855
  107OSM    C2S10924   2.522   2.844  10.278  0.0760  0.0559 -0.1331
  107OSM    H2S10925   2.619   2.896  10.262  0.4092 -0.4616  0.1364
  107OSM    C3S10926   2.549   2.703  10.216 -0.2242 -0.2093  0.5016
  107OSM    H3S10927   2.466   2.632  10.235  0.0628 -0.6295  0.2032
  107OSM     O310928   2.661   2.628  10.257  0.3311 -0.1973  0.4399
  107OSM    HO310929   2.690   2.687  10.327 -0.4911 -0.9438  1.4425
  107OSM    C4S10930   2.563   2.713  10.069 -0.1494  0.6585 -0.4824
  107OSM    H4S10931   2.666   2.738  10.038 -0.1764 -0.4645 -1.5526
  107OSM    C5S10932   2.465   2.700   9.977  0.2204 -0.8268 -0.5849
  107OSM    H5S10933   2.363   2.671  10.008 -0.3915  0.1397 -1.6382
  107OSM    C6S10934   2.498   2.721   9.838  0.1760  0.1821  0.6863
  107OSM    H6S10935   2.499   2.625   9.783  0.7047 -0.1930  1.3233
  107OSM    H6T10936   2.604   2.749   9.821  0.4851 -2.4037 -2.4021
  107OSM    C7S10937   2.403   2.826   9.777 -0.8395  0.4175  0.4069
  107OSM    H7S10938   2.450   2.846   9.678  2.3053  1.2564  1.9139
  107OSM    H7T10939   2.416   2.923   9.830 -1.9908  1.0314 -0.3945
  107OSM    C8S10940   2.253   2.787   9.759  0.1411 -0.0235  0.0478
  107OSM    H8S10941   2.213   2.769   9.861  0.1455 -0.2763  0.0049
  107OSM    H8T10942   2.244   2.687   9.711 -0.8038 -0.2953  0.7729
  107OSM    C9S10943   2.174   2.891   9.681 -0.1831 -0.2017  0.2641
  107OSM    H9S10944   2.227   2.915   9.586 -0.1492  1.6935  0.7340
  107OSM    H9T10945   2.173   2.982   9.743  1.5753 -0.0485  0.1126
  107OSM   C10S10946   2.023   2.854   9.663  0.5466 -0.9326 -0.0277
  107OSM   H10S10947   1.972   2.953   9.654  1.0099 -0.8145 -1.7215
  107OSM   H10T10948   1.981   2.806   9.754  1.5544 -0.9248  0.4526
  107OSM   C11S10949   1.993   2.766   9.534 -0.0289 -0.5493 -0.7432
  107OSM   H11S10950   1.886   2.737   9.538 -0.0736 -0.4948 -1.4101
  107OSM   H11T10951   2.054   2.673   9.548  1.1065  0.4845  1.8616
  107OSM   C12S10952   2.042   2.823   9.399  0.0808 -1.1892 -0.5674
  107OSM   H12S10953   2.005   2.741   9.334 -2.2564 -0.8253  0.2006
  107OSM   H12T10954   2.152   2.840   9.393  0.0954 -1.7135 -2.3718
  107OSM   C13S10955   1.961   2.947   9.368 -0.8457 -0.7529 -0.3129
  107OSM   H13S10956   1.968   3.028   9.443  2.2602  0.5906 -1.8657
  107OSM   H13T10957   1.852   2.924   9.374 -1.0137  0.2323  0.6409
  107OSM   C14S10958   2.012   3.011   9.241  0.6557 -0.2892 -0.0293
  107OSM   H14S10959   2.119   3.028   9.265  0.9987  0.7454 -2.0169
  107OSM   H14T10960   1.962   3.109   9.225 -0.7129 -1.0857 -0.8754
  107OSM   C15S10961   1.999   2.913   9.113 -0.4525 -0.2261  0.5376
  107OSM   H15S10962   1.894   2.887   9.089 -0.6563 -0.5922  1.7665
  107OSM   H15T10963   2.060   2.821   9.129  0.4113 -0.4041 -3.0105
  107OSM   C16S10964   2.053   2.985   8.990  0.1896  0.0685 -0.2238
  107OSM   H16S10965   2.096   2.912   8.919  1.9303  1.0386 -0.2151
  107OSM   H16T10966   2.143   3.044   9.016  0.4937  0.0992 -1.2931
  107OSM   C17S10967   1.943   3.065   8.921  0.2245  0.0827 -0.6520
  107OSM   H17S10968   1.923   3.148   8.993 -2.6504  0.2269 -1.4987
  107OSM   H17T10969   1.849   3.009   8.905  0.6063 -0.6426 -0.3692
  107OSM   C18S10970   1.993   3.122   8.786 -0.1664 -0.1267  0.5449
  107OSM   H18S10971   2.079   3.190   8.802 -1.9094  2.1904  0.5479
  107OSM   H18T10972   1.913   3.180   8.735 -1.1774 -2.3386 -0.5418
  107OSM   H18U10973   2.021   3.036   8.721 -0.2357  0.0459  0.2819
  107OSM    C1F10974   2.409   3.043  10.218  0.3415  0.2776 -0.8400
  107OSM     OF10975   2.487   3.116  10.277 -0.8213 -0.4543  0.3629
  107OSM    C2F10976   2.302   3.095  10.125 -0.4410 -0.2059  0.4850
  107OSM    H2F10977   2.206   3.066  10.172 -2.4645  2.5524 -1.6154
  107OSM    H2G10978   2.323   3.040  10.031  2.5678 -3.4939  2.8038
  107OSM    C3F10979   2.315   3.249  10.100  0.1179  0.2789 -0.5155
  107OSM    H3F10980   2.411   3.278  10.052 -0.9436  1.1526 -2.1785
  107OSM    H3G10981   2.303   3.304  10.196 -0.7622  1.6271 -1.3611
  107OSM    C4F10982   2.206   3.304  10.003 -0.5992  0.8167 -0.1807
  107OSM    H4F10983   2.228   3.412   9.990 -0.3063  0.6316 -1.2482
  107OSM    H4G10984   2.107   3.284  10.050 -1.0364  1.7301 -0.6670
  107OSM    C5F10985   2.211   3.242   9.868  0.3139 -0.1930  0.1802
  107OSM    H5F10986   2.129   3.168   9.859 -0.5271  0.7662 -0.2086
  107OSM    H5G10987   2.310   3.193   9.856  0.4247  0.3041 -1.1673
  107OSM    C6F10988   2.196   3.357   9.756 -0.6615  1.0232  0.4042
  107OSM    H6F10989   2.296   3.404   9.766 -0.1684  0.0599  0.1755
  107OSM    H6G10990   2.126   3.437   9.785 -0.8247  1.0760 -0.1198
  107OSM    C7F10991   2.180   3.291   9.615 -0.5710 -0.8207  0.3443
  107OSM    H7F10992   2.129   3.194   9.631  0.2763 -1.4029 -0.4172
  107OSM    H7G10993   2.280   3.268   9.573  0.6150  0.2001  2.4178
  107OSM    C8F10994   2.084   3.372   9.528  0.1140  0.2779 -0.5742
  107OSM    H8F10995   1.993   3.401   9.585 -1.7761 -1.6909 -2.4288
  107OSM    H8G10996   2.040   3.306   9.451  2.2655  0.7786 -2.3174
  107OSM    C9F10997   2.154   3.498   9.480 -0.0541  0.4217 -0.0989
  107OSM    H9F10998   2.126   3.593   9.527  0.2628  0.4968 -0.0615
  107OSM   C10F10999   2.244   3.498   9.379  0.3751  0.9212 -1.4958
  107OSM   H10F11000   2.297   3.591   9.354 -0.3277  2.2211  1.4562
  107OSM   C11F11001   2.287   3.377   9.294  0.0400  0.1478  0.2250
  107OSM   H11F11002   2.245   3.282   9.334 -0.1466  0.2172  0.1937
  107OSM   H11G11003   2.398   3.375   9.296  0.0331 -2.0101  0.5577
  107OSM   C12F11004   2.228   3.404   9.151 -0.5146 -0.1317 -0.5982
  107OSM   H12F11005   2.241   3.505   9.106 -0.8465 -0.2356 -0.9274
  107OSM   H12G11006   2.118   3.396   9.161 -0.3924 -1.0222  0.2468
  107OSM   C13F11007   2.285   3.296   9.052  0.5251 -0.3491 -0.4050
  107OSM   H13F11008   2.204   3.263   8.984  1.6603  1.0404 -2.5123
  107OSM   H13G11009   2.326   3.209   9.108  3.0893  0.1476 -1.3945
  107OSM   C14F11010   2.384   3.367   8.964 -0.6519  0.6142  0.0374
  107OSM   H14F11011   2.446   3.298   8.901  1.9427  1.0340  1.9714
  107OSM   H14G11012   2.456   3.423   9.027 -0.3583  0.5102 -0.2028
  107OSM   C15F11013   2.320   3.472   8.874 -0.9297  0.0537  0.9986
  107OSM   H15F11014   2.324   3.572   8.921 -0.6975 -0.7069  2.6970
  107OSM   H15G11015   2.215   3.440   8.858 -1.3551  1.4019  0.9726
  107OSM   C16F11016   2.401   3.488   8.741 -0.6731  0.1853  0.0628
  107OSM   H16F11017   2.353   3.545   8.658  3.0145  1.6217 -1.2940
  107OSM   H16G11018   2.434   3.388   8.705  0.3068  0.8114 -0.8497
  107OSM   C17F11019   2.528   3.580   8.758 -0.0956 -0.1063 -0.0042
  107OSM   H17F11020   2.577   3.548   8.852  1.3831  1.9579  0.0047
  107OSM   H17G11021   2.490   3.683   8.776  1.3832  0.6016 -0.7307
  107OSM   C18F11022   2.629   3.580   8.642 -0.0517  0.0084  0.7168
  107OSM   H18F11023   2.692   3.670   8.633  1.4032 -1.0611 -0.1020
  107OSM   H18G11024   2.574   3.567   8.547  4.9401  0.5281 -2.5774
  107OSM   H18H11025   2.694   3.491   8.656  0.5965  0.4755  0.6748
  108OSM      N11026   3.952   3.687  10.880  0.4023  0.0496  0.1474
  108OSM    C1511027   3.836   3.737  10.963 -0.1033 -0.0036 -0.7767
  108OSM   H15A11028   3.793   3.646  11.001  1.4285 -0.3940  0.0890
  108OSM   H15B11029   3.767   3.791  10.899 -1.4401  2.4534  2.4334
  108OSM   H15C11030   3.879   3.806  11.035 -2.3195  1.0883 -0.4009
  108OSM    C1411031   4.029   3.800  10.816 -0.1247  0.7938  0.0268
  108OSM   H14A11032   4.068   3.854  10.900  0.0701 -1.4814  1.4862
  108OSM   H14B11033   3.970   3.869  10.758  1.1265  0.9981 -1.0503
  108OSM   H14C11034   4.102   3.761  10.746  0.3456 -1.6306  1.7410
  108OSM    C1311035   4.040   3.597  10.961 -0.0551 -0.1433  0.0839
  108OSM   H13A11036   4.072   3.641  11.055 -1.3523 -1.5920  1.2598
  108OSM   H13B11037   4.125   3.556  10.908  1.2103  0.1273  1.8047
  108OSM   H13C11038   3.988   3.510  10.998 -0.1899 -0.7595 -1.5034
  108OSM    C1211039   3.893   3.602  10.762 -0.1116  0.6280  0.1714
  108OSM   H12A11040   3.848   3.517  10.810  1.0752  1.1937  2.4226
  108OSM   H12B11041   3.976   3.568  10.702  1.0258  0.0304  1.9967
  108OSM    C1111042   3.797   3.668  10.661  0.4853 -0.6596  0.2840
  108OSM   H11A11043   3.782   3.600  10.574  0.5224  0.7547 -0.8850
  108OSM   H11B11044   3.851   3.754  10.615  0.0698  0.3347  1.6023
  108OSM      P11045   3.548   3.739  10.649 -0.2176  0.4352  0.4189
  108OSM    O1311046   3.474   3.618  10.685  0.1376  0.1846 -0.0168
  108OSM    O1411047   3.495   3.870  10.680  0.3204 -0.4202  0.2320
  108OSM    O1111048   3.603   3.734  10.501 -0.1072  0.3518  0.0315
  108OSM    O1211049   3.683   3.733  10.721 -0.5047  0.3655  0.3282
  108OSM    C1S11050   3.525   3.775  10.386 -0.1346  0.0325 -0.3070
  108OSM    H1S11051   3.463   3.865  10.406 -1.8794 -0.9983 -0.8826
  108OSM    H1T11052   3.453   3.691  10.370  2.0817 -1.7198 -1.6552
  108OSM     NF11053   3.496   3.832  10.152  0.0088  0.1660  0.2648
  108OSM    HNF11054   3.448   3.755  10.110  1.0880 -0.5714  0.3409
  108OSM    C2S11055   3.596   3.781  10.244  0.0710  0.1619  0.6033
  108OSM    H2S11056   3.678   3.856  10.251 -0.2284  0.7679 -1.7596
  108OSM    C3S11057   3.659   3.641  10.212  0.2343 -0.1897 -0.2060
  108OSM    H3S11058   3.571   3.575  10.208  1.6699 -2.1660 -0.4298
  108OSM     O311059   3.741   3.586  10.321  0.2613 -0.5633 -0.4916
  108OSM    HO311060   3.711   3.643  10.392 -1.9977 -1.8382 -0.2992
  108OSM    C4S11061   3.712   3.634  10.072  0.2747 -0.2001 -0.4081
  108OSM    H4S11062   3.632   3.615   9.999 -1.6383  1.1434  1.2303
  108OSM    C5S11063   3.846   3.642  10.050  0.0082 -0.0507 -0.0014
  108OSM    H5S11064   3.915   3.664  10.133  1.2653  0.5832 -1.1636
  108OSM    C6S11065   3.919   3.626   9.915  0.0514  0.4160 -0.0889
  108OSM    H6S11066   3.986   3.540   9.935 -2.2652 -1.8438 -1.2711
  108OSM    H6T11067   3.985   3.712   9.890 -2.2347  2.2537 -0.1793
  108OSM    C7S11068   3.843   3.582   9.791  0.2016 -1.0255  0.0767
  108OSM    H7S11069   3.757   3.647   9.766  0.5290 -1.2059 -1.5770
  108OSM    H7T11070   3.806   3.478   9.803 -0.4299 -0.8964 -0.7419
  108OSM    C8S11071   3.927   3.584   9.665  1.1093 -0.3037  0.2106
  108OSM    H8S11072   3.988   3.492   9.655  0.1740 -0.9639  0.4375
  108OSM    H8T11073   3.999   3.668   9.673  0.4312  0.2775  0.2827
  108OSM    C9S11074   3.833   3.609   9.549  0.3187 -0.1411  0.0997
  108OSM    H9S11075   3.779   3.705   9.567  0.5450  0.0786 -0.3696
  108OSM    H9T11076   3.762   3.524   9.555  1.2480 -0.9001  0.5511
  108OSM   C10S11077   3.895   3.612   9.407 -0.2415  0.5699 -0.5703
  108OSM   H10S11078   3.902   3.507   9.371 -0.5534 -0.1410  1.2893
  108OSM   H10T11079   3.997   3.654   9.415  0.0960 -0.3547  0.2163
  108OSM   C11S11080   3.813   3.696   9.309  0.1293  0.0350 -0.5522
  108OSM   H11S11081   3.795   3.798   9.348  1.0057  0.6322 -1.6497
  108OSM   H11T11082   3.708   3.658   9.299 -0.5652  1.4551  0.9443
  108OSM   C12S11083   3.870   3.713   9.164 -0.6832  0.0436  0.6563
  108OSM   H12S11084   3.884   3.614   9.116  4.1877  0.2391  1.1762
  108OSM   H12T11085   3.976   3.739   9.180 -0.3871 -0.7680  0.0475
  108OSM   C13S11086   3.789   3.807   9.072 -0.0510  0.3547  0.8582
  108OSM   H13S11087   3.845   3.841   8.982  0.6351  0.5050  1.3389
  108OSM   H13T11088   3.766   3.899   9.129 -1.7661 -0.3294  1.3344
  108OSM   C14S11089   3.660   3.750   9.021  0.1003 -0.4491  0.7761
  108OSM   H14S11090   3.606   3.839   8.980  0.8470  0.1594  1.0996
  108OSM   H14T11091   3.616   3.690   9.103  3.6501 -1.4635  2.1202
  108OSM   C15S11092   3.677   3.649   8.896 -0.0372  0.1725 -0.7048
  108OSM   H15S11093   3.707   3.552   8.940  1.0780  0.4154 -0.8984
  108OSM   H15T11094   3.760   3.684   8.831  1.3222 -1.4351  0.0781
  108OSM   C16S11095   3.544   3.650   8.818  0.2652  0.5721 -0.1395
  108OSM   H16S11096   3.502   3.753   8.818 -1.4309 -0.0957 -0.7832
  108OSM   H16T11097   3.467   3.598   8.879  0.7698 -2.7669 -2.0750
  108OSM   C17S11098   3.543   3.583   8.685 -0.0241  0.2844  0.2865
  108OSM   H17S11099   3.568   3.476   8.704  0.2631  0.6262  1.9596
  108OSM   H17T11100   3.622   3.613   8.613 -0.2829 -1.2686 -0.6966
  108OSM   C18S11101   3.410   3.585   8.619 -0.0501 -0.3796  0.2965
  108OSM   H18S11102   3.402   3.508   8.540  0.7673  0.3900 -0.5750
  108OSM   H18T11103   3.399   3.688   8.579  2.2689  1.4901  3.9211
  108OSM   H18U11104   3.329   3.565   8.692 -0.3735  2.3177  0.7756
  108OSM    C1F11105   3.460   3.960  10.143  0.3220 -0.4657 -0.4055
  108OSM     OF11106   3.540   4.044  10.183 -0.3603 -0.1877  0.6104
  108OSM    C2F11107   3.327   3.986  10.088  0.0973 -0.8204 -0.4271
  108OSM    H2F11108   3.269   4.054  10.154 -2.6333 -1.4512 -2.0058
  108OSM    H2G11109   3.266   3.893  10.088 -0.4926 -0.4976  2.0073
  108OSM    C3F11110   3.327   4.048   9.945  0.0464 -0.0788 -1.2834
  108OSM    H3F11111   3.378   4.147   9.938  0.1283 -0.1210 -1.2938
  108OSM    H3G11112   3.220   4.070   9.923 -0.1980  0.4450  0.3416
  108OSM    C4F11113   3.394   3.959   9.840  0.1386  0.0211 -0.4171
  108OSM    H4F11114   3.346   3.859   9.840 -0.7617  0.4108 -2.0779
  108OSM    H4G11115   3.504   3.942   9.844  0.6350  2.5681 -1.2382
  108OSM    C5F11116   3.373   4.016   9.691 -0.5704  0.0980  0.6355
  108OSM    H5F11117   3.414   4.119   9.703 -3.0513  1.3062 -0.5816
  108OSM    H5G11118   3.264   4.018   9.670 -0.2116 -1.7387 -1.8971
  108OSM    C6F11119   3.452   3.935   9.581 -0.2819 -0.7004 -0.2493
  108OSM    H6F11120   3.561   3.920   9.601 -0.0535 -0.7941 -1.5051
  108OSM    H6G11121   3.449   3.999   9.491  1.4053  2.9701  2.0483
  108OSM    C7F11122   3.383   3.795   9.553  0.3189 -0.3624 -0.1785
  108OSM    H7F11123   3.274   3.804   9.530  0.1235  0.0416  0.8564
  108OSM    H7G11124   3.390   3.729   9.642  3.0121  0.8853  0.6128
  108OSM    C8F11125   3.442   3.731   9.425 -0.3644  0.4263  0.0459
  108OSM    H8F11126   3.411   3.625   9.413 -0.1012  0.2705  0.7209
  108OSM    H8G11127   3.553   3.729   9.433 -0.2032 -0.0993 -1.8290
  108OSM    C9F11128   3.423   3.804   9.296  1.0613 -0.7298  0.6970
  108OSM    H9F11129   3.510   3.863   9.263 -0.8043  2.6452  1.3099
  108OSM   C10F11130   3.332   3.782   9.207 -0.7298 -0.0531 -0.1252
  108OSM   H10F11131   3.325   3.846   9.118 -1.5490 -0.4129 -0.3352
  108OSM   C11F11132   3.218   3.679   9.228  0.0078 -0.3697  0.3631
  108OSM   H11F11133   3.162   3.707   9.320  1.1779 -3.1982  2.0690
  108OSM   H11G11134   3.260   3.580   9.256 -0.1215 -0.3665  0.5681
  108OSM   C12F11135   3.121   3.661   9.114 -0.4666 -0.2927  0.3488
  108OSM   H12F11136   3.169   3.653   9.014 -2.4283 -1.2813 -0.5928
  108OSM   H12G11137   3.041   3.738   9.108 -0.3318 -0.2319 -1.1348
  108OSM   C13F11138   3.052   3.526   9.128  0.1609  0.0632  0.2465
  108OSM   H13F11139   3.020   3.510   9.233 -0.8651  1.5427  0.1825
  108OSM   H13G11140   3.125   3.444   9.111 -0.9082 -1.0290  0.7373
  108OSM   C14F11141   2.936   3.504   9.024 -0.1364 -0.1780  0.0360
  108OSM   H14F11142   2.977   3.531   8.924  1.2201 -0.3759  0.5169
  108OSM   H14G11143   2.864   3.584   9.050 -1.3477 -1.1218 -0.3204
  108OSM   C15F11144   2.848   3.379   9.038 -0.2266  0.4469  0.0452
  108OSM   H15F11145   2.756   3.404   8.981 -0.8221 -0.5205  0.5541
  108OSM   H15G11146   2.808   3.372   9.141 -0.1423 -1.1101  0.0018
  108OSM   C16F11147   2.909   3.246   8.988 -0.5283 -0.4070  0.2553
  108OSM   H16F11148   2.829   3.173   9.013 -0.5922 -0.1066  0.9578
  108OSM   H16G11149   3.001   3.230   9.048 -2.1563  2.1006  3.8170
  108OSM   C17F11150   2.936   3.242   8.834  0.3663  0.2200  0.6624
  108OSM   H17F11151   3.002   3.156   8.811  1.9736  1.6499 -0.3354
  108OSM   H17G11152   2.988   3.332   8.795  0.7607 -0.7723 -1.2232
  108OSM   C18F11153   2.812   3.221   8.751  0.0031 -0.6963 -0.0867
  108OSM   H18F11154   2.814   3.183   8.647  0.6287  2.2502 -1.2648
  108OSM   H18G11155   2.752   3.315   8.751  1.6240  0.3832 -0.4655
  108OSM   H18H11156   2.764   3.138   8.807 -1.3485  0.0600 -0.0858
  109OSM      N11157   3.062   1.093  11.081  0.1669 -0.2136 -0.6832
  109OSM    C1511158   3.169   1.012  11.017  0.0656  0.8453  0.4781
  109OSM   H15A11159   3.150   0.998  10.912 -2.1148 -1.1524  1.0530
  109OSM   H15B11160   3.157   0.912  11.058  2.2646  0.8748  1.3233
  109OSM   H15C11161   3.269   1.046  11.036  1.0832 -0.5470 -1.9248
  109OSM    C1411162   2.937   1.007  11.087 -0.3479  0.5258  0.1762
  109OSM   H14A11163   2.892   0.988  10.991 -1.2445 -0.8909  0.8394
  109OSM   H14B11164   2.864   1.060  11.146  0.9541 -0.5166  2.9190
  109OSM   H14C11165   2.964   0.906  11.117 -2.3923  0.3851  1.7207
  109OSM    C1311166   3.098   1.114  11.221 -0.2056 -0.9970 -0.1512
  109OSM   H13A11167   3.199   1.149  11.231 -0.8640  0.7366  0.8845
  109OSM   H13B11168   3.103   1.019  11.272  0.7848 -1.2394 -0.6823
  109OSM   H13C11169   3.048   1.186  11.284  1.7695  0.1607  0.1494
  109OSM    C1211170   3.028   1.218  10.998 -0.3447 -0.3980 -0.0790
  109OSM   H12A11171   3.114   1.280  10.976 -0.8121  0.4317  0.3972
  109OSM   H12B11172   2.964   1.284  11.054 -1.2571  0.9989 -2.6092
  109OSM    C1111173   2.954   1.207  10.861 -0.3917  0.4260 -0.2838
  109OSM   H11A11174   2.926   1.307  10.822  1.6480  0.9688 -0.4840
  109OSM   H11B11175   2.853   1.173  10.894 -0.8916  0.8122 -1.3682
  109OSM      P11176   2.952   1.007  10.686 -0.0376  0.0206  0.3365
  109OSM    O1311177   3.056   0.946  10.590  0.0953 -0.1459 -0.2285
  109OSM    O1411178   2.872   0.917  10.764  0.4321  0.1282  0.2228
  109OSM    O1111179   2.859   1.098  10.602  0.1591  0.2315 -0.3733
  109OSM    O1211180   3.022   1.115  10.773  0.5419 -0.2701  0.0220
  109OSM    C1S11181   2.908   1.206  10.517 -0.3861  0.2372 -0.3186
  109OSM    H1S11182   3.017   1.187  10.502 -1.3127 -3.4237 -4.4996
  109OSM    H1T11183   2.898   1.307  10.562  2.3199  0.7617 -0.6932
  109OSM     NF11184   2.937   1.329  10.299  0.4435 -0.4418 -0.4221
  109OSM    HNF11185   2.907   1.424  10.293  1.2524 -0.1958 -0.5993
  109OSM    C2S11186   2.854   1.232  10.371 -0.1240 -0.1390  0.0726
  109OSM    H2S11187   2.870   1.137  10.316  2.6441 -0.2398  0.9084
  109OSM    C3S11188   2.700   1.263  10.387  0.0082 -0.3189  0.3106
  109OSM    H3S11189   2.687   1.363  10.433 -2.3213 -1.6246  2.7631
  109OSM     O311190   2.632   1.171  10.469  0.1909  0.3722 -0.2919
  109OSM    HO311191   2.696   1.107  10.501 -0.5108 -0.3014 -0.2259
  109OSM    C4S11192   2.646   1.276  10.247  0.5623  0.9844 -0.6984
  109OSM    H4S11193   2.624   1.378  10.213 -1.1363  0.2048 -2.1286
  109OSM    C5S11194   2.610   1.171  10.167  0.5302  0.5121  0.2143
  109OSM    H5S11195   2.629   1.070  10.206  0.8080  1.2841  2.1918
  109OSM    C6S11196   2.547   1.185  10.030  0.2412  0.3520  0.6431
  109OSM    H6S11197   2.460   1.116  10.024 -0.3115  1.0413  0.6084
  109OSM    H6T11198   2.614   1.151   9.947 -0.8678  1.4437 -0.7489
  109OSM    C7S11199   2.515   1.321   9.971  0.5984 -0.6115  0.7558
  109OSM    H7S11200   2.607   1.385   9.969 -2.1119  3.7112 -0.3846
  109OSM    H7T11201   2.440   1.377  10.031  1.5104 -1.4691  2.8005
  109OSM    C8S11202   2.476   1.313   9.819  0.2449  0.0158  0.3304
  109OSM    H8S11203   2.482   1.206   9.794  1.6323 -0.2569  1.6626
  109OSM    H8T11204   2.556   1.368   9.766  0.1974 -0.9229 -0.7418
  109OSM    C9S11205   2.331   1.355   9.794 -0.2101 -0.5177 -0.1079
  109OSM    H9S11206   2.308   1.450   9.847  1.6230 -0.0118 -0.1704
  109OSM    H9T11207   2.270   1.277   9.846 -1.5194 -0.0425 -0.8873
  109OSM   C10S11208   2.300   1.353   9.646  0.2437  0.0430 -0.2946
  109OSM   H10S11209   2.362   1.284   9.586 -1.8766  0.1697 -2.8188
  109OSM   H10T11210   2.328   1.454   9.611 -0.0925  0.7013  1.2571
  109OSM   C11S11211   2.157   1.322   9.624 -0.1813  0.7060  0.6226
  109OSM   H11S11212   2.068   1.365   9.674 -2.6483 -0.7155 -2.2476
  109OSM   H11T11213   2.147   1.213   9.644  0.7597 -0.0501 -2.5542
  109OSM   C12S11214   2.119   1.345   9.478 -0.2042  0.4236 -0.3731
  109OSM   H12S11215   2.126   1.455   9.463 -2.6686  0.6247 -0.4519
  109OSM   H12T11216   2.017   1.303   9.460  0.4000 -0.5178 -1.7874
  109OSM   C13S11217   2.220   1.273   9.378  0.1237  0.1092  0.7594
  109OSM   H13S11218   2.217   1.167   9.412 -0.4688 -0.3633 -0.6781
  109OSM   H13T11219   2.323   1.312   9.393  0.2133  0.2623 -0.1986
  109OSM   C14S11220   2.178   1.299   9.234  0.1407  0.1231  0.5332
  109OSM   H14S11221   2.072   1.271   9.217  0.4243  0.1005 -1.5026
  109OSM   H14T11222   2.232   1.235   9.161  2.1042 -0.1844  2.1532
  109OSM   C15S11223   2.210   1.436   9.183  0.0679  0.4734  0.8679
  109OSM   H15S11224   2.266   1.489   9.264 -0.5961  0.7566  1.1516
  109OSM   H15T11225   2.118   1.494   9.160  0.7652  2.8238  3.3465
  109OSM   C16S11226   2.286   1.451   9.054 -0.2229  0.4236  0.0030
  109OSM   H16S11227   2.384   1.398   9.059 -0.9396 -1.0789 -1.1191
  109OSM   H16T11228   2.306   1.558   9.028 -1.8777  0.7347 -0.0855
  109OSM   C17S11229   2.205   1.398   8.932 -0.0965 -0.3887  0.4951
  109OSM   H17S11230   2.112   1.457   8.936  1.0273  1.5034  0.0294
  109OSM   H17T11231   2.175   1.291   8.935  3.0672 -1.5338 -2.2336
  109OSM   C18S11232   2.265   1.427   8.795  0.0836  0.1865  0.6960
  109OSM   H18S11233   2.292   1.534   8.785 -1.6648  0.4820 -1.8142
  109OSM   H18T11234   2.187   1.418   8.717  0.9692 -5.0682  0.0497
  109OSM   H18U11235   2.344   1.353   8.770 -2.1735 -1.3751 -2.4073
  109OSM    C1F11236   3.058   1.292  10.254  0.2641 -0.4019 -0.5489
  109OSM     OF11237   3.098   1.180  10.279  0.1476  0.2409  0.4285
  109OSM    C2F11238   3.139   1.398  10.190 -0.3492 -0.3013 -0.4199
  109OSM    H2F11239   3.218   1.431  10.261 -0.6985 -1.2360  0.4350
  109OSM    H2G11240   3.083   1.489  10.160  0.9850  1.0082  0.8787
  109OSM    C3F11241   3.215   1.339  10.064 -0.6903 -0.2139 -0.3219
  109OSM    H3F11242   3.271   1.247  10.090  1.7827  0.8156 -1.6367
  109OSM    H3G11243   3.283   1.417  10.023 -0.1721 -1.1490 -1.2738
  109OSM    C4F11244   3.114   1.294   9.953 -0.7725 -0.1129 -0.2321
  109OSM    H4F11245   3.027   1.240   9.997  1.0066 -0.0922  3.6526
  109OSM    H4G11246   3.163   1.212   9.896 -3.3077 -2.0012  0.1074
  109OSM    C5F11247   3.069   1.415   9.871  0.6862  0.8777 -0.1875
  109OSM    H5F11248   3.161   1.467   9.838  0.2969  1.2055 -0.7859
  109OSM    H5G11249   3.021   1.484   9.944  0.9333  0.6146  0.2255
  109OSM    C6F11250   2.973   1.384   9.751 -0.8448 -0.7035 -0.0459
  109OSM    H6F11251   2.953   1.482   9.702  1.6152 -0.3899 -0.5659
  109OSM    H6G11252   2.881   1.346   9.800 -1.5508  1.8264  0.7561
  109OSM    C7F11253   3.020   1.284   9.643 -0.0516  0.0944  0.1589
  109OSM    H7F11254   2.946   1.279   9.561  1.6767 -0.3926 -1.4273
  109OSM    H7G11255   3.034   1.191   9.703 -0.3940 -0.0609  0.0033
  109OSM    C8F11256   3.155   1.308   9.575  0.3058 -0.0485 -0.1309
  109OSM    H8F11257   3.177   1.227   9.503  1.3565 -0.1957  0.3480
  109OSM    H8G11258   3.235   1.315   9.652 -0.3557  2.1757  0.4407
  109OSM    C9F11259   3.155   1.437   9.505 -0.4411 -0.1445  0.7331
  109OSM    H9F11260   3.165   1.521   9.575  3.3938 -2.1171  2.9110
  109OSM   C10F11261   3.129   1.454   9.374  0.1201 -0.0192 -0.7604
  109OSM   H10F11262   3.135   1.551   9.323  0.8780  1.0685  1.2906
  109OSM   C11F11263   3.093   1.346   9.272 -0.0203  0.7584  0.2421
  109OSM   H11F11264   2.996   1.294   9.289 -0.3701  0.4952 -2.2041
  109OSM   H11G11265   3.172   1.267   9.268  0.6770  1.4994 -1.8450
  109OSM   C12F11266   3.094   1.396   9.128 -0.8528  0.0850  0.3809
  109OSM   H12F11267   3.041   1.493   9.123 -0.2090  0.4933  1.1451
  109OSM   H12G11268   3.033   1.325   9.068 -0.4618 -1.8636  2.1493
  109OSM   C13F11269   3.239   1.415   9.073 -0.6635  0.0832 -0.3641
  109OSM   H13F11270   3.302   1.325   9.091 -0.1655  0.5072  0.0077
  109OSM   H13G11271   3.298   1.487   9.133  1.3605 -1.7345 -0.0750
  109OSM   C14F11272   3.231   1.450   8.921  0.2116 -0.2525 -1.4071
  109OSM   H14F11273   3.153   1.529   8.908  1.1833  0.8237 -0.8697
  109OSM   H14G11274   3.212   1.359   8.861 -0.6309  0.8835 -2.9247
  109OSM   C15F11275   3.358   1.520   8.868 -0.8234 -0.0922  0.0651
  109OSM   H15F11276   3.443   1.457   8.902 -0.4962 -0.2376 -0.9890
  109OSM   H15G11277   3.374   1.621   8.912  2.4634 -0.7072  0.5843
  109OSM   C16F11278   3.360   1.531   8.715  0.0922  0.4809 -0.4362
  109OSM   H16F11279   3.261   1.577   8.692 -0.8890  1.0882  3.9753
  109OSM   H16G11280   3.369   1.429   8.673 -0.7864  0.4695 -0.6115
  109OSM   C17F11281   3.476   1.621   8.660  0.1977 -0.2199 -0.0099
  109OSM   H17F11282   3.458   1.727   8.689  0.8122  0.3103 -1.5146
  109OSM   H17G11283   3.456   1.623   8.551 -0.7897 -0.1917  0.1544
  109OSM   C18F11284   3.621   1.582   8.688  0.5031 -0.3289  0.4122
  109OSM   H18F11285   3.696   1.658   8.657  2.2630 -1.5911  1.3793
  109OSM   H18G11286   3.650   1.493   8.628 -0.9037  0.4650 -1.5319
  109OSM   H18H11287   3.640   1.565   8.797  1.3404  2.1301  0.7156
  110OSM      N11288   5.145   0.360  11.200 -0.1417  0.1127  0.2585
  110OSM    C1511289   5.127   0.340  11.346  0.4213 -0.3929  0.4595
  110OSM   H15A11290   5.084   0.423  11.400 -0.7645  1.0116 -2.4226
  110OSM   H15B11291   5.224   0.323  11.390  1.2843  0.0206 -1.2092
  110OSM   H15C11292   5.058   0.260  11.370 -1.8598  1.4525  0.4088
  110OSM    C1411293   5.254   0.458  11.169  0.3286 -0.4448 -0.0711
  110OSM   H14A11294   5.232   0.556  11.209 -0.5714 -0.4211 -0.5939
  110OSM   H14B11295   5.250   0.478  11.063 -1.0031 -0.3918 -0.0349
  110OSM   H14C11296   5.357   0.436  11.190  0.6169 -0.4526 -1.3981
  110OSM    C1311297   5.189   0.225  11.149 -0.1019  0.4980 -0.3562
  110OSM   H13A11298   5.283   0.199  11.195 -0.4003 -0.0684 -0.0547
  110OSM   H13B11299   5.215   0.233  11.045 -2.0838 -0.0052 -0.9363
  110OSM   H13C11300   5.110   0.152  11.163  1.6956 -1.5487 -0.3082
  110OSM    C1211301   5.016   0.410  11.132 -0.4385  0.2666  0.8875
  110OSM   H12A11302   4.980   0.496  11.185  1.5131  1.7800 -0.1258
  110OSM   H12B11303   4.948   0.328  11.151 -2.2732  0.8423 -2.3500
  110OSM    C1111304   5.002   0.439  10.981 -1.3186 -0.5192 -0.3759
  110OSM   H11A11305   4.901   0.483  10.964 -0.5175  1.9524  0.8045
  110OSM   H11B11306   5.010   0.353  10.910  1.2411 -0.4248 -0.2703
  110OSM      P11307   5.061   0.692  10.955 -0.3996  0.1563  0.4133
  110OSM    O1311308   4.955   0.724  10.861  0.2163  0.3332  0.1588
  110OSM    O1411309   5.054   0.745  11.094  0.0915 -0.0475 -0.2602
  110OSM    O1111310   5.193   0.761  10.901  0.1494 -0.1890 -0.9858
  110OSM    O1211311   5.102   0.539  10.951 -0.6214  0.2853  0.3426
  110OSM    C1S11312   5.299   0.706  10.821 -0.7398 -0.4524 -0.3420
  110OSM    H1S11313   5.302   0.598  10.848 -2.2379  0.0928  2.3340
  110OSM    H1T11314   5.396   0.748  10.856 -0.3112 -1.6677  0.0049
  110OSM     NF11315   5.375   0.657  10.596  0.5035  0.0706 -0.0820
  110OSM    HNF11316   5.444   0.699  10.538  0.3859  0.8366  0.3207
  110OSM    C2S11317   5.287   0.736  10.677 -0.4047  0.1895 -0.1711
  110OSM    H2S11318   5.184   0.704  10.649 -0.6566  1.0035 -0.2018
  110OSM    C3S11319   5.302   0.885  10.654 -0.8088 -0.2873  0.9709
  110OSM    H3S11320   5.410   0.906  10.666 -0.3674 -1.9491  0.3000
  110OSM     O311321   5.259   0.973  10.761  0.8580 -0.4816 -0.3745
  110OSM    HO311322   5.230   0.909  10.827  0.5537  0.5090  0.4808
  110OSM    C4S11323   5.247   0.936  10.527  1.3441  0.1813 -0.1942
  110OSM    H4S11324   5.146   0.897  10.508  1.5752 -0.9939  0.8615
  110OSM    C5S11325   5.304   1.017  10.440  0.3480 -0.2559  0.2382
  110OSM    H5S11326   5.407   1.050  10.457  0.7883 -0.0954 -2.3154
  110OSM    C6S11327   5.235   1.053  10.315  0.2721  0.0356 -0.1258
  110OSM    H6S11328   5.196   1.157  10.316  0.8029  0.2383 -0.0806
  110OSM    H6T11329   5.141   0.996  10.301  0.0164 -0.2285  2.3808
  110OSM    C7S11330   5.320   1.044  10.186 -0.4630 -0.2925 -0.2588
  110OSM    H7S11331   5.253   1.072  10.102 -1.1693  3.0835  1.2685
  110OSM    H7T11332   5.349   0.937  10.176 -2.0741 -0.8787  0.9913
  110OSM    C8S11333   5.445   1.136  10.189 -0.1395 -0.6072 -0.2244
  110OSM    H8S11334   5.533   1.103  10.247  1.0764  2.6749  0.0374
  110OSM    H8T11335   5.416   1.232  10.237 -0.6800  0.7997 -3.1189
  110OSM    C9S11336   5.495   1.155  10.046 -0.4782  0.3977  0.1018
  110OSM    H9S11337   5.590   1.212  10.046  0.4451 -0.7301 -4.1922
  110OSM    H9T11338   5.430   1.225   9.989  0.1381  0.7702 -0.1471
  110OSM   C10S11339   5.520   1.026   9.971  0.1314 -0.3216 -0.0675
  110OSM   H10S11340   5.432   0.974   9.927 -0.1605 -0.6645  0.8894
  110OSM   H10T11341   5.560   0.958  10.049  1.1370  1.4540  1.0439
  110OSM   C11S11342   5.634   1.037   9.868 -0.2594 -0.1411 -0.1784
  110OSM   H11S11343   5.655   0.937   9.824 -0.7808  0.8171 -2.8049
  110OSM   H11T11344   5.725   1.089   9.904 -0.9309 -0.0652  1.4915
  110OSM   C12S11345   5.584   1.112   9.744  0.3671 -0.8103  0.3952
  110OSM   H12S11346   5.583   1.220   9.770  1.1295  0.0970 -2.8822
  110OSM   H12T11347   5.479   1.078   9.730 -0.6922  2.6617 -1.1348
  110OSM   C13S11348   5.681   1.092   9.630 -0.3438 -0.4347  0.6130
  110OSM   H13S11349   5.690   0.989   9.590  1.3825  1.1228 -3.6997
  110OSM   H13T11350   5.772   1.148   9.660 -1.6181  2.4640 -0.5205
  110OSM   C14S11351   5.631   1.161   9.505 -0.1781  0.0898  0.0560
  110OSM   H14S11352   5.563   1.247   9.525 -1.8868 -0.8208 -1.4959
  110OSM   H14T11353   5.575   1.089   9.441  0.6578  0.7845 -1.5226
  110OSM   C15S11354   5.752   1.209   9.422 -0.3858 -0.6668  0.5410
  110OSM   H15S11355   5.828   1.128   9.409  1.5678  1.4807 -2.9415
  110OSM   H15T11356   5.797   1.292   9.480 -1.2239 -0.4440  0.8757
  110OSM   C16S11357   5.709   1.262   9.284 -1.0631 -0.5516 -0.2219
  110OSM   H16S11358   5.606   1.297   9.305 -1.0477 -0.8756  0.4098
  110OSM   H16T11359   5.704   1.178   9.211  1.7242  0.7858 -2.1769
  110OSM   C17S11360   5.804   1.366   9.225  0.3385 -0.0463 -0.3269
  110OSM   H17S11361   5.903   1.318   9.217 -0.1228 -0.7618 -2.3877
  110OSM   H17T11362   5.809   1.449   9.299  0.6843 -0.2611 -0.1072
  110OSM   C18S11363   5.763   1.427   9.092 -0.0327 -0.5790  0.5587
  110OSM   H18S11364   5.776   1.342   9.021  1.4483 -1.0520  1.3492
  110OSM   H18T11365   5.828   1.513   9.064  0.9507 -1.8035 -1.1194
  110OSM   H18U11366   5.657   1.459   9.085  0.0178 -0.2204  1.3224
  110OSM    C1F11367   5.371   0.522  10.585 -0.5324 -0.3079  0.0878
  110OSM     OF11368   5.263   0.462  10.591  0.0366  0.3351 -0.7014
  110OSM    C2F11369   5.504   0.446  10.555 -0.0049  0.1977  0.2897
  110OSM    H2F11370   5.492   0.355  10.618  1.0820  0.5283  1.0030
  110OSM    H2G11371   5.583   0.508  10.602  0.0341  0.4092 -0.0571
  110OSM    C3F11372   5.536   0.414  10.405 -0.2052 -0.2636  0.5131
  110OSM    H3F11373   5.546   0.509  10.348 -0.6948 -0.1209  0.6595
  110OSM    H3G11374   5.449   0.357  10.364 -0.8472  1.1894 -0.2256
  110OSM    C4F11375   5.670   0.334  10.386  0.0716 -0.2986 -0.4436
  110OSM    H4F11376   5.654   0.226  10.409  2.4126 -0.5775  0.1150
  110OSM    H4G11377   5.741   0.371  10.463  0.3013  0.0578 -0.8222
  110OSM    C5F11378   5.726   0.348  10.243  0.2333 -1.2870 -0.2522
  110OSM    H5F11379   5.821   0.291  10.244  1.5150  0.7145  1.5078
  110OSM    H5G11380   5.745   0.455  10.222  1.2603 -0.7126  3.0448
  110OSM    C6F11381   5.630   0.299  10.132 -0.4928 -1.2014 -0.6307
  110OSM    H6F11382   5.536   0.356  10.122  0.1455  0.5197  2.0425
  110OSM    H6G11383   5.598   0.194  10.153  0.4277 -1.4218 -0.2435
  110OSM    C7F11384   5.683   0.307   9.987  0.6973  0.3959  0.2123
  110OSM    H7F11385   5.781   0.256   9.977  0.2854 -0.5563  0.8476
  110OSM    H7G11386   5.682   0.415   9.963  1.1992  0.6740  1.3734
  110OSM    C8F11387   5.586   0.230   9.889 -0.2424 -0.3538  0.1667
  110OSM    H8F11388   5.499   0.298   9.872 -1.8782 -2.4625 -0.3062
  110OSM    H8G11389   5.541   0.142   9.940  0.1565 -1.1131 -0.7786
  110OSM    C9F11390   5.658   0.180   9.768  0.5792  0.3625 -0.6772
  110OSM    H9F11391   5.658   0.070   9.775 -1.6538  0.3339 -0.6980
  110OSM   C10F11392   5.700   0.241   9.657  0.0162 -0.6688 -0.1408
  110OSM   H10F11393   5.762   0.177   9.593  1.2485  0.1653  0.1925
  110OSM   C11F11394   5.701   0.392   9.627  0.0435 -0.0580 -0.3118
  110OSM   H11F11395   5.738   0.461   9.705  1.2496 -1.0243  0.0211
  110OSM   H11G11396   5.601   0.438   9.623  1.1377  2.4662 -0.4494
  110OSM   C12F11397   5.780   0.427   9.501  0.4333 -0.2473 -0.5275
  110OSM   H12F11398   5.883   0.384   9.494  0.1537 -0.9335 -0.5239
  110OSM   H12G11399   5.793   0.537   9.495  1.9078 -0.3990 -0.6632
  110OSM   C13F11400   5.693   0.389   9.375 -0.7140 -0.1322 -0.4022
  110OSM   H13F11401   5.600   0.449   9.371  0.1318  1.3336  0.6588
  110OSM   H13G11402   5.656   0.286   9.396  2.5460 -1.1529  1.0846
  110OSM   C14F11403   5.776   0.408   9.243  0.1104  0.3763  0.6168
  110OSM   H14F11404   5.859   0.334   9.239 -0.2638 -0.0022 -0.2001
  110OSM   H14G11405   5.821   0.509   9.257 -2.6889  1.4405  3.1214
  110OSM   C15F11406   5.698   0.401   9.107 -0.3690 -0.0346 -0.0240
  110OSM   H15F11407   5.623   0.482   9.116 -2.3031 -1.9665  2.9990
  110OSM   H15G11408   5.639   0.308   9.093  0.1929 -0.5285  0.7771
  110OSM   C16F11409   5.780   0.431   8.978 -0.0648  0.7809  0.5230
  110OSM   H16F11410   5.848   0.344   8.965  0.1803  0.9614  0.5882
  110OSM   H16G11411   5.847   0.517   8.998 -0.5360  0.8029  2.1304
  110OSM   C17F11412   5.692   0.462   8.851  0.8684  0.5296 -0.0090
  110OSM   H17F11413   5.606   0.514   8.898  1.1769  0.3645  0.7537
  110OSM   H17G11414   5.659   0.365   8.807 -2.4249  0.2799  2.5998
  110OSM   C18F11415   5.761   0.543   8.742  0.5402 -0.3438  0.4731
  110OSM   H18F11416   5.812   0.635   8.780  1.8999 -0.3139 -1.3116
  110OSM   H18G11417   5.692   0.583   8.665  0.8640  0.4538  0.5772
  110OSM   H18H11418   5.838   0.485   8.686 -1.9835 -1.4995 -2.0232
  111OSM      N11419   5.045   5.638  10.846  0.3326 -0.0257 -0.1653
  111OSM    C1511420   5.179   5.594  10.806  0.0752  0.0477  0.2037
  111OSM   H15A11421   5.248   5.587  10.889  2.3278 -0.4839 -1.6236
  111OSM   H15B11422   5.229   5.665  10.742 -0.4381  0.9992  0.8359
  111OSM   H15C11423   5.172   5.501  10.752 -1.3478  0.3165 -0.1174
  111OSM    C1411424   4.972   5.534  10.920  0.0394 -0.2072  0.7170
  111OSM   H14A11425   4.866   5.556  10.916  0.2172  0.6225  0.3171
  111OSM   H14B11426   5.004   5.512  11.021  1.1298 -0.5278  0.3067
  111OSM   H14C11427   5.001   5.445  10.866  0.2815 -0.6123  1.4925
  111OSM    C1311428   5.069   5.761  10.934  0.4764 -0.2512 -0.2121
  111OSM   H13A11429   5.106   5.731  11.031  1.1434 -0.0272 -0.3955
  111OSM   H13B11430   4.977   5.815  10.955  1.0444  0.1174  1.5232
  111OSM   H13C11431   5.133   5.833  10.886 -1.0838  1.0232 -0.4613
  111OSM    C1211432   4.963   5.679  10.725 -0.6653  0.2712  0.1542
  111OSM   H12A11433   5.016   5.761  10.678  2.0483 -0.8229  1.0973
  111OSM   H12B11434   4.868   5.720  10.755 -0.0332  2.1120 -0.2246
  111OSM    C1111435   4.948   5.584  10.603 -0.1776  0.1837 -0.1549
  111OSM   H11A11436   5.033   5.512  10.600  1.5061  2.0380  0.7260
  111OSM   H11B11437   4.932   5.640  10.509 -1.2945 -0.0070 -0.0914
  111OSM      P11438   4.699   5.547  10.621  0.2635 -0.1993 -0.0248
  111OSM    O1311439   4.606   5.431  10.608  0.0098 -0.4710  0.1410
  111OSM    O1411440   4.669   5.638  10.731 -0.4023 -0.2478 -0.0951
  111OSM    O1111441   4.688   5.629  10.487  0.3459  0.5242 -0.2445
  111OSM    O1211442   4.846   5.496  10.630  0.2929  0.4471  0.2628
  111OSM    C1S11443   4.685   5.549  10.366  0.1070  0.3438 -0.4667
  111OSM    H1S11444   4.584   5.504  10.355 -0.6184  2.0048 -1.0166
  111OSM    H1T11445   4.754   5.462  10.369 -3.1713 -2.4740  1.5814
  111OSM     NF11446   4.714   5.517  10.124 -0.2719  0.0607  0.4721
  111OSM    HNF11447   4.805   5.487  10.099  0.1135  1.1432  0.5193
  111OSM    C2S11448   4.713   5.619  10.227  0.5269 -0.0797  0.5741
  111OSM    H2S11449   4.625   5.685  10.206  2.2879  2.6756  1.3473
  111OSM    C3S11450   4.836   5.708  10.230  0.1821  1.0905  1.5328
  111OSM    H3S11451   4.920   5.639  10.252 -0.5624 -0.9101 -1.4191
  111OSM     O311452   4.837   5.807  10.332 -0.0224 -0.7638  0.2717
  111OSM    HO311453   4.777   5.771  10.397  0.9999  0.1027  1.7386
  111OSM    C4S11454   4.865   5.762  10.091  0.4773 -0.7974  1.0659
  111OSM    H4S11455   4.937   5.710  10.026  0.6656  0.1201  0.5184
  111OSM    C5S11456   4.810   5.875  10.041  0.4812 -0.3543  0.1170
  111OSM    H5S11457   4.734   5.926  10.102  1.1239  0.6419  0.1078
  111OSM    C6S11458   4.839   5.944   9.909  0.4948 -0.0158  0.2653
  111OSM    H6S11459   4.924   6.016   9.913  0.1258  0.6073 -2.0816
  111OSM    H6T11460   4.745   5.992   9.875 -1.3642 -3.0652  0.7748
  111OSM    C7S11461   4.877   5.843   9.798  0.0076 -0.6016  0.2708
  111OSM    H7S11462   4.959   5.775   9.831  1.6980  0.6330 -1.2075
  111OSM    H7T11463   4.916   5.904   9.714 -0.6824 -0.0352  0.3544
  111OSM    C8S11464   4.768   5.737   9.762 -0.5226  0.2038 -0.6374
  111OSM    H8S11465   4.701   5.712   9.847  1.6763  0.9993  1.4610
  111OSM    H8T11466   4.830   5.646   9.746  0.0493  0.2252  1.2187
  111OSM    C9S11467   4.680   5.789   9.639 -0.7214  0.0535 -0.6127
  111OSM    H9S11468   4.750   5.814   9.557 -1.6795  1.1417 -1.1311
  111OSM    H9T11469   4.622   5.879   9.669 -1.5978 -1.2529  1.8843
  111OSM   C10S11470   4.581   5.690   9.569 -0.2058 -0.1728  0.3311
  111OSM   H10S11471   4.499   5.668   9.641  0.4649 -4.2108  0.0686
  111OSM   H10T11472   4.630   5.593   9.549 -1.7155 -0.8603 -0.2066
  111OSM   C11S11473   4.544   5.736   9.423  0.7878  0.1055 -0.7375
  111OSM   H11S11474   4.638   5.763   9.372  1.7427 -0.5546  0.6081
  111OSM   H11T11475   4.469   5.817   9.431  0.4467 -0.2628  0.0057
  111OSM   C12S11476   4.465   5.634   9.337  0.5331  0.1040  0.2516
  111OSM   H12S11477   4.365   5.610   9.378  1.6923 -2.8241  1.6690
  111OSM   H12T11478   4.524   5.541   9.324  0.2547  0.3171 -5.0625
  111OSM   C13S11479   4.434   5.689   9.196  0.3821  0.1586 -0.2007
  111OSM   H13S11480   4.531   5.724   9.154  0.3327 -1.2588 -1.5727
  111OSM   H13T11481   4.356   5.768   9.203  0.0722 -0.2057  0.6403
  111OSM   C14S11482   4.392   5.578   9.101  0.0060 -0.1757 -0.1707
  111OSM   H14S11483   4.315   5.514   9.149 -0.4626  1.4656  1.4139
  111OSM   H14T11484   4.474   5.507   9.078 -0.9368 -0.6821 -2.1352
  111OSM   C15S11485   4.340   5.640   8.970 -0.2740 -1.0657  0.3044
  111OSM   H15S11486   4.284   5.734   8.990  1.7732  0.2777  0.0087
  111OSM   H15T11487   4.265   5.568   8.930 -0.4672  0.8595 -3.1922
  111OSM   C16S11488   4.445   5.671   8.867  0.1603 -0.1259 -0.5895
  111OSM   H16S11489   4.521   5.591   8.860  1.4946  0.9432  0.9595
  111OSM   H16T11490   4.498   5.762   8.903 -0.7185  0.6571 -1.2204
  111OSM   C17S11491   4.375   5.708   8.731  0.2925  0.5252 -0.2879
  111OSM   H17S11492   4.299   5.788   8.747  0.4765  0.5554  0.4936
  111OSM   H17T11493   4.319   5.620   8.692 -1.7575  0.6072  2.2304
  111OSM   C18S11494   4.470   5.756   8.624 -0.2104  0.0923  0.4782
  111OSM   H18S11495   4.401   5.796   8.547  0.9090 -2.0247 -1.7559
  111OSM   H18T11496   4.514   5.665   8.578  0.1207  1.5187 -2.2066
  111OSM   H18U11497   4.559   5.817   8.648  1.3478 -0.8105 -2.5259
  111OSM    C1F11498   4.604   5.464  10.075 -0.4246  0.1277 -1.2042
  111OSM     OF11499   4.491   5.500  10.112 -0.3504 -0.1128 -0.0978
  111OSM    C2F11500   4.628   5.345   9.980 -1.0940 -0.1621 -0.1515
  111OSM    H2F11501   4.563   5.266  10.022  0.1146 -0.8493  0.4984
  111OSM    H2G11502   4.733   5.310   9.994 -0.8862  0.2420 -0.6542
  111OSM    C3F11503   4.617   5.387   9.831 -0.2515 -0.6784 -0.2562
  111OSM    H3F11504   4.678   5.477   9.804 -1.4119  0.0169 -0.6216
  111OSM    H3G11505   4.509   5.408   9.821 -0.4463 -0.1807  2.3473
  111OSM    C4F11506   4.660   5.280   9.736  0.2080 -0.0219 -1.2010
  111OSM    H4F11507   4.591   5.193   9.748  0.0019  0.1767 -0.9471
  111OSM    H4G11508   4.762   5.241   9.756 -0.1868 -0.1676  0.7325
  111OSM    C5F11509   4.673   5.333   9.598  0.1732  0.8375 -0.3744
  111OSM    H5F11510   4.745   5.417   9.600 -0.2249  1.1808  1.5007
  111OSM    H5G11511   4.574   5.372   9.564 -1.9664 -3.4181  0.2181
  111OSM    C6F11512   4.722   5.226   9.501  0.1599  0.1197 -0.2048
  111OSM    H6F11513   4.675   5.126   9.512  1.1879 -0.2317  1.2483
  111OSM    H6G11514   4.824   5.200   9.536 -0.3351 -0.1537  1.1172
  111OSM    C7F11515   4.728   5.277   9.356 -0.3902  0.5762  0.8622
  111OSM    H7F11516   4.837   5.297   9.343 -0.2157 -1.3581 -1.2798
  111OSM    H7G11517   4.673   5.373   9.343 -0.6423  0.4691  1.1458
  111OSM    C8F11518   4.687   5.179   9.240 -0.4860 -0.3192 -0.4121
  111OSM    H8F11519   4.580   5.159   9.262 -0.6355  2.4663  2.1643
  111OSM    H8G11520   4.748   5.087   9.256 -2.9418 -1.8245  0.9719
  111OSM    C9F11521   4.699   5.241   9.106 -0.3783  0.5297 -0.3283
  111OSM    H9F11522   4.690   5.351   9.107  0.0636  0.5608  0.1367
  111OSM   C10F11523   4.719   5.194   8.986  0.2857 -0.7244 -0.3346
  111OSM   H10F11524   4.709   5.263   8.901 -1.4594  0.1286  0.5144
  111OSM   C11F11525   4.724   5.050   8.951  0.1389  0.0444 -0.3469
  111OSM   H11F11526   4.725   4.995   9.048  1.3732  1.6145  0.5875
  111OSM   H11G11527   4.815   5.025   8.892 -0.2953 -0.9439 -0.6257
  111OSM   C12F11528   4.596   5.018   8.869  0.3270  0.2365 -0.2581
  111OSM   H12F11529   4.592   5.076   8.775 -1.7024  1.3948  0.4722
  111OSM   H12G11530   4.509   5.054   8.929 -1.4512 -2.8042 -0.8143
  111OSM   C13F11531   4.561   4.872   8.852  0.1004  0.2219 -0.3350
  111OSM   H13F11532   4.550   4.840   8.957  1.3610  2.5103  0.5666
  111OSM   H13G11533   4.646   4.817   8.807  0.5361  0.4457  0.2104
  111OSM   C14F11534   4.432   4.858   8.762  0.1183 -0.7897  0.7470
  111OSM   H14F11535   4.458   4.926   8.678 -2.0097  1.4990  1.8318
  111OSM   H14G11536   4.339   4.891   8.813 -0.9409  0.1485 -1.6441
  111OSM   C15F11537   4.409   4.720   8.702 -1.4208  0.0145  0.2576
  111OSM   H15F11538   4.393   4.653   8.788  0.0079  2.2483  2.4125
  111OSM   H15G11539   4.505   4.686   8.657 -0.5930  1.1643  1.0969
  111OSM   C16F11540   4.301   4.714   8.593  0.2629  0.0259  0.5536
  111OSM   H16F11541   4.322   4.805   8.533 -0.8173  0.3055  0.5743
  111OSM   H16G11542   4.203   4.720   8.646 -0.3538 -1.8344 -0.2728
  111OSM   C17F11543   4.305   4.586   8.512 -0.3731 -0.7850  0.0069
  111OSM   H17F11544   4.381   4.599   8.432 -0.4175  1.6910  0.2982
  111OSM   H17G11545   4.206   4.575   8.461 -0.2347 -3.6257  0.1720
  111OSM   C18F11546   4.337   4.444   8.571 -0.3141  0.7149  0.0582
  111OSM   H18F11547   4.346   4.356   8.503 -1.8178 -0.6295  1.5187
  111OSM   H18G11548   4.262   4.409   8.645 -0.5409 -1.8695 -1.2852
  111OSM   H18H11549   4.435   4.436   8.622 -0.3140  1.4460  0.1761
  112OSM      N11550   4.773   3.488  11.024 -0.0511 -0.6160  0.2991
  112OSM    C1511551   4.889   3.420  10.952  0.4826  0.2568  0.0879
  112OSM   H15A11552   4.854   3.348  10.879  1.7893 -1.0643  0.7230
  112OSM   H15B11553   4.952   3.361  11.017  0.0941 -0.1844  0.0693
  112OSM   H15C11554   4.947   3.496  10.902  0.8188 -0.0836 -0.0456
  112OSM    C1411555   4.706   3.370  11.088  0.1530  0.0204 -0.4090
  112OSM   H14A11556   4.773   3.335  11.166  2.0129  0.2615 -1.8191
  112OSM   H14B11557   4.708   3.286  11.020  0.8359 -1.9249  1.8699
  112OSM   H14C11558   4.609   3.389  11.131  1.4350 -0.1742  2.8778
  112OSM    C1311559   4.827   3.585  11.120  0.7115  0.0926 -0.4517
  112OSM   H13A11560   4.866   3.671  11.065 -0.8863  0.9903 -0.2487
  112OSM   H13B11561   4.908   3.545  11.179  1.0397  1.7675  0.2888
  112OSM   H13C11562   4.764   3.629  11.195 -0.5680 -0.1715 -1.3334
  112OSM    C1211563   4.678   3.554  10.926 -0.1350  0.4754 -0.4054
  112OSM   H12A11564   4.729   3.639  10.882  0.3904 -0.7049 -2.1786
  112OSM   H12B11565   4.586   3.575  10.979  0.3012 -1.3087  1.1243
  112OSM    C1111566   4.657   3.475  10.800 -0.2399  1.0660 -0.9489
  112OSM   H11A11567   4.750   3.455  10.741  0.4249  1.1468  0.0421
  112OSM   H11B11568   4.583   3.521  10.732  0.4954  1.1259 -1.7320
  112OSM      P11569   4.441   3.323  10.830  0.1992 -0.1961 -0.3055
  112OSM    O1311570   4.417   3.185  10.864 -0.1593  0.1881 -0.0731
  112OSM    O1411571   4.377   3.419  10.921 -0.2828 -0.2923 -0.2953
  112OSM    O1111572   4.396   3.357  10.689 -0.0359  0.3304  0.0947
  112OSM    O1211573   4.602   3.346  10.825  0.1914  0.4449  0.1276
  112OSM    C1S11574   4.447   3.284  10.572 -0.0539 -0.7158 -0.2358
  112OSM    H1S11575   4.421   3.176  10.568  1.4640 -1.0756 -2.3564
  112OSM    H1T11576   4.557   3.291  10.555 -0.3944 -0.7958 -2.8843
  112OSM     NF11577   4.435   3.247  10.337  0.7235 -0.0502  0.1686
  112OSM    HNF11578   4.521   3.269  10.291  1.6192 -3.1417  0.1383
  112OSM    C2S11579   4.387   3.336  10.436 -0.2587 -0.0294  0.1329
  112OSM    H2S11580   4.277   3.326  10.448 -0.2501  1.2104  1.4894
  112OSM    C3S11581   4.423   3.480  10.405  1.0581  0.1733  0.4066
  112OSM    H3S11582   4.534   3.478  10.393  0.9724 -0.6065 -0.3558
  112OSM     O311583   4.390   3.559  10.519  0.8881  0.2665 -0.1472
  112OSM    HO311584   4.369   3.494  10.586 -2.5112  1.2403 -0.0803
  112OSM    C4S11585   4.361   3.537  10.283 -0.2046 -0.1326  0.0534
  112OSM    H4S11586   4.254   3.561  10.286 -0.2282 -0.1438 -0.5419
  112OSM    C5S11587   4.420   3.560  10.162  0.4152 -0.1705 -0.0377
  112OSM    H5S11588   4.522   3.529  10.137  0.5774  0.1806  0.1819
  112OSM    C6S11589   4.342   3.598  10.044  0.3080 -0.2693  0.3403
  112OSM    H6S11590   4.359   3.707  10.035 -1.4398  0.2337  2.1495
  112OSM    H6T11591   4.233   3.602  10.065  0.6277 -0.5951  2.3097
  112OSM    C7S11592   4.387   3.527   9.918 -0.3355  0.1999 -0.0260
  112OSM    H7S11593   4.346   3.425   9.909 -0.1860  0.1885 -0.6222
  112OSM    H7T11594   4.498   3.525   9.915 -0.3623 -2.1849 -1.3863
  112OSM    C8S11595   4.361   3.598   9.785 -0.0073  0.2182 -0.0389
  112OSM    H8S11596   4.420   3.690   9.767  0.1795 -0.0669 -0.9401
  112OSM    H8T11597   4.254   3.629   9.781 -0.1747 -0.4059 -2.4512
  112OSM    C9S11598   4.378   3.511   9.656 -0.5636 -0.0834 -0.0474
  112OSM    H9S11599   4.321   3.420   9.686  0.1581 -0.0114  1.6869
  112OSM    H9T11600   4.486   3.489   9.642  0.3486  3.3366  0.7289
  112OSM   C10S11601   4.327   3.572   9.528 -0.2212  0.2503 -0.1097
  112OSM   H10S11602   4.401   3.649   9.497 -1.2648  1.0859 -0.6101
  112OSM   H10T11603   4.239   3.639   9.535  0.2348  0.7765  0.7794
  112OSM   C11S11604   4.317   3.472   9.409  0.4169 -0.1800 -0.3923
  112OSM   H11S11605   4.246   3.388   9.429 -0.1229  0.4706  0.5028
  112OSM   H11T11606   4.420   3.430   9.411 -0.4582 -2.4966  1.2405
  112OSM   C12S11607   4.285   3.520   9.261 -1.1793  0.2743 -0.3287
  112OSM   H12S11608   4.357   3.598   9.229 -0.2517 -0.0195  0.9671
  112OSM   H12T11609   4.181   3.560   9.258 -1.7547 -1.0019  1.2175
  112OSM   C13S11610   4.300   3.416   9.155  0.1437  1.4858 -0.3944
  112OSM   H13S11611   4.233   3.328   9.164  1.8387  0.2813  0.9169
  112OSM   H13T11612   4.406   3.383   9.156 -0.2246  0.3010  0.1274
  112OSM   C14S11613   4.279   3.479   9.015 -0.0750  0.7917  0.1676
  112OSM   H14S11614   4.340   3.419   8.945 -0.8238 -1.2196  1.1507
  112OSM   H14T11615   4.302   3.587   9.020 -1.4086  1.0541  1.3998
  112OSM   C15S11616   4.134   3.468   8.963  0.0992 -0.0924  0.9971
  112OSM   H15S11617   4.062   3.516   9.033 -1.8127  1.1219 -1.6610
  112OSM   H15T11618   4.112   3.362   8.941  1.2934  0.2660 -2.5256
  112OSM   C16S11619   4.121   3.541   8.819  0.5914  0.5511 -0.5308
  112OSM   H16S11620   4.204   3.519   8.749  1.6613 -0.4551  0.9727
  112OSM   H16T11621   4.111   3.649   8.842 -3.6578  0.6205 -1.9296
  112OSM   C17S11622   3.991   3.500   8.749 -0.0435 -0.4517  0.0279
  112OSM   H17S11623   3.909   3.514   8.823  0.3790  1.6196  0.1651
  112OSM   H17T11624   3.998   3.393   8.721 -2.1047 -1.0938  1.6211
  112OSM   C18S11625   3.943   3.587   8.629  0.5022  0.5116  0.3377
  112OSM   H18S11626   3.912   3.688   8.664  2.4716  1.4627 -0.5083
  112OSM   H18T11627   3.871   3.522   8.575 -0.2611  1.7139 -0.1312
  112OSM   H18U11628   4.028   3.600   8.558  0.1805 -1.2125 -0.4065
  112OSM    C1F11629   4.393   3.124  10.306 -0.2905  0.0745 -0.7260
  112OSM     OF11630   4.290   3.077  10.357 -1.0564 -0.1475 -0.2153
  112OSM    C2F11631   4.474   3.036  10.211 -0.7548 -0.4525 -0.2338
  112OSM    H2F11632   4.490   2.943  10.270 -0.3683 -1.3461 -1.6985
  112OSM    H2G11633   4.571   3.088  10.192  0.5783 -3.3871 -2.1815
  112OSM    C3F11634   4.412   3.020  10.069 -0.3406  0.2787 -0.5521
  112OSM    H3F11635   4.414   3.120  10.020  2.1522  0.8559  0.5622
  112OSM    H3G11636   4.304   2.992  10.071 -0.0682 -0.7838 -0.0804
  112OSM    C4F11637   4.495   2.931   9.981  0.6010 -0.2860 -0.3750
  112OSM    H4F11638   4.492   2.831  10.029  2.0503 -0.2604 -0.1980
  112OSM    H4G11639   4.601   2.962   9.985  0.4953 -0.0266  1.0150
  112OSM    C5F11640   4.444   2.932   9.838  0.1744  0.2860  0.0517
  112OSM    H5F11641   4.465   3.030   9.790 -1.4841  0.2132 -0.9055
  112OSM    H5G11642   4.335   2.909   9.837  0.1903  0.1451 -1.6731
  112OSM    C6F11643   4.528   2.832   9.762 -0.0633  0.2618  0.5256
  112OSM    H6F11644   4.490   2.731   9.786  0.3149  0.1107  0.4834
  112OSM    H6G11645   4.635   2.839   9.791 -0.0953  1.3072  0.4390
  112OSM    C7F11646   4.518   2.851   9.609  0.2784 -0.6467 -0.2730
  112OSM    H7F11647   4.577   2.935   9.569  0.2450 -0.5814 -0.1861
  112OSM    H7G11648   4.408   2.856   9.595 -0.1002  1.0030  2.5197
  112OSM    C8F11649   4.550   2.719   9.531 -0.0947 -0.4768 -0.1824
  112OSM    H8F11650   4.508   2.709   9.428  0.4560  0.0589 -0.4667
  112OSM    H8G11651   4.510   2.637   9.595 -1.6524  1.1668  1.0458
  112OSM    C9F11652   4.696   2.701   9.537 -1.5567 -0.1513  0.2497
  112OSM    H9F11653   4.723   2.663   9.636  1.2909  0.0437 -0.3620
  112OSM   C10F11654   4.795   2.711   9.436  0.0280  0.0298 -0.3082
  112OSM   H10F11655   4.900   2.685   9.455 -0.4677 -0.7323  1.5489
  112OSM   C11F11656   4.753   2.759   9.299 -0.5256 -0.0887  0.4310
  112OSM   H11F11657   4.826   2.832   9.258  1.7327 -2.4072  0.1004
  112OSM   H11G11658   4.662   2.822   9.303  0.1680  0.8808  2.0523
  112OSM   C12F11659   4.741   2.646   9.196 -0.2346 -0.4594 -0.2043
  112OSM   H12F11660   4.696   2.688   9.104  1.3613 -0.1497 -0.8582
  112OSM   H12G11661   4.668   2.574   9.242  0.5518 -1.1828 -0.0637
  112OSM   C13F11662   4.871   2.574   9.167 -0.3169  0.4418  0.2876
  112OSM   H13F11663   4.893   2.524   9.264 -0.4867 -2.7206 -1.1725
  112OSM   H13G11664   4.947   2.647   9.133  1.2473 -0.9587  0.6195
  112OSM   C14F11665   4.861   2.466   9.059 -0.5953 -0.0343  0.2104
  112OSM   H14F11666   4.772   2.400   9.073 -1.1649  0.9237  1.2523
  112OSM   H14G11667   4.957   2.410   9.053 -0.9733 -0.8118  0.9916
  112OSM   C15F11668   4.824   2.529   8.922 -0.9622  0.5406 -0.3397
  112OSM   H15F11669   4.908   2.599   8.905  0.2509 -1.3220 -2.5597
  112OSM   H15G11670   4.728   2.582   8.938 -0.9222  0.4642  0.1688
  112OSM   C16F11671   4.821   2.438   8.798 -0.2321  0.0629 -0.1262
  112OSM   H16F11672   4.796   2.514   8.721  2.3292  0.1429 -0.9657
  112OSM   H16G11673   4.745   2.357   8.807  0.5717 -0.8301 -1.1662
  112OSM   C17F11674   4.956   2.367   8.763  0.0512 -0.1858  0.3355
  112OSM   H17F11675   4.940   2.277   8.700  1.2393  0.5105 -1.0007
  112OSM   H17G11676   5.012   2.332   8.852 -0.2066 -0.6362  0.3244
  112OSM   C18F11677   5.057   2.456   8.690 -0.7484  0.1597 -0.2345
  112OSM   H18F11678   5.000   2.509   8.611 -3.8559 -0.6090  1.3299
  112OSM   H18G11679   5.147   2.403   8.651  0.5669  0.5898  2.0064
  112OSM   H18H11680   5.080   2.534   8.766 -1.0991  1.8724 -1.8013
  113OSM      N11681   5.407   3.632  10.930  0.5997  0.2670 -0.2983
  113OSM    C1511682   5.502   3.630  11.049 -0.7662 -0.0095  1.1910
  113OSM   H15A11683   5.594   3.683  11.030 -1.8508  2.1145  1.4683
  113OSM   H15B11684   5.528   3.526  11.056 -0.2180 -0.2174 -2.3879
  113OSM   H15C11685   5.454   3.666  11.139  1.0481  1.7102  1.5554
  113OSM    C1411686   5.289   3.547  10.970  0.1622  0.3566 -0.2130
  113OSM   H14A11687   5.260   3.574  11.070 -0.3111  0.9795 -0.5138
  113OSM   H14B11688   5.305   3.440  10.971  0.7036  0.4287 -0.4999
  113OSM   H14C11689   5.206   3.577  10.908  0.7090  2.7702  0.1380
  113OSM    C1311690   5.344   3.773  10.910 -0.1274 -0.2930  0.0645
  113OSM   H13A11691   5.336   3.811  11.011 -2.6292 -0.8893  0.1395
  113OSM   H13B11692   5.245   3.769  10.868 -1.0915  0.7517  2.1184
  113OSM   H13C11693   5.417   3.826  10.850  0.0617  0.1165  0.6434
  113OSM    C1211694   5.466   3.588  10.802  0.0191  0.0170  0.1236
  113OSM   H12A11695   5.387   3.563  10.734 -1.7013  1.9067  1.3296
  113OSM   H12B11696   5.525   3.501  10.829 -2.5170 -1.7630  0.2271
  113OSM    C1111697   5.568   3.684  10.739  0.6797 -0.5217  0.0559
  113OSM   H11A11698   5.526   3.786  10.728 -0.0385 -0.8603 -0.4320
  113OSM   H11B11699   5.568   3.635  10.639  0.7552 -3.5837  1.4312
  113OSM      P11700   5.813   3.744  10.782  0.0155  0.0748  0.5619
  113OSM    O1311701   5.795   3.891  10.789  0.3462  1.0206 -0.6354
  113OSM    O1411702   5.921   3.683  10.853 -0.2985  0.1870 -0.7465
  113OSM    O1111703   5.829   3.705  10.633  0.3335 -0.0155 -0.2689
  113OSM    O1211704   5.677   3.678  10.819 -0.0478 -0.5676 -0.5184
  113OSM    C1S11705   5.841   3.564  10.603  0.7171  0.3648 -0.4816
  113OSM    H1S11706   5.764   3.502  10.654  1.8349 -1.1786 -0.6120
  113OSM    H1T11707   5.941   3.532  10.640  0.0049 -0.2329  1.0313
  113OSM     NF11708   5.825   3.405  10.414 -0.0079  0.5424 -0.2244
  113OSM    HNF11709   5.914   3.363  10.393 -0.6461 -0.6106 -0.7608
  113OSM    C2S11710   5.831   3.546  10.446  0.3214  0.0567  0.1001
  113OSM    H2S11711   5.735   3.594  10.414  0.0882 -0.3297  0.2113
  113OSM    C3S11712   5.949   3.627  10.383  0.0224  0.2752 -0.5184
  113OSM    H3S11713   6.045   3.582  10.417 -0.0594  0.6069  0.1753
  113OSM     O311714   5.964   3.764  10.421 -0.4476 -0.9240  0.7217
  113OSM    HO311715   5.908   3.776  10.498 -2.0690 -0.0601 -0.5237
  113OSM    C4S11716   5.942   3.625  10.229 -0.4261 -0.0512  0.0863
  113OSM    H4S11717   5.846   3.653  10.182 -0.2962 -0.8240 -0.6555
  113OSM    C5S11718   6.043   3.602  10.142 -0.0687  0.4335 -0.1214
  113OSM    H5S11719   6.140   3.571  10.183 -0.0068 -2.5017 -2.1256
  113OSM    C6S11720   6.030   3.596   9.989  0.6172  0.3561  0.3443
  113OSM    H6S11721   6.018   3.702   9.955 -0.7726  0.2324  0.4030
  113OSM    H6T11722   5.945   3.537   9.949 -0.7830  1.1947  1.9602
  113OSM    C7S11723   6.161   3.530   9.934  0.6122 -0.6100  0.1727
  113OSM    H7S11724   6.160   3.426   9.973  0.4534 -0.7864 -0.2957
  113OSM    H7T11725   6.248   3.579   9.984  0.4322 -1.5576  1.4839
  113OSM    C8S11726   6.175   3.529   9.777  0.3437  0.3571 -0.1571
  113OSM    H8S11727   6.277   3.493   9.750  0.2827  0.0793 -0.0138
  113OSM    H8T11728   6.179   3.635   9.743 -0.6158  1.0071  1.6188
  113OSM    C9S11729   6.070   3.448   9.698 -0.5055  0.5994  0.3038
  113OSM    H9S11730   5.976   3.506   9.715 -0.8344 -0.2652  1.5865
  113OSM    H9T11731   6.063   3.347   9.743 -1.5679  0.5317  0.0294
  113OSM   C10S11732   6.088   3.443   9.546 -0.3433  0.8254 -0.3037
  113OSM   H10S11733   6.071   3.541   9.497 -2.5031 -0.6067 -2.6774
  113OSM   H10T11734   6.008   3.379   9.503  0.5433  0.8130 -2.0304
  113OSM   C11S11735   6.222   3.375   9.498 -0.5781 -0.0598 -0.3050
  113OSM   H11S11736   6.235   3.281   9.556  3.5702  0.4395 -0.1075
  113OSM   H11T11737   6.307   3.440   9.530 -0.1747 -0.2604 -0.9458
  113OSM   C12S11738   6.236   3.344   9.354  0.0909  0.3436 -1.0717
  113OSM   H12S11739   6.160   3.268   9.324  2.9386 -2.7280 -1.0632
  113OSM   H12T11740   6.339   3.303   9.344  0.0679  0.1119 -0.3755
  113OSM   C13S11741   6.229   3.470   9.268  0.3370  0.4959 -0.5913
  113OSM   H13S11742   6.301   3.547   9.303  1.8929 -1.1701 -0.0154
  113OSM   H13T11743   6.129   3.518   9.271  1.2740  2.8596 -2.9388
  113OSM   C14S11744   6.256   3.431   9.119  0.1717  0.1660 -0.2989
  113OSM   H14S11745   6.183   3.347   9.108  0.4197 -0.5623  2.7738
  113OSM   H14T11746   6.363   3.405   9.104 -0.2666 -1.9149 -0.2342
  113OSM   C15S11747   6.235   3.552   9.017 -0.6610  0.4801 -0.7497
  113OSM   H15S11748   6.303   3.636   9.041  1.0742 -0.3821 -2.4304
  113OSM   H15T11749   6.129   3.577   9.042 -0.8341 -1.9153  1.3174
  113OSM   C16S11750   6.260   3.502   8.877 -0.2702 -0.6459 -0.4011
  113OSM   H16S11751   6.213   3.402   8.862 -2.4897  0.1983  0.4573
  113OSM   H16T11752   6.370   3.499   8.861 -0.0512 -0.3648  0.9111
  113OSM   C17S11753   6.202   3.587   8.761  0.2917  0.1034  0.4072
  113OSM   H17S11754   6.239   3.691   8.773  0.0394 -0.0377  2.9506
  113OSM   H17T11755   6.092   3.578   8.750  0.3379  1.5018 -1.7293
  113OSM   C18S11756   6.257   3.541   8.631 -0.1113 -0.3328  0.6320
  113OSM   H18S11757   6.252   3.430   8.625 -0.7310 -0.2429 -1.7425
  113OSM   H18T11758   6.368   3.552   8.627 -0.1197 -0.5399 -1.0098
  113OSM   H18U11759   6.208   3.580   8.539  0.4406  1.2022  0.9576
  113OSM    C1F11760   5.717   3.327  10.445  0.4814  0.0524 -0.7204
  113OSM     OF11761   5.619   3.387  10.488  0.4648  0.0638 -0.1661
  113OSM    C2F11762   5.729   3.183  10.433 -1.0120  0.3533 -0.2336
  113OSM    H2F11763   5.757   3.138  10.531 -0.6147 -0.7728 -0.8427
  113OSM    H2G11764   5.817   3.162  10.368 -0.1716  0.5308  0.8201
  113OSM    C3F11765   5.610   3.117  10.372  0.3061  0.2926 -0.5093
  113OSM    H3F11766   5.548   3.191  10.316 -0.0353  1.2336  1.0348
  113OSM    H3G11767   5.546   3.077  10.454  0.1234 -0.1882 -0.8824
  113OSM    C4F11768   5.635   2.999  10.280 -0.2303  0.5407 -0.5115
  113OSM    H4F11769   5.690   3.028  10.188  0.8881 -0.8104 -0.2892
  113OSM    H4G11770   5.534   2.965  10.247 -1.1127 -0.8234  3.1411
  113OSM    C5F11771   5.697   2.876  10.345 -0.0780 -0.5445  0.4090
  113OSM    H5F11772   5.627   2.834  10.421  0.4098 -1.2513  0.4822
  113OSM    H5G11773   5.790   2.911  10.393  0.0240 -0.8283  0.4229
  113OSM    C6F11774   5.742   2.763  10.253 -0.1586  0.1848 -0.3695
  113OSM    H6F11775   5.807   2.697  10.314  1.0408  0.1117 -1.6818
  113OSM    H6G11776   5.817   2.798  10.179  0.0607 -0.4731 -0.4677
  113OSM    C7F11777   5.630   2.688  10.179 -0.2279 -0.7191  0.4132
  113OSM    H7F11778   5.609   2.728  10.077 -4.1465  0.9579  1.6738
  113OSM    H7G11779   5.539   2.707  10.241  0.5187 -0.3869  1.4258
  113OSM    C8F11780   5.656   2.537  10.165 -0.9122 -0.1543  0.3175
  113OSM    H8F11781   5.693   2.492  10.260  2.4503  0.1737 -0.7298
  113OSM    H8G11782   5.738   2.519  10.092 -0.2842  0.4932  0.8483
  113OSM    C9F11783   5.534   2.462  10.122  0.8751  0.2476  0.1188
  113OSM    H9F11784   5.453   2.465  10.195  1.8012 -1.4104  1.2712
  113OSM   C10F11785   5.517   2.402  10.004  0.9222 -0.0226  0.1315
  113OSM   H10F11786   5.413   2.367   9.999  0.3604  1.5748 -0.0360
  113OSM   C11F11787   5.617   2.366   9.896  0.2005  0.1579 -0.2219
  113OSM   H11F11788   5.621   2.257   9.874 -1.8380 -0.4286  1.8644
  113OSM   H11G11789   5.723   2.389   9.917  0.1708  0.6866 -0.6191
  113OSM   C12F11790   5.575   2.432   9.761 -0.2777 -0.0500 -0.0560
  113OSM   H12F11791   5.582   2.543   9.764  1.9600 -0.1127 -1.2351
  113OSM   H12G11792   5.469   2.415   9.730 -1.1496  2.3151  1.3344
  113OSM   C13F11793   5.663   2.397   9.640 -0.1416  0.0211 -0.4593
  113OSM   H13F11794   5.643   2.293   9.608  2.0507 -0.4553 -0.4170
  113OSM   H13G11795   5.772   2.396   9.661 -0.1842  1.5395 -0.0234
  113OSM   C14F11796   5.648   2.481   9.512 -0.7317  0.0838 -0.4413
  113OSM   H14F11797   5.550   2.529   9.489 -1.4296 -1.3215 -0.4963
  113OSM   H14G11798   5.657   2.416   9.423  2.8688  1.6112 -1.3656
  113OSM   C15F11799   5.765   2.582   9.497  0.0584  0.6209 -0.0391
  113OSM   H15F11800   5.749   2.645   9.407 -0.7878  3.1609  1.7639
  113OSM   H15G11801   5.865   2.535   9.496 -0.9636 -1.8907  1.8564
  113OSM   C16F11802   5.785   2.687   9.608 -0.0203 -0.1614 -0.1024
  113OSM   H16F11803   5.860   2.762   9.576 -1.2154  0.9711 -0.3066
  113OSM   H16G11804   5.805   2.647   9.709  0.1912 -0.7471 -0.3702
  113OSM   C17F11805   5.658   2.776   9.617  0.3544 -0.3330  0.6032
  113OSM   H17F11806   5.564   2.717   9.618  0.4333 -0.5124 -0.6643
  113OSM   H17G11807   5.644   2.837   9.525 -1.0918  0.8380  1.5532
  113OSM   C18F11808   5.648   2.884   9.730  0.1853  0.1068 -0.8020
  113OSM   H18F11809   5.704   2.971   9.690  1.2723 -0.2166 -0.0215
  113OSM   H18G11810   5.685   2.855   9.830 -3.3482  1.4571  1.0379
  113OSM   H18H11811   5.546   2.916   9.758  0.6345  0.1902  0.8378
  114OSM      N11812   5.898   1.717  11.922  0.1093 -0.1529  0.3479
  114OSM    C1511813   5.757   1.769  11.911 -0.1391 -0.3140 -0.0651
  114OSM   H15A11814   5.693   1.725  11.986 -0.1771 -1.5640 -0.8027
  114OSM   H15B11815   5.718   1.732  11.817 -2.4206 -0.1991  0.7534
  114OSM   H15C11816   5.753   1.877  11.916 -2.9672 -0.3885  2.9636
  114OSM    C1411817   5.965   1.751  12.052  0.4913  0.6156  0.5924
  114OSM   H14A11818   5.974   1.858  12.066  2.1475  0.3619  1.8637
  114OSM   H14B11819   6.063   1.706  12.062  0.5336  0.4564 -0.4183
  114OSM   H14C11820   5.907   1.721  12.138  1.7472 -0.4474  1.1149
  114OSM    C1311821   5.892   1.567  11.912 -0.4379 -0.1912  0.6345
  114OSM   H13A11822   5.822   1.524  11.982 -3.3181  2.9068 -0.0475
  114OSM   H13B11823   5.987   1.519  11.925 -0.4668  0.2237  2.7401
  114OSM   H13C11824   5.860   1.552  11.810  1.3853 -0.0098 -0.0014
  114OSM    C1211825   5.982   1.779  11.815 -0.2040  0.2613 -0.2059
  114OSM   H12A11826   6.088   1.772  11.833  0.2668  1.4537 -2.1680
  114OSM   H12B11827   5.960   1.884  11.825 -0.5482  0.1851 -0.1370
  114OSM    C1111828   5.943   1.740  11.670  0.0473 -0.6333  0.4811
  114OSM   H11A11829   6.002   1.796  11.595 -2.1566 -1.2326 -1.8499
  114OSM   H11B11830   5.840   1.777  11.651 -0.2595 -1.9903 -0.6468
  114OSM      P11831   5.886   1.528  11.524 -0.2437  0.2255  0.1116
  114OSM    O1311832   5.953   1.401  11.485  0.7839 -0.3187  0.5630
  114OSM    O1411833   5.748   1.523  11.551  0.0011  0.0250  0.3009
  114OSM    O1111834   5.902   1.639  11.413  0.1351 -0.0742  0.1662
  114OSM    O1211835   5.965   1.596  11.644 -0.6334 -0.1606 -0.9652
  114OSM    C1S11836   6.019   1.668  11.335  0.0163  0.2132 -0.0931
  114OSM    H1S11837   6.096   1.589  11.337  0.4166  0.5377 -1.6416
  114OSM    H1T11838   6.051   1.764  11.381 -0.2549 -0.4460  1.5326
  114OSM     NF11839   6.093   1.681  11.098 -0.0568  0.0584 -0.4060
  114OSM    HNF11840   6.131   1.756  11.043 -1.3233  0.3341 -0.9330
  114OSM    C2S11841   5.976   1.706  11.187  0.7758 -0.4318 -0.2125
  114OSM    H2S11842   5.892   1.641  11.155 -1.6567  1.8472  1.2136
  114OSM    C3S11843   5.920   1.848  11.192  0.0118 -0.2021 -0.1955
  114OSM    H3S11844   5.997   1.915  11.235  1.5774 -2.0535  0.0133
  114OSM     O311845   5.813   1.861  11.283  0.7181 -0.2863 -0.1871
  114OSM    HO311846   5.810   1.780  11.335  1.3248  0.0994  0.4621
  114OSM    C4S11847   5.880   1.894  11.058 -0.4027  0.0478 -0.2756
  114OSM    H4S11848   5.911   1.998  11.038  1.0550 -0.6657 -1.9475
  114OSM    C5S11849   5.804   1.827  10.969  0.1255  0.2478 -0.7582
  114OSM    H5S11850   5.764   1.729  10.999 -1.1516  0.4355 -1.7541
  114OSM    C6S11851   5.753   1.868  10.840 -0.4420 -0.1427  0.4369
  114OSM    H6S11852   5.767   1.791  10.761 -0.4832  1.8608 -1.6316
  114OSM    H6T11853   5.799   1.962  10.803 -1.1966  0.6511  1.4823
  114OSM    C7S11854   5.600   1.907  10.842  0.0730  0.4193  0.0257
  114OSM    H7S11855   5.585   1.984  10.921 -1.3852  0.7075 -0.5146
  114OSM    H7T11856   5.533   1.824  10.869  0.2313 -0.4142 -1.9893
  114OSM    C8S11857   5.544   1.968  10.718 -0.0397  0.0923  0.3768
  114OSM    H8S11858   5.592   2.065  10.690  0.1619 -0.1773 -0.2374
  114OSM    H8T11859   5.437   1.993  10.734  0.4546  2.9548 -0.1058
  114OSM    C9S11860   5.564   1.878  10.593  0.4691  0.1996  0.2428
  114OSM    H9S11861   5.509   1.783  10.612 -2.1100  1.4203 -0.5918
  114OSM    H9T11862   5.669   1.861  10.561  0.2494  0.4787 -0.6535
  114OSM   C10S11863   5.492   1.938  10.474 -0.5361 -0.9497 -0.0100
  114OSM   H10S11864   5.553   2.026  10.445  0.5957 -1.0515  1.8964
  114OSM   H10T11865   5.386   1.970  10.487 -0.4060 -1.0282  1.3534
  114OSM   C11S11866   5.495   1.848  10.356  0.1559  0.1832  0.1820
  114OSM   H11S11867   5.405   1.786  10.376 -0.5210  0.3497 -2.0676
  114OSM   H11T11868   5.590   1.791  10.365  0.2238  0.4618  1.3085
  114OSM   C12S11869   5.490   1.902  10.214  0.1054  0.4523  0.8146
  114OSM   H12S11870   5.492   1.811  10.151  0.2934  0.3744  0.9311
  114OSM   H12T11871   5.576   1.966  10.183  0.5151 -0.4481  0.0233
  114OSM   C13S11872   5.357   1.965  10.161 -0.5552 -0.1953  0.2451
  114OSM   H13S11873   5.329   2.052  10.225  0.5751  1.3471 -1.2838
  114OSM   H13T11874   5.272   1.893  10.166 -0.8708  0.1894  0.4806
  114OSM   C14S11875   5.354   2.016  10.020 -0.1644  0.0535  0.1976
  114OSM   H14S11876   5.450   2.070  10.005  1.8405 -3.5183 -0.9871
  114OSM   H14T11877   5.279   2.097  10.005 -0.5384 -0.2392  0.4444
  114OSM   C15S11878   5.329   1.897   9.921 -0.3800 -0.0145 -0.7494
  114OSM   H15S11879   5.238   1.842   9.954  0.9569 -1.6749  0.3170
  114OSM   H15T11880   5.408   1.820   9.930 -0.2859  0.0920 -0.6616
  114OSM   C16S11881   5.312   1.929   9.769 -0.3397  0.0659  0.4462
  114OSM   H16S11882   5.230   2.002   9.761 -2.2302 -2.0407 -0.7216
  114OSM   H16T11883   5.281   1.832   9.724 -2.2479  1.3100 -1.0534
  114OSM   C17S11884   5.429   1.978   9.690  0.1300 -0.0925 -0.3728
  114OSM   H17S11885   5.516   1.909   9.695 -0.0056 -0.2456 -0.1102
  114OSM   H17T11886   5.463   2.071   9.740  1.9359 -1.4315  1.0021
  114OSM   C18S11887   5.405   2.001   9.542 -0.0097  0.2550  0.2119
  114OSM   H18S11888   5.364   2.100   9.511  1.7939  0.9147 -0.1836
  114OSM   H18T11889   5.333   1.924   9.508 -1.3001  1.4343  0.1660
  114OSM   H18U11890   5.484   1.977   9.468 -0.2406  1.4846 -0.4540
  114OSM    C1F11891   6.149   1.562  11.067 -0.1476 -0.1720 -0.5770
  114OSM     OF11892   6.107   1.458  11.113 -0.0444 -0.2509  0.4625
  114OSM    C2F11893   6.250   1.556  10.952 -0.6604  0.5747 -0.3366
  114OSM    H2F11894   6.357   1.547  10.982 -0.4994 -0.2137 -1.1032
  114OSM    H2G11895   6.238   1.653  10.900  0.7691  0.7374 -0.3969
  114OSM    C3F11896   6.218   1.440  10.850 -0.1946  0.0375  0.3313
  114OSM    H3F11897   6.212   1.347  10.910  0.9861 -1.0719 -1.1770
  114OSM    H3G11898   6.303   1.428  10.779 -2.1467  0.7268 -2.2710
  114OSM    C4F11899   6.087   1.448  10.764 -0.0938 -0.5620  0.3230
  114OSM    H4F11900   6.011   1.422  10.841  0.2541 -0.9477  0.5413
  114OSM    H4G11901   6.101   1.362  10.696 -0.2614  0.1544 -0.6417
  114OSM    C5F11902   6.059   1.581  10.700  0.6091  0.3842 -0.3807
  114OSM    H5F11903   6.027   1.658  10.773 -0.0136  0.4669 -0.7361
  114OSM    H5G11904   5.974   1.562  10.631  0.0863  1.4876 -0.0668
  114OSM    C6F11905   6.171   1.628  10.604 -0.4937 -0.7169 -0.1901
  114OSM    H6F11906   6.214   1.548  10.540  2.9815  0.6182  0.2984
  114OSM    H6G11907   6.265   1.668  10.648 -0.7004  0.5462 -0.8523
  114OSM    C7F11908   6.107   1.744  10.514  1.0107  0.3890 -0.5210
  114OSM    H7F11909   6.123   1.839  10.569 -0.6826  0.4951 -0.1589
  114OSM    H7G11910   5.999   1.718  10.514  1.0360 -0.1536  2.8972
  114OSM    C8F11911   6.145   1.740  10.367 -0.6183  0.9395 -0.2733
  114OSM    H8F11912   6.087   1.827  10.328 -1.0375  1.2573  1.0096
  114OSM    H8G11913   6.109   1.646  10.321  1.8956  0.6293 -1.8064
  114OSM    C9F11914   6.297   1.765  10.338  0.1518  0.7017  0.3592
  114OSM    H9F11915   6.373   1.716  10.401  0.1543  0.4862  0.1888
  114OSM   C10F11916   6.352   1.848  10.247  0.4241  0.1156  0.3589
  114OSM   H10F11917   6.461   1.847  10.228  0.1919  0.2388 -1.1270
  114OSM   C11F11918   6.270   1.934  10.155 -0.8290 -0.4383 -0.3771
  114OSM   H11F11919   6.321   2.032  10.144 -0.1409 -0.7352  0.0833
  114OSM   H11G11920   6.170   1.956  10.198 -0.4399  0.6820 -0.0214
  114OSM   C12F11921   6.241   1.885  10.009  0.0116 -0.1887  0.0345
  114OSM   H12F11922   6.158   1.952   9.979  0.5799 -0.5114 -2.4446
  114OSM   H12G11923   6.192   1.786  10.000  0.1343 -0.1713 -0.9181
  114OSM   C13F11924   6.354   1.927   9.911  0.5713  0.3651  0.0643
  114OSM   H13F11925   6.432   1.848   9.926 -2.0350 -2.2443  0.8095
  114OSM   H13G11926   6.407   2.022   9.931 -0.4753  0.5242  2.4197
  114OSM   C14F11927   6.306   1.943   9.769 -0.5558 -0.1048  0.3398
  114OSM   H14F11928   6.248   2.037   9.760  1.2725  1.1307  0.9567
  114OSM   H14G11929   6.237   1.859   9.745  0.3239 -0.6575 -0.3454
  114OSM   C15F11930   6.433   1.938   9.676 -0.3198 -0.4533  0.3404
  114OSM   H15F11931   6.484   1.845   9.707  1.5913  0.4670  0.0815
  114OSM   H15G11932   6.503   2.018   9.708  1.3012 -2.0567  0.9457
  114OSM   C16F11933   6.404   1.945   9.531  0.3351 -0.1626  0.2655
  114OSM   H16F11934   6.321   1.880   9.494  0.7680  1.4256 -4.1361
  114OSM   H16G11935   6.482   1.903   9.464 -1.0333 -1.7654 -0.4268
  114OSM   C17F11936   6.384   2.086   9.473  0.4754  0.1901 -0.5739
  114OSM   H17F11937   6.456   2.156   9.520 -0.4878 -0.6433  2.3820
  114OSM   H17G11938   6.285   2.121   9.511  0.3310 -0.5633 -0.2354
  114OSM   C18F11939   6.368   2.089   9.321 -0.1398 -0.2248  0.3979
  114OSM   H18F11940   6.310   2.176   9.285 -1.2549 -1.2964 -0.4996
  114OSM   H18G11941   6.318   1.995   9.289  0.6120  0.0831 -1.8605
  114OSM   H18H11942   6.467   2.084   9.270 -1.6395 -0.5318 -2.7289
  115OSM      N11943   4.015   5.627   6.159 -0.2225 -0.3975  0.4902
  115OSM    C1511944   3.887   5.587   6.231 -0.3018 -0.4350  0.5103
  115OSM   H15A11945   3.820   5.672   6.224  0.1214 -0.2259 -2.5359
  115OSM   H15B11946   3.900   5.566   6.336  0.6274 -0.0397  0.4817
  115OSM   H15C11947   3.835   5.509   6.177  2.2367 -0.8327 -1.5694
  115OSM    C1411948   4.086   5.741   6.241 -0.6122 -0.2160  0.6780
  115OSM   H14A11949   4.156   5.793   6.177  0.4363 -2.5635 -0.1975
  115OSM   H14B11950   4.136   5.682   6.317 -0.4068 -0.2273  0.5322
  115OSM   H14C11951   4.015   5.816   6.272 -2.2635 -1.5347  0.2496
  115OSM    C1311952   4.106   5.513   6.147 -0.4132  0.2246  0.1917
  115OSM   H13A11953   4.202   5.537   6.105 -0.5548  2.4863  1.0148
  115OSM   H13B11954   4.052   5.440   6.089  1.0603 -1.9152  1.3746
  115OSM   H13C11955   4.117   5.461   6.241 -5.7503 -0.3945  0.8054
  115OSM    C1211956   3.977   5.681   6.024 -0.3939  0.0056  0.0788
  115OSM   H12A11957   3.917   5.611   5.967  1.0437 -0.6195 -0.6985
  115OSM   H12B11958   4.069   5.691   5.968  0.8037 -4.4741  0.8730
  115OSM    C1111959   3.903   5.820   6.019  0.3185  0.4835  0.2608
  115OSM   H11A11960   3.866   5.836   5.915 -1.3669  3.4520  1.1764
  115OSM   H11B11961   3.981   5.895   6.041  1.8794 -0.5640 -1.4777
  115OSM      P11962   3.719   5.966   6.150 -0.2113  0.2326  0.0362
  115OSM    O1311963   3.798   6.074   6.090  0.6118  0.6321 -0.2298
  115OSM    O1411964   3.577   5.954   6.102  0.1260  0.3746  0.5021
  115OSM    O1111965   3.726   5.976   6.311  0.3207 -0.3924 -0.7534
  115OSM    O1211966   3.795   5.833   6.113  0.6387  0.0165  0.1226
  115OSM    C1S11967   3.624   6.042   6.383 -0.0805 -0.4838 -0.1837
  115OSM    H1S11968   3.526   5.990   6.373  0.0891 -0.7519 -0.4588
  115OSM    H1T11969   3.605   6.137   6.328 -0.6730 -0.1178  0.6183
  115OSM     NF11970   3.553   6.121   6.603  0.2324  0.1650 -0.0176
  115OSM    HNF11971   3.571   6.206   6.652  1.8281  0.2059 -0.6107
  115OSM    C2S11972   3.658   6.055   6.533 -0.3206  0.7363 -0.5436
  115OSM    H2S11973   3.669   5.957   6.582  1.2548  1.1759  0.0645
  115OSM    C3S11974   3.794   6.133   6.551 -0.1451  0.4635 -0.1065
  115OSM    H3S11975   3.779   6.235   6.509  0.5404  0.5298 -0.1961
  115OSM     O311976   3.910   6.086   6.476 -0.2310 -0.2943 -0.2005
  115OSM    HO311977   3.879   6.012   6.423  2.5575 -0.4208 -1.8263
  115OSM    C4S11978   3.837   6.151   6.694 -0.0942 -0.6686 -1.0214
  115OSM    H4S11979   3.831   6.057   6.750  0.3546 -0.4644 -0.6185
  115OSM    C5S11980   3.878   6.268   6.754  0.3242  0.1824  0.0428
  115OSM    H5S11981   3.888   6.364   6.702 -0.6126  1.1754  1.5962
  115OSM    C6S11982   3.905   6.290   6.902  0.5170 -0.4349  0.3124
  115OSM    H6S11983   3.815   6.338   6.945  0.5569 -0.1438  0.0673
  115OSM    H6T11984   3.992   6.357   6.917  1.9165 -1.9416 -0.6744
  115OSM    C7S11985   3.942   6.173   6.990  0.6986 -0.1780  0.1341
  115OSM    H7S11986   4.024   6.112   6.946  1.5751  1.1776 -0.1519
  115OSM    H7T11987   3.851   6.110   6.995 -0.3186  1.3153  2.6783
  115OSM    C8S11988   3.982   6.218   7.138  0.5686  1.0607 -0.0021
  115OSM    H8S11989   3.918   6.304   7.169 -1.1167 -0.0780 -0.2049
  115OSM    H8T11990   4.087   6.251   7.129  1.2629 -0.5383  1.7130
  115OSM    C9S11991   3.976   6.103   7.247 -0.4543 -0.4581  0.2383
  115OSM    H9S11992   4.061   6.047   7.201  1.5749  1.8983  0.9051
  115OSM    H9T11993   3.880   6.047   7.247  0.3979 -2.0459 -1.7767
  115OSM   C10S11994   4.015   6.153   7.388 -0.0300 -0.1884 -0.4674
  115OSM   H10S11995   3.935   6.214   7.435 -0.3767 -0.8739 -0.1575
  115OSM   H10T11996   4.104   6.218   7.370  0.3534  0.8614  4.0728
  115OSM   C11S11997   4.041   6.041   7.489  0.2887 -0.5248 -0.0465
  115OSM   H11S11998   4.129   5.983   7.454  0.9839  0.1782  0.4947
  115OSM   H11T11999   3.947   5.983   7.504  0.9601 -1.0338  2.7088
  115OSM   C12S12000   4.081   6.098   7.628 -0.0068  0.4533  0.4513
  115OSM   H12S12001   4.044   6.198   7.659 -0.5706 -0.1656  1.8141
  115OSM   H12T12002   4.190   6.118   7.614  0.1368 -1.1515 -1.1178
  115OSM   C13S12003   4.047   6.009   7.743 -0.2874 -0.1097 -0.2206
  115OSM   H13S12004   4.109   5.918   7.726  0.2221 -0.4085  2.6616
  115OSM   H13T12005   3.943   5.973   7.725 -0.6669  1.0650 -0.4738
  115OSM   C14S12006   4.068   6.064   7.886 -0.0089  0.1733  0.0402
  115OSM   H14S12007   4.015   6.162   7.886  0.3905  0.4196  1.6929
  115OSM   H14T12008   4.178   6.081   7.896 -0.0512  1.1533 -0.9745
  115OSM   C15S12009   4.016   5.964   7.987  0.0629  0.3241 -1.1374
  115OSM   H15S12010   4.076   5.871   7.987 -1.5707 -1.0107  3.5950
  115OSM   H15T12011   3.910   5.946   7.959 -0.4059  1.2825 -0.0622
  115OSM   C16S12012   4.036   6.009   8.136 -0.3752 -0.3382 -0.4176
  115OSM   H16S12013   3.991   6.109   8.151  1.6919  0.8334 -1.5372
  115OSM   H16T12014   4.146   6.010   8.151 -0.4368 -2.8203  0.7967
  115OSM   C17S12015   3.979   5.918   8.252 -0.6735  0.9619  0.6740
  115OSM   H17S12016   4.002   5.812   8.226 -1.0545  1.1018 -0.2910
  115OSM   H17T12017   3.869   5.928   8.256 -0.7994 -0.2930  0.9155
  115OSM   C18S12018   4.032   5.970   8.385 -0.4789 -0.2653 -0.5867
  115OSM   H18S12019   3.988   6.070   8.402  1.9651  0.4317  2.4838
  115OSM   H18T12020   4.139   5.969   8.412 -0.8886  2.9907  1.8661
  115OSM   H18U12021   3.976   5.907   8.458 -0.1775  0.4894  0.3081
  115OSM    C1F12022   3.434   6.074   6.614  0.9147 -0.4000 -0.2008
  115OSM     OF12023   3.408   5.958   6.587  0.1971  0.2067  0.8124
  115OSM    C2F12024   3.329   6.171   6.661 -0.2876  0.3722  0.0134
  115OSM    H2F12025   3.255   6.181   6.579 -1.1642  0.3579  0.7823
  115OSM    H2G12026   3.382   6.265   6.685  2.4754 -1.0832 -0.0138
  115OSM    C3F12027   3.253   6.128   6.782  0.0058  0.6991  0.3017
  115OSM    H3F12028   3.189   6.040   6.759  0.5630  0.3638 -0.0167
  115OSM    H3G12029   3.186   6.211   6.811  0.5407  0.6226  1.8270
  115OSM    C4F12030   3.340   6.082   6.902  0.8549  0.5944 -0.0267
  115OSM    H4F12031   3.404   5.996   6.873  1.3514  1.4765 -1.6439
  115OSM    H4G12032   3.269   6.054   6.983  0.5946  0.7376 -0.2052
  115OSM    C5F12033   3.431   6.195   6.957  0.7811 -0.2199 -0.3808
  115OSM    H5F12034   3.371   6.288   6.961  1.1939  0.0662 -0.7409
  115OSM    H5G12035   3.510   6.217   6.883  0.5084  0.5475 -0.4448
  115OSM    C6F12036   3.508   6.170   7.090 -0.3053  0.0816  0.6559
  115OSM    H6F12037   3.588   6.247   7.094 -0.5523  0.4854 -1.4264
  115OSM    H6G12038   3.558   6.071   7.077 -2.8908 -0.9952 -2.3196
  115OSM    C7F12039   3.424   6.165   7.218 -0.2039 -0.7242 -0.5574
  115OSM    H7F12040   3.469   6.084   7.280  0.4562 -0.5885 -0.8531
  115OSM    H7G12041   3.317   6.147   7.193 -0.3904  0.9877 -1.0597
  115OSM    C8F12042   3.438   6.296   7.297  0.4314 -0.3216 -0.1668
  115OSM    H8F12043   3.379   6.283   7.390  0.7198  0.4264  0.1360
  115OSM    H8G12044   3.397   6.369   7.225  1.1400 -2.2509 -2.6716
  115OSM    C9F12045   3.583   6.330   7.333  0.2416  0.1838  0.2282
  115OSM    H9F12046   3.645   6.372   7.253  0.2748 -0.7781 -0.2636
  115OSM   C10F12047   3.637   6.316   7.449  0.2958  0.3851 -0.5663
  115OSM   H10F12048   3.742   6.350   7.459  0.4611 -0.1417 -0.4769
  115OSM   C11F12049   3.569   6.252   7.572 -0.3556 -0.4312 -0.1121
  115OSM   H11F12050   3.537   6.149   7.546 -0.2675 -0.6248  0.5268
  115OSM   H11G12051   3.483   6.315   7.602  0.4047  1.8689 -2.4780
  115OSM   C12F12052   3.668   6.247   7.695 -0.3299 -0.5229 -0.4066
  115OSM   H12F12053   3.705   6.349   7.718  0.1105 -1.0971  1.6418
  115OSM   H12G12054   3.756   6.182   7.674  1.0655  1.5464 -1.2655
  115OSM   C13F12055   3.599   6.203   7.822 -0.7796  1.0911 -0.1514
  115OSM   H13F12056   3.523   6.126   7.797 -0.1662 -0.4154  2.3094
  115OSM   H13G12057   3.545   6.291   7.862 -0.1579  0.7977  1.3969
  115OSM   C14F12058   3.689   6.161   7.937 -0.0064 -0.1371 -0.0832
  115OSM   H14F12059   3.753   6.248   7.964  1.5011 -1.2067 -0.0804
  115OSM   H14G12060   3.769   6.088   7.910  1.9503  0.9722  2.3035
  115OSM   C15F12061   3.608   6.112   8.058  0.0164  0.0808  0.6883
  115OSM   H15F12062   3.659   6.030   8.113 -1.8331 -1.9336 -0.3782
  115OSM   H15G12063   3.514   6.067   8.017 -0.2863 -0.4013  1.8744
  115OSM   C16F12064   3.574   6.215   8.164  0.4382 -0.5771 -1.1615
  115OSM   H16F12065   3.494   6.278   8.120  0.2248  0.0500  0.0696
  115OSM   H16G12066   3.658   6.286   8.181  0.7502 -1.4900  1.5462
  115OSM   C17F12067   3.512   6.159   8.303 -0.1949 -0.1051 -0.3431
  115OSM   H17F12068   3.508   6.233   8.385  1.2100 -2.0052  1.5731
  115OSM   H17G12069   3.585   6.086   8.345  1.3649  1.0736 -0.9274
  115OSM   C18F12070   3.377   6.086   8.280  0.0050  0.1930 -0.8637
  115OSM   H18F12071   3.319   6.145   8.205  3.1205  1.9909 -2.0727
  115OSM   H18G12072   3.326   6.079   8.378 -1.2389  0.5520 -1.4509
  115OSM   H18H12073   3.405   5.987   8.240 -1.0900  0.8320 -3.4434
  116OSM      N12074   5.994   1.966   6.236 -0.0842  0.7168 -0.4693
  116OSM    C1512075   5.850   1.972   6.192  0.3376  0.2120 -0.3257
  116OSM   H15A12076   5.834   2.063   6.137 -1.7260 -0.2128 -0.5248
  116OSM   H15B12077   5.784   1.984   6.276  1.6172  2.2323  0.4343
  116OSM   H15C12078   5.831   1.890   6.124  1.6005 -1.4335  1.2201
  116OSM    C1412079   6.008   1.843   6.322  0.4058 -0.1960  0.2510
  116OSM   H14A12080   6.105   1.843   6.370  0.1482  0.8645  0.8012
  116OSM   H14B12081   5.995   1.752   6.265  0.6816 -0.8492  1.1985
  116OSM   H14C12082   5.938   1.855   6.403  0.9636 -1.2228  0.9169
  116OSM    C1312083   6.073   1.965   6.105 -0.1991  0.2091 -0.5766
  116OSM   H13A12084   6.058   2.053   6.045 -1.6689  0.3538 -0.0159
  116OSM   H13B12085   6.043   1.878   6.049 -0.9116 -1.1061  1.7009
  116OSM   H13C12086   6.180   1.947   6.116 -0.7286 -1.9129  2.5140
  116OSM    C1212087   6.034   2.091   6.320 -0.0272  0.2124  0.0596
  116OSM   H12A12088   6.124   2.062   6.372 -1.3015  0.2593  2.4297
  116OSM   H12B12089   5.966   2.103   6.403  0.7084  0.0224  0.6956
  116OSM    C1112090   6.042   2.234   6.261  0.6026  0.0346  0.8002
  116OSM   H11A12091   6.037   2.310   6.342 -0.8984 -0.9423  1.6683
  116OSM   H11B12092   5.946   2.259   6.212 -0.5714 -0.9764  2.4730
  116OSM      P12093   6.302   2.259   6.214  0.1571  0.1531 -0.1759
  116OSM    O1312094   6.380   2.177   6.119 -0.2856  0.3947  0.9182
  116OSM    O1412095   6.339   2.401   6.223  0.0301  0.0676  0.0965
  116OSM    O1112096   6.299   2.196   6.354 -0.3728  0.1691  0.0460
  116OSM    O1212097   6.147   2.255   6.170 -0.2629 -0.3468 -0.8269
  116OSM    C1S12098   6.371   2.238   6.468  0.8201 -0.5433 -0.0001
  116OSM    H1S12099   6.382   2.349   6.467 -2.0556 -0.0035  4.2328
  116OSM    H1T12100   6.476   2.205   6.450  1.2642 -0.4913  2.2925
  116OSM     NF12101   6.368   2.270   6.709 -0.1091  0.3608  0.3683
  116OSM    HNF12102   6.444   2.226   6.757 -0.0987 -0.4065 -0.3340
  116OSM    C2S12103   6.308   2.191   6.602  0.2500  0.1450 -0.3138
  116OSM    H2S12104   6.199   2.216   6.600  0.2245  0.8407  3.1899
  116OSM    C3S12105   6.328   2.035   6.615 -0.4481 -0.4983 -0.0408
  116OSM    H3S12106   6.438   2.019   6.623 -0.1244  0.9903 -1.0280
  116OSM     O312107   6.289   1.973   6.490 -0.3470 -0.6222  0.1152
  116OSM    HO312108   6.286   2.052   6.436  2.2547 -0.0024  0.7320
  116OSM    C4S12109   6.256   1.972   6.731 -0.4891  0.6088  0.0472
  116OSM    H4S12110   6.317   2.001   6.818 -0.4764  1.8124 -0.3458
  116OSM    C5S12111   6.155   1.888   6.744  0.0941  0.6051  0.2830
  116OSM    H5S12112   6.094   1.854   6.659  0.7638  0.9058 -0.3298
  116OSM    C6S12113   6.109   1.839   6.883 -0.8215 -0.4904  0.6168
  116OSM    H6S12114   6.139   1.732   6.886  1.9406  0.1604 -0.8475
  116OSM    H6T12115   6.001   1.856   6.903 -0.0185  2.9490  2.9895
  116OSM    C7S12116   6.185   1.909   6.996 -0.3034 -0.4141 -0.6376
  116OSM    H7S12117   6.161   2.017   6.987 -3.0570 -0.8652  0.3340
  116OSM    H7T12118   6.295   1.895   6.990  0.3183  3.1438  0.1102
  116OSM    C8S12119   6.139   1.858   7.131  0.9431  0.4234  0.8762
  116OSM    H8S12120   6.156   1.749   7.120 -0.0447  0.3427 -0.0250
  116OSM    H8T12121   6.032   1.883   7.151  1.0258  2.8359 -1.2721
  116OSM    C9S12122   6.214   1.920   7.247  0.4401 -0.4116 -0.5127
  116OSM    H9S12123   6.174   2.023   7.258  0.3834 -0.3509 -1.2372
  116OSM    H9T12124   6.322   1.924   7.221  0.0099 -0.0333 -2.3996
  116OSM   C10S12125   6.183   1.842   7.379 -0.2803  0.3360 -0.3248
  116OSM   H10S12126   6.217   1.736   7.378  1.8898  0.9668 -0.0216
  116OSM   H10T12127   6.073   1.845   7.393 -0.3969  0.2105 -1.2002
  116OSM   C11S12128   6.261   1.915   7.497  0.4900  0.3074  0.4543
  116OSM   H11S12129   6.226   2.020   7.496 -1.9398 -0.4413 -0.9887
  116OSM   H11T12130   6.370   1.905   7.478  0.2294 -0.2899 -0.8598
  116OSM   C12S12131   6.224   1.852   7.625  0.1230 -0.1871 -0.2365
  116OSM   H12S12132   6.267   1.750   7.621  0.7491  0.0746 -0.2078
  116OSM   H12T12133   6.113   1.853   7.640  0.1429 -1.1828  0.0692
  116OSM   C13S12134   6.284   1.923   7.753 -0.3721  0.8982 -0.0836
  116OSM   H13S12135   6.258   2.030   7.754  0.8492  1.2204 -0.4436
  116OSM   H13T12136   6.395   1.919   7.746 -0.4176  1.0328 -0.9373
  116OSM   C14S12137   6.236   1.856   7.876 -0.1113 -0.3725  0.8878
  116OSM   H14S12138   6.261   1.747   7.873  1.1823 -0.1056  1.3537
  116OSM   H14T12139   6.126   1.864   7.888 -0.0534  1.0906  0.5490
  116OSM   C15S12140   6.307   1.899   7.999  0.4982 -0.2332 -0.1357
  116OSM   H15S12141   6.260   1.997   8.022  1.0651 -0.4530  2.2335
  116OSM   H15T12142   6.415   1.913   7.978  0.1158  0.9406 -1.5154
  116OSM   C16S12143   6.288   1.797   8.112  0.6277  0.3604  0.1233
  116OSM   H16S12144   6.330   1.696   8.093  1.1294  0.7232 -0.7574
  116OSM   H16T12145   6.178   1.785   8.120  0.6939  0.5523  1.6158
  116OSM   C17S12146   6.335   1.849   8.249  0.5108  0.0483  0.8417
  116OSM   H17S12147   6.297   1.953   8.263 -3.1538 -1.3304  2.2173
  116OSM   H17T12148   6.445   1.836   8.256  0.4442 -0.8907  0.2871
  116OSM   C18S12149   6.266   1.778   8.364  1.0160  0.3223 -0.1860
  116OSM   H18S12150   6.330   1.786   8.455 -0.8443 -0.6656  1.2943
  116OSM   H18T12151   6.258   1.670   8.338  2.3329  0.2979 -0.5672
  116OSM   H18U12152   6.167   1.816   8.397  0.9009 -2.0339  2.6348
  116OSM    C1F12153   6.340   2.397   6.737 -0.0591  0.5891 -0.2074
  116OSM     OF12154   6.274   2.462   6.655 -0.1671  0.3722  0.0040
  116OSM    C2F12155   6.387   2.446   6.878  0.3103  0.1299 -0.8812
  116OSM    H2F12156   6.478   2.388   6.901 -1.2410 -1.7539  0.8547
  116OSM    H2G12157   6.305   2.413   6.945  2.4840 -1.6025  1.1260
  116OSM    C3F12158   6.414   2.593   6.893  0.2159  0.7220  0.0334
  116OSM    H3F12159   6.321   2.654   6.882  0.1124  0.6371  0.4318
  116OSM    H3G12160   6.492   2.626   6.821  1.5621 -0.3711  0.9441
  116OSM    C4F12161   6.473   2.625   7.030 -0.5011 -0.2367 -0.1951
  116OSM    H4F12162   6.506   2.731   7.039  0.1266 -0.5415  1.2452
  116OSM    H4G12163   6.556   2.554   7.047 -0.6035  0.1362  2.1623
  116OSM    C5F12164   6.378   2.618   7.155 -0.0122 -0.6518  0.2724
  116OSM    H5F12165   6.301   2.539   7.147 -2.2114  1.4244 -0.4183
  116OSM    H5G12166   6.316   2.711   7.146 -0.9739 -0.9591  2.7994
  116OSM    C6F12167   6.461   2.614   7.281 -0.0474  0.0721  0.5781
  116OSM    H6F12168   6.529   2.526   7.278  0.7039  0.6534  0.2285
  116OSM    H6G12169   6.390   2.604   7.366 -2.0751 -0.5277 -1.0873
  116OSM    C7F12170   6.552   2.736   7.294  0.1186 -0.5784  0.4799
  116OSM    H7F12171   6.499   2.832   7.308  0.9663  0.3018 -1.9065
  116OSM    H7G12172   6.612   2.755   7.202 -0.6941  0.5526  0.1563
  116OSM    C8F12173   6.664   2.716   7.399 -0.6281 -0.2994 -0.2473
  116OSM    H8F12174   6.730   2.803   7.379  0.6741 -1.1207  0.3550
  116OSM    H8G12175   6.730   2.629   7.379  0.6481  0.3031  1.1183
  116OSM    C9F12176   6.605   2.702   7.543  1.0183  0.1983 -0.0387
  116OSM    H9F12177   6.563   2.605   7.572  0.0405  0.8871  0.9627
  116OSM   C10F12178   6.616   2.796   7.640 -0.1313 -0.1674 -0.4920
  116OSM   H10F12179   6.554   2.796   7.731 -1.8505 -0.2835 -1.6267
  116OSM   C11F12180   6.685   2.931   7.625  0.4964  0.0244  0.0774
  116OSM   H11F12181   6.612   3.015   7.637 -1.8792 -1.9092  0.0184
  116OSM   H11G12182   6.735   2.946   7.527  0.1730  2.9089  0.2653
  116OSM   C12F12183   6.796   2.968   7.724  0.9471  0.4365  0.4859
  116OSM   H12F12184   6.822   3.075   7.710  0.1204  0.4102 -1.6504
  116OSM   H12G12185   6.880   2.895   7.715 -1.4562 -2.6220  1.3083
  116OSM   C13F12186   6.743   2.955   7.868  0.0357 -0.1192 -0.2359
  116OSM   H13F12187   6.708   2.853   7.893 -2.2486  0.8061  0.6067
  116OSM   H13G12188   6.656   3.024   7.875  0.3486  0.1607  1.0736
  116OSM   C14F12189   6.856   3.002   7.962 -0.8153 -0.8335 -0.3886
  116OSM   H14F12190   6.906   3.093   7.922 -0.7281  1.1564  3.6899
  116OSM   H14G12191   6.943   2.936   7.979 -0.3237  0.2024  1.3068
  116OSM   C15F12192   6.795   3.040   8.098  0.7120 -0.5963  0.6290
  116OSM   H15F12193   6.765   2.944   8.147  0.6772 -0.7194  0.3669
  116OSM   H15G12194   6.701   3.098   8.089  1.3403  0.3307 -0.1597
  116OSM   C16F12195   6.880   3.116   8.197  0.1096 -0.2116 -0.5972
  116OSM   H16F12196   6.933   3.200   8.147  1.2103 -0.4034  0.2032
  116OSM   H16G12197   6.950   3.043   8.243 -1.0901 -2.0401 -1.5351
  116OSM   C17F12198   6.801   3.187   8.307 -0.1001  0.2939  0.4039
  116OSM   H17F12199   6.716   3.119   8.329 -0.0809  0.1998  0.1871
  116OSM   H17G12200   6.752   3.281   8.276  0.9322  1.3728  1.9079
  116OSM   C18F12201   6.888   3.207   8.437  0.3205  0.1624 -0.1647
  116OSM   H18F12202   6.843   3.216   8.538  1.7952 -0.0214  0.5262
  116OSM   H18G12203   6.952   3.296   8.420 -1.8620  1.3474 -3.1161
  116OSM   H18H12204   6.959   3.122   8.448  1.7443  1.0521 -1.9890
  117OSM      N12205   6.386   3.626   5.758  0.5577 -0.8906 -0.5630
  117OSM    C1512206   6.444   3.767   5.762  0.3056 -0.1421  1.0030
  117OSM   H15A12207   6.498   3.785   5.854 -0.8806 -1.4951  2.0220
  117OSM   H15B12208   6.356   3.829   5.766  0.9053  0.6737  2.8033
  117OSM   H15C12209   6.500   3.787   5.672 -0.0625  4.4842  1.5384
  117OSM    C1412210   6.314   3.602   5.631  0.0018  0.6262 -0.3435
  117OSM   H14A12211   6.384   3.606   5.548 -0.8806  2.7251 -1.0582
  117OSM   H14B12212   6.242   3.682   5.618  0.2011  1.3503  2.3851
  117OSM   H14C12213   6.266   3.506   5.633 -0.7128  0.9609  2.7672
  117OSM    C1312214   6.494   3.528   5.760 -0.1913 -0.2291 -0.0751
  117OSM   H13A12215   6.466   3.436   5.710 -0.6510 -0.9792  1.4962
  117OSM   H13B12216   6.513   3.499   5.862 -0.0295 -0.0329 -0.0502
  117OSM   H13C12217   6.581   3.573   5.715  1.4218 -1.6784  1.4260
  117OSM    C1212218   6.292   3.613   5.886 -0.1371 -0.0167 -0.0001
  117OSM   H12A12219   6.261   3.510   5.882  0.7293 -0.2633 -2.1273
  117OSM   H12B12220   6.204   3.669   5.858 -0.8695 -1.9714 -1.8637
  117OSM    C1112221   6.346   3.653   6.021 -0.2107  0.7312 -0.8150
  117OSM   H11A12222   6.440   3.602   6.049 -2.2536 -2.5014  0.8920
  117OSM   H11B12223   6.271   3.615   6.094  0.3108 -0.9418 -1.0873
  117OSM      P12224   6.428   3.865   6.150 -0.4352 -0.0061  0.4674
  117OSM    O1312225   6.572   3.823   6.162 -0.3003  0.2736  0.8936
  117OSM    O1412226   6.396   4.013   6.144 -0.6165 -0.3838  0.2728
  117OSM    O1112227   6.359   3.808   6.276  0.6786  0.2072 -0.6519
  117OSM    O1212228   6.359   3.795   6.020 -0.5735 -0.7357  0.0263
  117OSM    C1S12229   6.363   3.876   6.404 -0.5237  0.7071  0.5912
  117OSM    H1S12230   6.308   3.973   6.405 -2.7477 -0.4580 -0.5042
  117OSM    H1T12231   6.468   3.897   6.433  0.2558 -3.1898  1.1686
  117OSM     NF12232   6.273   3.851   6.628 -0.0276 -0.0751 -0.0141
  117OSM    HNF12233   6.322   3.825   6.710  0.1841 -0.9578 -0.4060
  117OSM    C2S12234   6.297   3.776   6.501 -0.0321  0.3565  0.1985
  117OSM    H2S12235   6.199   3.738   6.466  0.5383 -0.3200 -0.6907
  117OSM    C3S12236   6.378   3.649   6.528 -0.7751  0.1852  0.2553
  117OSM    H3S12237   6.479   3.678   6.565 -1.6394  2.4527  1.0476
  117OSM     O312238   6.399   3.573   6.405 -0.0368  0.1460 -0.1166
  117OSM    HO312239   6.364   3.635   6.341 -0.0305 -0.1485 -0.4061
  117OSM    C4S12240   6.323   3.557   6.627 -0.2348  0.1250 -1.0264
  117OSM    H4S12241   6.377   3.547   6.722 -1.3785  3.9099  0.1689
  117OSM    C5S12242   6.202   3.506   6.622  0.7166  0.0408 -0.7077
  117OSM    H5S12243   6.133   3.539   6.543  0.1843 -0.0746 -0.2984
  117OSM    C6S12244   6.141   3.421   6.725  0.3169 -0.0166 -0.7240
  117OSM    H6S12245   6.147   3.313   6.701 -0.8204 -0.3833  0.5544
  117OSM    H6T12246   6.032   3.441   6.720 -0.1157 -0.6624  3.2230
  117OSM    C7S12247   6.187   3.460   6.868  0.0981  0.1658  0.3908
  117OSM    H7S12248   6.175   3.570   6.880 -1.0231  0.3501 -2.0004
  117OSM    H7T12249   6.295   3.434   6.874  0.3762  1.2624  0.3450
  117OSM    C8S12250   6.107   3.380   6.971  0.2927 -0.4473 -0.5537
  117OSM    H8S12251   6.124   3.276   6.937 -0.6581 -0.1051 -2.2404
  117OSM    H8T12252   5.997   3.389   6.956  0.3473  1.6861 -0.0222
  117OSM    C9S12253   6.139   3.425   7.118 -0.8923 -0.8928  0.1067
  117OSM    H9S12254   6.106   3.531   7.122  1.1696 -0.2018 -0.4341
  117OSM    H9T12255   6.250   3.424   7.120 -0.7531  0.4129 -2.3942
  117OSM   C10S12256   6.079   3.336   7.227 -0.4092  0.0822  0.1274
  117OSM   H10S12257   6.095   3.229   7.202  1.5921  0.4020 -0.2015
  117OSM   H10T12258   5.971   3.357   7.238 -0.0844  0.8667  2.3429
  117OSM   C11S12259   6.143   3.377   7.364  0.0816 -0.1102 -1.4353
  117OSM   H11S12260   6.126   3.484   7.386  0.7013  0.0347 -1.6469
  117OSM   H11T12261   6.253   3.362   7.371 -0.0267 -0.4812 -0.1719
  117OSM   C12S12262   6.081   3.303   7.483 -0.3837  0.4132  0.3569
  117OSM   H12S12263   6.065   3.199   7.448 -1.7400 -0.0672  2.2486
  117OSM   H12T12264   5.974   3.329   7.499 -0.9430 -1.5742  0.1396
  117OSM   C13S12265   6.161   3.316   7.612  0.3362  0.1931  0.3808
  117OSM   H13S12266   6.124   3.406   7.666  0.5541  0.5620 -0.0692
  117OSM   H13T12267   6.268   3.333   7.586  0.1773  0.4604 -0.1113
  117OSM   C14S12268   6.154   3.192   7.698 -0.1687  0.5126  0.2863
  117OSM   H14S12269   6.232   3.192   7.778 -0.9561  1.0664  1.0799
  117OSM   H14T12270   6.176   3.098   7.643 -0.7537 -1.2933  2.9037
  117OSM   C15S12271   6.017   3.185   7.763  0.4272  0.6731  0.3871
  117OSM   H15S12272   5.940   3.193   7.684  2.0787 -1.3183 -1.5594
  117OSM   H15T12273   6.007   3.274   7.829  0.4050  0.6730  0.3838
  117OSM   C16S12274   6.006   3.057   7.847 -0.3337 -0.3509  0.4268
  117OSM   H16S12275   6.078   3.070   7.931 -1.8119 -0.7943  1.8024
  117OSM   H16T12276   6.035   2.973   7.781 -1.4102  1.2525 -2.2543
  117OSM   C17S12277   5.871   3.041   7.917 -0.5057  0.6994  1.0052
  117OSM   H17S12278   5.795   3.050   7.836  0.7707 -1.1592 -0.4731
  117OSM   H17T12279   5.856   3.119   7.994  1.1101  2.0370  0.0291
  117OSM   C18S12280   5.848   2.913   8.002 -0.1824  0.2959 -0.0737
  117OSM   H18S12281   5.853   2.823   7.938 -2.7014  0.6546 -0.8784
  117OSM   H18T12282   5.744   2.909   8.040 -0.2711 -1.0600 -0.4283
  117OSM   H18U12283   5.934   2.893   8.070  0.6119  0.4634 -1.0041
  117OSM    C1F12284   6.209   3.965   6.632 -0.7106  0.0358 -0.3433
  117OSM     OF12285   6.139   4.002   6.539  0.7283 -0.0219 -0.2211
  117OSM    C2F12286   6.232   4.036   6.764 -0.1948 -0.4394 -0.6927
  117OSM    H2F12287   6.225   4.143   6.737 -3.2993 -0.6449 -1.0577
  117OSM    H2G12288   6.335   4.021   6.804 -0.5075  0.8038  0.6180
  117OSM    C3F12289   6.118   4.018   6.862  0.1685  0.0417 -0.2462
  117OSM    H3F12290   6.107   3.911   6.890 -1.0656 -0.9814 -4.0168
  117OSM    H3G12291   6.026   4.047   6.808  1.6573  3.0023 -1.4651
  117OSM    C4F12292   6.143   4.114   6.980 -0.0587 -0.7104  0.3104
  117OSM    H4F12293   6.164   4.208   6.926 -1.1545 -1.3689 -1.3453
  117OSM    H4G12294   6.234   4.080   7.034  0.6984 -0.6425 -0.8941
  117OSM    C5F12295   6.027   4.113   7.085 -0.1509  0.3286  0.8078
  117OSM    H5F12296   6.006   4.006   7.106  0.7402  0.4485  2.4002
  117OSM    H5G12297   5.936   4.166   7.048  0.4180  0.2294 -0.8497
  117OSM    C6F12298   6.074   4.179   7.213 -0.2359 -0.5226  0.1454
  117OSM    H6F12299   6.113   4.282   7.195  1.5043 -0.8916  1.5506
  117OSM    H6G12300   6.167   4.125   7.240  0.1384  0.3271  0.5834
  117OSM    C7F12301   5.980   4.165   7.336  0.1684 -0.9416  0.6118
  117OSM    H7F12302   5.941   4.061   7.349 -0.7246 -0.5972  0.7169
  117OSM    H7G12303   5.885   4.215   7.308 -0.2268 -1.5880  0.7516
  117OSM    C8F12304   6.039   4.212   7.464 -0.4574  0.1117  0.5445
  117OSM    H8F12305   5.967   4.247   7.541 -0.4884 -1.4956  1.3048
  117OSM    H8G12306   6.099   4.300   7.433  0.4903 -0.2442  1.3163
  117OSM    C9F12307   6.138   4.126   7.529 -0.0882  0.7164 -0.6647
  117OSM    H9F12308   6.238   4.108   7.485  0.6499  1.0154  0.8235
  117OSM   C10F12309   6.128   4.051   7.644  0.7272  0.3864  1.0308
  117OSM   H10F12310   6.217   3.998   7.680  1.3258  1.0390  0.5168
  117OSM   C11F12311   5.993   4.043   7.714 -0.2517  0.0701  0.7058
  117OSM   H11F12312   5.917   4.023   7.635  0.4085 -3.4774  0.7994
  117OSM   H11G12313   5.962   4.135   7.768 -0.8896 -0.9409  2.1430
  117OSM   C12F12314   6.011   3.934   7.826  0.5260 -0.7544  0.1630
  117OSM   H12F12315   6.063   3.844   7.786 -0.4459 -0.8011 -1.0333
  117OSM   H12G12316   5.905   3.907   7.844  0.3435  0.5623  1.1433
  117OSM   C13F12317   6.075   3.988   7.956 -0.7546 -0.5571  0.9761
  117OSM   H13F12318   6.009   4.056   8.013  0.3810 -0.5208  2.3025
  117OSM   H13G12319   6.161   4.053   7.930 -0.4378 -1.3951 -0.1339
  117OSM   C14F12320   6.134   3.866   8.042 -0.2944 -1.0292 -0.0093
  117OSM   H14F12321   6.215   3.823   7.978 -0.4707 -2.0599  0.4547
  117OSM   H14G12322   6.058   3.789   8.063 -0.7296 -0.3719  0.8954
  117OSM   C15F12323   6.176   3.917   8.179 -0.1416 -0.2489  0.6614
  117OSM   H15F12324   6.088   3.963   8.229  0.5010 -0.7859  2.3469
  117OSM   H15G12325   6.247   4.000   8.161  0.3833 -1.1070 -1.4795
  117OSM   C16F12326   6.220   3.815   8.277  0.1897  0.6591  0.0588
  117OSM   H16F12327   6.291   3.745   8.229 -0.9117  0.0279 -0.6990
  117OSM   H16G12328   6.130   3.757   8.305  0.9609 -1.1026 -0.9531
  117OSM   C17F12329   6.296   3.881   8.393 -0.0492  0.1783 -0.3031
  117OSM   H17F12330   6.346   3.804   8.455  0.5790  0.5003 -0.3932
  117OSM   H17G12331   6.381   3.948   8.365 -0.5129  1.7045  1.6824
  117OSM   C18F12332   6.206   3.971   8.480 -0.0335  0.3417 -0.4857
  117OSM   H18F12333   6.198   4.071   8.433  1.6344  0.1974 -1.1313
  117OSM   H18G12334   6.245   3.971   8.583 -1.5563  0.1010  0.1241
  117OSM   H18H12335   6.107   3.923   8.498 -0.0592  0.9308  1.0394
  118OSM      N12336   6.612   5.584   5.987  0.0227  0.6037 -0.4368
  118OSM    C1512337   6.600   5.433   5.974  0.2233  0.2961  0.0110
  118OSM   H15A12338   6.667   5.397   5.898 -0.0498  1.2994 -0.7252
  118OSM   H15B12339   6.503   5.398   5.943 -0.7556  2.0362  0.8833
  118OSM   H15C12340   6.622   5.370   6.060  0.7270 -0.7031 -0.8329
  118OSM    C1412341   6.584   5.657   5.853 -0.0145  0.2890 -0.1006
  118OSM   H14A12342   6.622   5.757   5.866  1.7368 -0.6720  3.6249
  118OSM   H14B12343   6.481   5.644   5.823  0.2802  0.9083 -1.4266
  118OSM   H14C12344   6.645   5.612   5.777  1.9722 -0.8871  2.0375
  118OSM    C1312345   6.505   5.626   6.083  0.5887 -0.0381 -0.4751
  118OSM   H13A12346   6.503   5.731   6.109  1.2052 -0.4435  1.4311
  118OSM   H13B12347   6.518   5.579   6.180 -1.4474  1.2242  0.4852
  118OSM   H13C12348   6.409   5.592   6.047  0.9912 -2.5256  0.5404
  118OSM    C1212349   6.751   5.626   6.035 -0.0216 -0.4711  0.4970
  118OSM   H12A12350   6.766   5.733   6.030  3.2241 -0.8323 -0.1309
  118OSM   H12B12351   6.828   5.592   5.967  0.4173  0.4459  0.5217
  118OSM    C1112352   6.794   5.585   6.184 -0.3772 -0.2603  0.3313
  118OSM   H11A12353   6.719   5.638   6.247 -0.0425 -0.4609  0.9037
  118OSM   H11B12354   6.896   5.623   6.207 -0.6407  0.5538  0.1721
  118OSM      P12355   6.894   5.329   6.199 -0.2563 -0.2489 -0.0607
  118OSM    O1312356   6.826   5.202   6.157 -0.2469 -0.5245 -0.2362
  118OSM    O1412357   6.999   5.376   6.107  0.5837 -0.0700  0.2093
  118OSM    O1112358   6.955   5.325   6.345 -0.1059  0.2250 -0.2161
  118OSM    O1212359   6.785   5.445   6.215 -0.2162 -0.2219 -0.0424
  118OSM    C1S12360   6.993   5.444   6.412 -0.6813  0.8144  0.3981
  118OSM    H1S12361   6.905   5.505   6.444 -0.9541  0.9130 -0.5228
  118OSM    H1T12362   7.058   5.509   6.351  0.0432  0.1981  0.4956
  118OSM     NF12363   7.123   5.550   6.595  0.4174 -0.5160 -0.9068
  118OSM    HNF12364   7.221   5.564   6.596  1.5280 -5.6777  1.9136
  118OSM    C2S12365   7.074   5.417   6.545  0.5745 -0.0056  0.5094
  118OSM    H2S12366   6.994   5.386   6.615 -0.6538  2.1905  0.1695
  118OSM    C3S12367   7.179   5.308   6.532 -0.8119  0.4318  0.1882
  118OSM    H3S12368   7.256   5.339   6.457 -1.7820 -0.4009 -1.2074
  118OSM     O312369   7.144   5.190   6.470  0.2928  0.0863 -0.0485
  118OSM    HO312370   7.073   5.229   6.420  0.0188 -0.4315 -0.0736
  118OSM    C4S12371   7.243   5.275   6.666  0.4704  0.0837 -0.0136
  118OSM    H4S12372   7.332   5.339   6.667  0.8075 -0.3843 -0.0449
  118OSM    C5S12373   7.207   5.184   6.758 -0.2580  0.5983  0.8216
  118OSM    H5S12374   7.126   5.116   6.729 -0.3673  0.9465  0.2917
  118OSM    C6S12375   7.288   5.146   6.879  0.3632  0.2709  0.2088
  118OSM    H6S12376   7.254   5.197   6.972 -1.8981 -1.3748  0.3664
  118OSM    H6T12377   7.396   5.163   6.859  0.3080 -0.7183 -1.0422
  118OSM    C7S12378   7.263   4.995   6.904 -0.3247  0.2070  0.0624
  118OSM    H7S12379   7.295   4.931   6.820  2.8703 -0.8870  1.9566
  118OSM    H7T12380   7.153   4.985   6.918 -0.3369 -0.3511 -0.4319
  118OSM    C8S12381   7.338   4.954   7.026 -0.3589  0.4726 -0.4530
  118OSM    H8S12382   7.445   4.982   7.018 -0.0802  0.4027  2.3149
  118OSM    H8T12383   7.322   4.845   7.035  0.0357  0.4374 -0.1753
  118OSM    C9S12384   7.290   5.022   7.164  0.4422 -0.2261 -0.0689
  118OSM    H9S12385   7.186   4.992   7.186  0.7217 -1.1885 -0.0118
  118OSM    H9T12386   7.291   5.133   7.169  2.8597 -0.2359  2.5887
  118OSM   C10S12387   7.381   4.984   7.284 -1.2333  0.3108 -0.6520
  118OSM   H10S12388   7.490   4.994   7.264 -0.7196 -0.9669  1.2069
  118OSM   H10T12389   7.371   4.874   7.296 -1.3215  0.2539 -1.2014
  118OSM   C11S12390   7.332   5.049   7.415  0.3704  0.2639 -0.3326
  118OSM   H11S12391   7.222   5.036   7.416  0.3878 -0.1640  1.7798
  118OSM   H11T12392   7.357   5.157   7.427 -1.4695  0.6300  0.6191
  118OSM   C12S12393   7.395   4.987   7.540 -0.3888 -0.2259 -0.1113
  118OSM   H12S12394   7.499   5.022   7.553 -0.8920  0.5204  2.4736
  118OSM   H12T12395   7.417   4.879   7.522  0.0389  0.2581 -2.8213
  118OSM   C13S12396   7.308   5.002   7.664 -0.0873  0.4047 -0.1213
  118OSM   H13S12397   7.366   4.979   7.755  1.2828 -1.5479 -1.3953
  118OSM   H13T12398   7.223   4.931   7.655  0.6792 -0.3824 -1.6789
  118OSM   C14S12399   7.267   5.145   7.690  0.4613 -0.0758 -0.6828
  118OSM   H14S12400   7.199   5.164   7.605  1.8791 -0.3764 -1.9201
  118OSM   H14T12401   7.351   5.218   7.685 -0.4617  0.9404 -2.6885
  118OSM   C15S12402   7.177   5.166   7.819 -0.2617 -0.1634 -0.0273
  118OSM   H15S12403   7.148   5.062   7.847  0.3526 -0.3681 -0.1369
  118OSM   H15T12404   7.091   5.234   7.803 -1.9234 -2.0704  0.3463
  118OSM   C16S12405   7.261   5.230   7.933  0.8664  0.1476 -0.9200
  118OSM   H16S12406   7.292   5.333   7.907 -0.7961  1.3421  1.3896
  118OSM   H16T12407   7.340   5.153   7.946 -0.4861 -0.9713  1.2999
  118OSM   C17S12408   7.189   5.245   8.069 -0.8983  0.2662  0.2385
  118OSM   H17S12409   7.154   5.146   8.106 -0.7883  0.5114  1.0000
  118OSM   H17T12410   7.097   5.303   8.044 -0.0728  1.5583  0.1468
  118OSM   C18S12411   7.278   5.304   8.183 -0.2389 -0.2626  0.2885
  118OSM   H18S12412   7.326   5.397   8.146  1.6752 -1.6572 -0.9206
  118OSM   H18T12413   7.352   5.225   8.211  2.4136  1.3115 -1.8157
  118OSM   H18U12414   7.213   5.329   8.269 -2.7477 -2.1587 -0.9238
  118OSM    C1F12415   7.054   5.650   6.646 -0.0988  0.1975  0.5353
  118OSM     OF12416   6.931   5.648   6.653  0.0969 -0.5936  0.4870
  118OSM    C2F12417   7.125   5.776   6.688 -0.2467 -0.5542 -0.4614
  118OSM    H2F12418   7.065   5.867   6.665  0.7776  0.5072  0.8641
  118OSM    H2G12419   7.227   5.783   6.642  0.5871  0.8009  1.4594
  118OSM    C3F12420   7.162   5.770   6.845  0.5327  0.2881 -0.7223
  118OSM    H3F12421   7.069   5.801   6.898  0.1700 -2.5022  0.4858
  118OSM    H3G12422   7.231   5.856   6.854 -0.8223  1.3745 -0.3375
  118OSM    C4F12423   7.227   5.640   6.892 -0.5082  0.0068 -0.0816
  118OSM    H4F12424   7.309   5.617   6.820  0.4336 -3.1631  1.7944
  118OSM    H4G12425   7.156   5.555   6.894  0.5055 -0.8541  1.8009
  118OSM    C5F12426   7.288   5.659   7.026 -0.3976 -0.1673 -0.0374
  118OSM    H5F12427   7.326   5.762   7.040 -0.8774  0.2030 -1.3037
  118OSM    H5G12428   7.381   5.600   7.041 -0.1634  0.1784 -0.1183
  118OSM    C6F12429   7.186   5.621   7.143 -0.0552  0.5469  0.7625
  118OSM    H6F12430   7.164   5.512   7.149  1.6664 -0.1141 -2.7142
  118OSM    H6G12431   7.099   5.680   7.105 -0.0348 -0.5127 -1.0372
  118OSM    C7F12432   7.237   5.671   7.277 -0.4362 -0.0013 -0.3961
  118OSM    H7F12433   7.158   5.650   7.352  0.6680 -1.0155  0.5375
  118OSM    H7G12434   7.247   5.781   7.286 -0.6254 -0.0801  1.1117
  118OSM    C8F12435   7.364   5.598   7.324 -0.1746  0.6795 -0.5667
  118OSM    H8F12436   7.435   5.591   7.239  2.1959 -0.1280  1.3483
  118OSM    H8G12437   7.332   5.495   7.351  0.0022  1.0476  1.1629
  118OSM    C9F12438   7.427   5.675   7.444 -0.2114  0.5860  0.6138
  118OSM    H9F12439   7.504   5.750   7.421  0.9843 -0.9181 -0.5118
  118OSM   C10F12440   7.393   5.645   7.573  0.1491 -0.0428  0.3305
  118OSM   H10F12441   7.441   5.713   7.645 -0.6219  0.3832  0.4450
  118OSM   C11F12442   7.299   5.536   7.623 -0.1421 -1.0842 -0.0193
  118OSM   H11F12443   7.352   5.455   7.678  1.6937  0.6709  0.9303
  118OSM   H11G12444   7.232   5.497   7.543 -0.6376  0.0241 -0.1716
  118OSM   C12F12445   7.198   5.610   7.720 -0.5548  0.4544 -0.3833
  118OSM   H12F12446   7.139   5.525   7.759  0.5422  0.2137  0.8407
  118OSM   H12G12447   7.133   5.681   7.664  0.0082  1.2059 -0.1037
  118OSM   C13F12448   7.263   5.677   7.842  0.0873  0.1522  0.0941
  118OSM   H13F12449   7.304   5.778   7.824  0.7021 -0.6557 -3.8618
  118OSM   H13G12450   7.343   5.620   7.893  1.9128  0.0532 -2.7032
  118OSM   C14F12451   7.154   5.697   7.944  0.0052 -0.7295 -0.2280
  118OSM   H14F12452   7.079   5.615   7.944 -1.0927  0.2414 -1.2134
  118OSM   H14G12453   7.098   5.787   7.911  1.1058 -0.2086 -0.7294
  118OSM   C15F12454   7.208   5.689   8.087  0.2164 -0.1245  0.3730
  118OSM   H15F12455   7.255   5.590   8.099  1.2438  0.2672 -0.3638
  118OSM   H15G12456   7.119   5.679   8.154  0.0397 -3.3521 -0.1799
  118OSM   C16F12457   7.299   5.803   8.120 -0.3467 -0.0064  0.7442
  118OSM   H16F12458   7.277   5.862   8.212  0.7211 -1.1369  1.7733
  118OSM   H16G12459   7.309   5.873   8.035  1.1263  1.6206  2.1630
  118OSM   C17F12460   7.453   5.747   8.139 -0.4819  0.6804 -0.7822
  118OSM   H17F12461   7.515   5.839   8.151  1.2170 -0.3505 -1.1731
  118OSM   H17G12462   7.488   5.684   8.054 -1.7717 -1.7794  0.3914
  118OSM   C18F12463   7.464   5.662   8.273 -0.0994 -0.1582 -0.6380
  118OSM   H18F12464   7.405   5.568   8.263  2.2694 -1.9308  1.0073
  118OSM   H18G12465   7.417   5.716   8.358  0.8408 -0.2152 -0.0746
  118OSM   H18H12466   7.569   5.628   8.280  0.8504  2.2471 -2.1424
  119OSM      N12467   3.554   5.566   5.761 -0.1223 -0.1768  0.2286
  119OSM    C1512468   3.445   5.537   5.659 -0.0564  0.1739  0.1107
  119OSM   H15A12469   3.449   5.611   5.580  1.3801  0.8004  0.7381
  119OSM   H15B12470   3.353   5.546   5.714  0.4560  2.0175  0.7399
  119OSM   H15C12471   3.465   5.444   5.607 -0.1753  0.0834  0.2248
  119OSM    C1412472   3.686   5.598   5.696 -0.1590  0.1251  0.4891
  119OSM   H14A12473   3.753   5.619   5.779 -1.4182  1.4594  1.2249
  119OSM   H14B12474   3.667   5.679   5.627 -1.6663 -0.4905  0.1528
  119OSM   H14C12475   3.741   5.516   5.652  0.3699  0.0605  1.2503
  119OSM    C1312476   3.512   5.689   5.841  0.0982  0.5169 -0.1234
  119OSM   H13A12477   3.574   5.701   5.928  1.1599  0.1773 -0.8207
  119OSM   H13B12478   3.409   5.676   5.874  1.1943 -2.3944  2.7063
  119OSM   H13C12479   3.508   5.781   5.785  0.9009  0.3491 -0.4646
  119OSM    C1212480   3.575   5.448   5.854  0.4213  0.1858  0.0009
  119OSM   H12A12481   3.612   5.370   5.788  0.6958  0.0187  0.3504
  119OSM   H12B12482   3.481   5.424   5.902  0.5675  1.0414  0.7345
  119OSM    C1112483   3.685   5.464   5.961  0.1918  0.2586  1.3238
  119OSM   H11A12484   3.668   5.397   6.048  1.9057  0.6846  2.0287
  119OSM   H11B12485   3.663   5.564   6.004 -0.6406  1.2393 -1.1731
  119OSM      P12486   3.884   5.336   5.855 -0.0282  0.2526  0.2752
  119OSM    O1312487   3.834   5.294   5.725  0.4311  0.0037 -0.0989
  119OSM    O1412488   4.033   5.335   5.869  0.4330  0.7306  0.2645
  119OSM    O1112489   3.829   5.242   5.962  0.5335  0.0993  0.3888
  119OSM    O1212490   3.821   5.471   5.907  0.2512  0.4657  0.0927
  119OSM    C1S12491   3.889   5.129   6.026 -0.3841  0.3100 -0.6264
  119OSM    H1S12492   3.991   5.152   6.062 -1.4743  1.2399  2.0692
  119OSM    H1T12493   3.898   5.039   5.961  1.2602 -0.4900  0.6275
  119OSM     NF12494   3.895   4.985   6.223 -0.0635 -0.1594  0.6984
  119OSM    HNF12495   3.845   4.901   6.242  1.4040 -0.9181  1.3641
  119OSM    C2S12496   3.822   5.088   6.155  0.0316 -0.0361 -0.2303
  119OSM    H2S12497   3.822   5.174   6.224 -2.1295  1.1295 -1.5660
  119OSM    C3S12498   3.678   5.035   6.133  0.4954 -0.6740 -0.3196
  119OSM    H3S12499   3.678   4.928   6.103  0.4454 -0.5158 -0.8777
  119OSM     O312500   3.611   5.104   6.024  0.7232 -0.3408 -0.4401
  119OSM    HO312501   3.671   5.178   6.012 -0.5811  0.9196  0.3560
  119OSM    C4S12502   3.603   5.036   6.262 -0.1168 -0.0007  0.0561
  119OSM    H4S12503   3.592   4.940   6.314 -0.5410 -0.0379 -0.1003
  119OSM    C5S12504   3.552   5.150   6.321  0.5373  0.5131  0.7542
  119OSM    H5S12505   3.565   5.245   6.267 -0.5096 -1.0181 -2.4500
  119OSM    C6S12506   3.489   5.140   6.454 -0.8065 -0.7609 -0.2638
  119OSM    H6S12507   3.440   5.043   6.477 -1.5353 -0.0876  1.2174
  119OSM    H6T12508   3.413   5.222   6.454  0.1399  0.1353 -0.0645
  119OSM    C7S12509   3.598   5.173   6.560 -0.1676 -0.5110 -0.7747
  119OSM    H7S12510   3.630   5.276   6.531  1.4896 -0.2132  1.7572
  119OSM    H7T12511   3.692   5.113   6.562 -1.0974 -2.0173  0.5790
  119OSM    C8S12512   3.540   5.184   6.704 -0.0689  0.4694  0.1549
  119OSM    H8S12513   3.437   5.225   6.701 -0.0125  0.5816 -0.3317
  119OSM    H8T12514   3.608   5.242   6.769  3.7845 -2.3847 -0.9494
  119OSM    C9S12515   3.539   5.041   6.771 -0.3240 -0.6000  0.7044
  119OSM    H9S12516   3.646   5.020   6.794 -0.3294 -0.3131  1.0002
  119OSM    H9T12517   3.510   4.963   6.697  3.0188 -2.0030  0.6890
  119OSM   C10S12518   3.458   5.022   6.903  0.3985  0.1420 -0.2100
  119OSM   H10S12519   3.500   4.929   6.947  0.5381  0.5971  0.6459
  119OSM   H10T12520   3.353   5.009   6.871  0.0956  0.8042  0.4772
  119OSM   C11S12521   3.474   5.136   6.997  0.1329 -0.4211 -1.0383
  119OSM   H11S12522   3.417   5.219   6.951  1.1802  0.4299 -0.8377
  119OSM   H11T12523   3.576   5.177   7.011 -0.8674  2.1136 -0.5971
  119OSM   C12S12524   3.410   5.112   7.141 -0.7397  0.8088 -1.2076
  119OSM   H12S12525   3.427   5.011   7.185 -0.7466  0.0650 -2.8298
  119OSM   H12T12526   3.300   5.112   7.130 -0.6850  2.0397 -2.0002
  119OSM   C13S12527   3.460   5.211   7.237  0.1524  0.5080 -0.1509
  119OSM   H13S12528   3.426   5.313   7.210 -0.9715  0.3193  0.4788
  119OSM   H13T12529   3.570   5.219   7.240  0.1426  0.4541  0.6622
  119OSM   C14S12530   3.402   5.175   7.371  0.5903  0.4189  0.0962
  119OSM   H14S12531   3.435   5.075   7.406 -2.2078 -0.2745  0.9578
  119OSM   H14T12532   3.292   5.170   7.361  0.7442 -0.1387 -1.7574
  119OSM   C15S12533   3.437   5.282   7.477  0.3017  0.8409 -0.2946
  119OSM   H15S12534   3.381   5.237   7.561  1.9923 -1.2611 -0.2115
  119OSM   H15T12535   3.403   5.387   7.460  1.9736  1.4388 -0.1548
  119OSM   C16S12536   3.586   5.283   7.510 -0.2371 -0.6068  0.0974
  119OSM   H16S12537   3.638   5.371   7.466 -0.1503 -0.9753 -0.5496
  119OSM   H16T12538   3.626   5.182   7.485 -2.2982 -1.3735 -0.2549
  119OSM   C17S12539   3.618   5.302   7.653  0.2025  0.0993  0.0625
  119OSM   H17S12540   3.558   5.226   7.707 -0.8740  1.8199  1.4000
  119OSM   H17T12541   3.582   5.400   7.692  4.5063  2.1642 -0.5595
  119OSM   C18S12542   3.762   5.296   7.695 -0.5601 -0.1892 -0.1075
  119OSM   H18S12543   3.811   5.202   7.660  1.2258  0.3797  0.7301
  119OSM   H18T12544   3.773   5.314   7.804 -2.5227 -0.9748  0.2698
  119OSM   H18U12545   3.828   5.380   7.665  0.3194 -0.8146  0.0115
  119OSM    C1F12546   4.017   4.991   6.266  0.5703  0.3760  0.9402
  119OSM     OF12547   4.065   5.104   6.288  0.6289  0.5299  0.2125
  119OSM    C2F12548   4.094   4.864   6.289  0.6167 -0.3741 -0.5322
  119OSM    H2F12549   4.185   4.866   6.224  0.6390 -0.3762 -0.5008
  119OSM    H2G12550   4.030   4.777   6.261 -0.2986 -0.1461  0.7602
  119OSM    C3F12551   4.131   4.842   6.436  0.7493 -0.2424  0.1264
  119OSM    H3F12552   4.196   4.925   6.472  2.2351 -1.8051  1.2382
  119OSM    H3G12553   4.195   4.752   6.451  1.1845  0.0726  0.1747
  119OSM    C4F12554   4.003   4.823   6.523 -0.3829 -0.6657 -0.6015
  119OSM    H4F12555   3.966   4.724   6.488 -0.4213 -0.4988 -1.0276
  119OSM    H4G12556   3.920   4.893   6.498  1.1980  0.8934 -1.6552
  119OSM    C5F12557   4.030   4.818   6.675 -0.5733  0.2257  0.0261
  119OSM    H5F12558   4.115   4.887   6.697 -0.2983  0.5856 -1.9761
  119OSM    H5G12559   4.053   4.715   6.709 -0.2785  0.0696 -0.6307
  119OSM    C6F12560   3.914   4.848   6.760  0.5255  0.0077 -0.1184
  119OSM    H6F12561   3.827   4.790   6.724  0.0658  0.5860  0.0534
  119OSM    H6G12562   3.877   4.952   6.753  1.5041  0.3301 -0.7058
  119OSM    C7F12563   3.935   4.820   6.910  0.3633 -0.1994 -0.5335
  119OSM    H7F12564   4.015   4.889   6.946 -1.3378  1.4613  0.2005
  119OSM    H7G12565   3.964   4.714   6.923 -0.8132 -0.4472  0.1687
  119OSM    C8F12566   3.802   4.826   6.984 -0.1687 -0.0474 -0.2103
  119OSM    H8F12567   3.720   4.771   6.932 -2.0624  2.5638 -0.2025
  119OSM    H8G12568   3.774   4.934   6.988 -0.0475  0.0246 -1.0303
  119OSM    C9F12569   3.825   4.779   7.128  0.8904  0.5573 -0.0874
  119OSM    H9F12570   3.907   4.824   7.188  0.3596 -0.9503  1.8822
  119OSM   C10F12571   3.751   4.694   7.198  0.6015 -0.3890 -0.2523
  119OSM   H10F12572   3.777   4.683   7.304 -2.4607 -0.8410  0.5352
  119OSM   C11F12573   3.624   4.615   7.151 -0.1395 -0.5765  0.2399
  119OSM   H11F12574   3.628   4.514   7.196  1.5084 -0.7892 -0.3186
  119OSM   H11G12575   3.612   4.580   7.047 -0.6958 -0.2213  0.1806
  119OSM   C12F12576   3.490   4.694   7.191  0.5374 -0.3271  0.1840
  119OSM   H12F12577   3.414   4.621   7.158  0.9799 -0.8373  0.2756
  119OSM   H12G12578   3.473   4.785   7.129  1.9768  0.9751  1.5945
  119OSM   C13F12579   3.470   4.724   7.337  0.2097 -0.0766 -0.2822
  119OSM   H13F12580   3.538   4.804   7.371 -0.9663  0.2059  1.5405
  119OSM   H13G12581   3.505   4.636   7.396 -1.1271 -0.1463  0.4504
  119OSM   C14F12582   3.328   4.766   7.380 -0.0954  0.3937 -0.0004
  119OSM   H14F12583   3.250   4.698   7.339 -0.7475  0.8864  0.3984
  119OSM   H14G12584   3.291   4.864   7.343  0.8321  1.9071  2.8045
  119OSM   C15F12585   3.310   4.761   7.528  0.1415 -0.0560 -0.2857
  119OSM   H15F12586   3.385   4.823   7.581 -1.8443  2.7917 -0.5715
  119OSM   H15G12587   3.326   4.657   7.563 -0.8491  0.1624  0.8998
  119OSM   C16F12588   3.174   4.806   7.583 -0.7517 -0.2301  0.4374
  119OSM   H16F12589   3.178   4.775   7.690 -1.3833  1.5672  1.0173
  119OSM   H16G12590   3.107   4.738   7.526 -0.2023  0.6926 -1.3610
  119OSM   C17F12591   3.148   4.956   7.572 -0.6336 -0.6561  0.3004
  119OSM   H17F12592   3.169   4.977   7.464  5.2110 -0.4010  1.1732
  119OSM   H17G12593   3.229   5.002   7.632 -1.1234  1.1074 -0.3469
  119OSM   C18F12594   3.015   4.994   7.607  0.6076 -0.0980  1.2386
  119OSM   H18F12595   3.002   5.028   7.711 -1.5179 -3.0274  2.0351
  119OSM   H18G12596   2.946   4.913   7.576 -0.1096  2.0280 -3.7548
  119OSM   H18H12597   2.976   5.078   7.545 -2.4324 -1.5416  1.0599
  120OSM      N12598   0.299   2.320   6.047  0.4377  0.0390 -0.4185
  120OSM    C1512599   0.193   2.420   6.084 -0.7821 -0.1524  0.2544
  120OSM   H15A12600   0.174   2.418   6.190  0.0938  1.4840  0.4678
  120OSM   H15B12601   0.103   2.396   6.029  0.6278 -2.9259 -1.0520
  120OSM   H15C12602   0.232   2.516   6.055  0.5065 -0.6862  0.1522
  120OSM    C1412603   0.339   2.345   5.899 -0.0680  0.1547  0.6722
  120OSM   H14A12604   0.394   2.259   5.863  1.2161  0.8719  0.8684
  120OSM   H14B12605   0.404   2.430   5.892  0.6891 -0.5615 -1.9903
  120OSM   H14C12606   0.247   2.361   5.845  1.7021  3.8524 -1.6374
  120OSM    C1312607   0.426   2.330   6.129 -0.3894 -0.5204 -0.1817
  120OSM   H13A12608   0.495   2.255   6.096 -0.6324 -1.6996  1.8319
  120OSM   H13B12609   0.400   2.319   6.233  0.2199 -0.3784 -0.0072
  120OSM   H13C12610   0.472   2.426   6.109 -0.8499 -0.5605 -1.5478
  120OSM    C1212611   0.241   2.181   6.066  0.0686  0.1207 -0.7986
  120OSM   H12A12612   0.303   2.102   6.026  1.4286  1.1277 -0.7478
  120OSM   H12B12613   0.146   2.180   6.013  0.1879  0.4342 -1.0186
  120OSM    C1112614   0.201   2.147   6.219 -0.2303 -0.3532  0.9677
  120OSM   H11A12615   0.302   2.139   6.265  0.9906 -0.2479 -1.5038
  120OSM   H11B12616   0.161   2.043   6.210 -0.3566 -0.1688 -1.2686
  120OSM      P12617  -0.041   2.221   6.266  0.2353 -0.4799 -0.0026
  120OSM    O1312618  -0.106   2.350   6.315 -0.1209  0.9775  0.1693
  120OSM    O1412619  -0.065   2.183   6.124 -0.7538 -0.0281 -1.0563
  120OSM    O1112620  -0.077   2.101   6.362  0.2978  0.2012  0.2749
  120OSM    O1212621   0.111   2.236   6.288 -0.4246  0.0495  0.2242
  120OSM    C1S12622   0.013   2.053   6.470  0.5267  0.2266 -1.0469
  120OSM    H1S12623   0.076   2.137   6.509  0.7925  0.0484 -1.0874
  120OSM    H1T12624   0.091   1.982   6.435 -0.4551 -1.2918 -0.2339
  120OSM     NF12625   0.012   1.975   6.699 -1.5396 -0.3712 -0.8595
  120OSM    HNF12626   0.039   1.885   6.733  0.5344 -0.5433 -2.6966
  120OSM    C2S12627  -0.063   1.979   6.578 -0.4689  0.3099  1.0636
  120OSM    H2S12628  -0.161   2.026   6.599 -1.1105  0.5423 -2.0133
  120OSM    C3S12629  -0.107   1.840   6.529  0.6141 -0.0926  0.5294
  120OSM    H3S12630  -0.016   1.784   6.500 -0.3324  0.2126 -3.8315
  120OSM     O312631  -0.180   1.854   6.410  0.0079 -0.1074 -0.0033
  120OSM    HO312632  -0.166   1.944   6.382 -5.0769  0.9110 -0.3483
  120OSM    C4S12633  -0.178   1.765   6.639  0.4180  0.2587 -0.0688
  120OSM    H4S12634  -0.104   1.716   6.704  1.3210  2.2062  0.4582
  120OSM    C5S12635  -0.303   1.760   6.677  0.7448  0.5046 -0.4393
  120OSM    H5S12636  -0.387   1.804   6.619 -1.6716 -2.7452  0.3136
  120OSM    C6S12637  -0.352   1.691   6.797 -0.0133  0.1415  0.6119
  120OSM    H6S12638  -0.298   1.595   6.810  0.1670  0.1973  0.3055
  120OSM    H6T12639  -0.457   1.660   6.783  0.4645 -0.7969 -1.3374
  120OSM    C7S12640  -0.312   1.759   6.927 -0.9416 -0.5793 -0.5398
  120OSM    H7S12641  -0.366   1.855   6.940 -0.5750 -0.4249 -0.1484
  120OSM    H7T12642  -0.203   1.776   6.931 -1.0591 -0.0673  1.2526
  120OSM    C8S12643  -0.328   1.673   7.057  0.2008 -0.1716  0.1003
  120OSM    H8S12644  -0.280   1.577   7.028  2.2142  0.6631  0.4870
  120OSM    H8T12645  -0.438   1.659   7.068  0.2032  0.1848  0.5930
  120OSM    C9S12646  -0.276   1.743   7.184 -0.2296  0.6688 -0.9771
  120OSM    H9S12647  -0.338   1.832   7.207 -0.2551  0.8159 -1.5882
  120OSM    H9T12648  -0.171   1.777   7.170  0.5385  0.5436  3.3100
  120OSM   C10S12649  -0.260   1.649   7.301  0.5933  1.0118  0.2843
  120OSM   H10S12650  -0.199   1.561   7.274  1.2247  1.1660  1.1762
  120OSM   H10T12651  -0.364   1.620   7.327 -0.2518  3.9445  0.5336
  120OSM   C11S12652  -0.201   1.729   7.418  0.1915 -0.4592  1.1277
  120OSM   H11S12653  -0.269   1.814   7.439 -0.3547 -0.8808  1.0980
  120OSM   H11T12654  -0.104   1.774   7.388 -0.0473  0.6717  1.9893
  120OSM   C12S12655  -0.183   1.653   7.551  0.2873  0.1148  0.1641
  120OSM   H12S12656  -0.128   1.559   7.529 -1.6813 -0.8973 -0.7441
  120OSM   H12T12657  -0.273   1.616   7.605 -0.5043  0.8076 -0.6520
  120OSM   C13S12658  -0.108   1.724   7.667  0.0935 -0.0557 -0.1026
  120OSM   H13S12659  -0.167   1.817   7.682 -0.5096 -0.3382 -0.6520
  120OSM   H13T12660  -0.012   1.759   7.622 -0.0907  1.1247  0.3996
  120OSM   C14S12661  -0.086   1.649   7.803 -0.0692  0.3788  0.2174
  120OSM   H14S12662  -0.025   1.557   7.791 -0.9583 -0.3992  1.4435
  120OSM   H14T12663  -0.185   1.633   7.851 -0.3117  1.2466  0.0261
  120OSM   C15S12664   0.000   1.734   7.904 -0.4220 -0.6531  0.2977
  120OSM   H15S12665  -0.038   1.839   7.905  0.8355 -0.1660 -0.2015
  120OSM   H15T12666   0.105   1.753   7.871 -0.7054 -0.7298 -0.6874
  120OSM   C16S12667  -0.019   1.675   8.044  0.1755 -0.1092  0.3751
  120OSM   H16S12668   0.052   1.590   8.055  1.1350  0.1879 -2.5936
  120OSM   H16T12669  -0.126   1.648   8.057 -0.6044  0.7921 -3.0638
  120OSM   C17S12670   0.002   1.781   8.153  0.6714  0.0727 -0.3075
  120OSM   H17S12671  -0.063   1.871   8.139 -1.2404 -1.1325  0.4037
  120OSM   H17T12672   0.105   1.821   8.154  1.1143 -1.0066 -1.1743
  120OSM   C18S12673  -0.034   1.725   8.292  0.0236  0.3000  0.1957
  120OSM   H18S12674   0.006   1.807   8.355  3.0189  0.0297 -1.1739
  120OSM   H18T12675   0.031   1.636   8.310  1.9259  0.9840 -2.5744
  120OSM   H18U12676  -0.143   1.726   8.316  0.3092  1.1616  1.5465
  120OSM    C1F12677   0.049   2.078   6.767 -0.1763  0.3331 -1.1172
  120OSM     OF12678   0.001   2.188   6.744 -0.5106 -0.1495 -0.2209
  120OSM    C2F12679   0.147   2.058   6.884  0.0908 -1.0525  0.0323
  120OSM    H2F12680   0.206   1.967   6.858 -0.0686 -0.8784 -0.9797
  120OSM    H2G12681   0.077   2.043   6.969 -2.1900 -1.0398 -1.7396
  120OSM    C3F12682   0.250   2.177   6.914  0.4106  0.2554 -0.5042
  120OSM    H3F12683   0.200   2.268   6.954 -0.9456 -1.0531  0.9162
  120OSM    H3G12684   0.297   2.205   6.817  1.1709 -1.0826 -0.5451
  120OSM    C4F12685   0.347   2.141   7.028  0.1508 -0.1672 -0.1013
  120OSM    H4F12686   0.416   2.228   7.023 -1.9227  1.5028 -0.8536
  120OSM    H4G12687   0.413   2.054   7.010 -0.1758 -0.6490  0.9169
  120OSM    C5F12688   0.264   2.119   7.156 -0.5399 -0.1901 -0.5231
  120OSM    H5F12689   0.187   2.041   7.134 -2.2852  1.7626 -1.7357
  120OSM    H5G12690   0.212   2.215   7.175  0.2490  0.4095 -1.3555
  120OSM    C6F12691   0.343   2.098   7.285 -0.0519 -0.2277  0.2975
  120OSM    H6F12692   0.423   2.175   7.280 -0.3028 -0.0104 -0.6736
  120OSM    H6G12693   0.405   2.006   7.293  0.2904 -0.0373 -0.1128
  120OSM    C7F12694   0.265   2.132   7.407 -0.0115 -0.5439 -0.8300
  120OSM    H7F12695   0.183   2.063   7.434 -1.5765  2.1591  1.9320
  120OSM    H7G12696   0.207   2.227   7.398 -0.0971 -0.5848 -0.7075
  120OSM    C8F12697   0.360   2.136   7.528  0.0303 -0.2536  1.0164
  120OSM    H8F12698   0.450   2.200   7.511  1.3905 -1.9040  1.6936
  120OSM    H8G12699   0.407   2.036   7.532  1.0780  0.0587 -1.5067
  120OSM    C9F12700   0.278   2.187   7.642 -0.2627  0.3179 -0.7041
  120OSM    H9F12701   0.251   2.293   7.627 -0.7021  0.8319  2.9314
  120OSM   C10F12702   0.268   2.134   7.765  0.3108  0.3178  0.5935
  120OSM   H10F12703   0.203   2.177   7.843  0.6858  0.6327  0.7347
  120OSM   C11F12704   0.328   1.999   7.810 -0.4941  0.0623  0.2743
  120OSM   H11F12705   0.359   1.938   7.722 -0.4718  0.4495  0.0140
  120OSM   H11G12706   0.242   1.938   7.845 -0.6038 -0.4738 -0.8731
  120OSM   C12F12707   0.426   1.997   7.929  0.0176 -0.0950 -0.2203
  120OSM   H12F12708   0.393   2.067   8.008 -0.6781 -0.4481 -0.1953
  120OSM   H12G12709   0.532   2.029   7.917  0.3518 -0.5907  1.1897
  120OSM   C13F12710   0.437   1.854   7.994  0.4502 -0.2587  0.3794
  120OSM   H13F12711   0.485   1.784   7.922  1.3147 -2.1870  2.6844
  120OSM   H13G12712   0.337   1.808   8.004  0.5597 -1.0680 -1.7735
  120OSM   C14F12713   0.511   1.854   8.126 -0.7324 -0.2842 -0.2658
  120OSM   H14F12714   0.609   1.904   8.111 -1.0872  0.8408  1.0316
  120OSM   H14G12715   0.533   1.747   8.148  0.4126  0.4692  2.7601
  120OSM   C15F12716   0.448   1.928   8.248 -0.3895  1.3429  1.0159
  120OSM   H15F12717   0.358   1.872   8.281  2.2159 -1.5159  3.9293
  120OSM   H15G12718   0.424   2.030   8.212  2.7734  2.0716  0.7081
  120OSM   C16F12719   0.528   1.938   8.377 -0.5591  0.3096  0.4156
  120OSM   H16F12720   0.614   2.003   8.347 -0.4258  0.3933  0.9597
  120OSM   H16G12721   0.563   1.837   8.407  1.3034  0.3127 -1.4996
  120OSM   C17F12722   0.451   2.013   8.484 -0.1096  0.3662  0.3101
  120OSM   H17F12723   0.515   2.018   8.574  2.8168  1.5912 -1.6656
  120OSM   H17G12724   0.356   1.964   8.515  0.5877 -0.1626  1.6677
  120OSM   C18F12725   0.406   2.158   8.453 -0.3833  0.3506  0.6855
  120OSM   H18F12726   0.386   2.205   8.551  1.4564  0.6008  0.9754
  120OSM   H18G12727   0.329   2.156   8.374 -0.4885 -1.0594  0.8062
  120OSM   H18H12728   0.493   2.212   8.408 -0.2757  1.2516  1.9123
  121OSM      N12729   3.404   4.794   5.847 -0.2859  0.4255  0.4138
  121OSM    C1512730   3.414   4.854   5.715 -0.2922  0.5768  0.1706
  121OSM   H15A12731   3.327   4.913   5.690 -0.0293  1.2749  0.8252
  121OSM   H15B12732   3.440   4.787   5.635 -0.7483  0.4887  0.0941
  121OSM   H15C12733   3.499   4.922   5.711 -0.4154  0.7239  0.0532
  121OSM    C1412734   3.328   4.669   5.841  0.8102 -0.4474 -0.5402
  121OSM   H14A12735   3.384   4.589   5.794 -0.4559 -1.9475  0.4070
  121OSM   H14B12736   3.229   4.676   5.800  0.0347 -2.6530  0.7558
  121OSM   H14C12737   3.302   4.631   5.939 -1.1137 -0.5551 -1.0551
  121OSM    C1312738   3.545   4.757   5.881 -0.1708 -0.1926  0.1393
  121OSM   H13A12739   3.556   4.691   5.965 -0.6449 -0.3791  0.0550
  121OSM   H13B12740   3.613   4.841   5.886  1.5130 -1.3824 -1.4900
  121OSM   H13C12741   3.576   4.702   5.793  0.5305 -0.1282  0.3404
  121OSM    C1212742   3.354   4.896   5.943 -0.0161  0.4048  0.6742
  121OSM   H12A12743   3.253   4.927   5.919  0.9541  1.8495 -1.8647
  121OSM   H12B12744   3.418   4.983   5.938  0.5141 -0.0332 -0.3239
  121OSM    C1112745   3.327   4.860   6.093 -1.0391 -1.1590  0.8962
  121OSM   H11A12746   3.276   4.944   6.145  0.1588 -0.1356  0.4511
  121OSM   H11B12747   3.431   4.853   6.131 -1.1460  3.6002  2.6288
  121OSM      P12748   3.129   4.719   6.169 -0.3150 -0.1085 -0.0553
  121OSM    O1312749   3.046   4.806   6.080  0.5705 -0.9598  0.6544
  121OSM    O1412750   3.095   4.578   6.176  0.1351 -0.8909  0.3769
  121OSM    O1112751   3.138   4.784   6.307 -0.1969 -0.2055  0.1061
  121OSM    O1212752   3.270   4.732   6.111  0.1470  0.2769  0.1442
  121OSM    C1S12753   3.045   4.759   6.408  0.2319  0.0672  0.1553
  121OSM    H1S12754   3.056   4.651   6.432  1.2085  0.4275  1.4642
  121OSM    H1T12755   2.944   4.778   6.366  0.2470 -0.8202 -0.3197
  121OSM     NF12756   2.939   4.811   6.619  0.7368 -0.9835 -0.4118
  121OSM    HNF12757   2.867   4.879   6.627  1.8481  0.0939  0.8550
  121OSM    C2S12758   3.058   4.840   6.541 -0.1965 -0.4977 -0.2254
  121OSM    H2S12759   3.153   4.804   6.584  1.5072  1.6045 -2.0227
  121OSM    C3S12760   3.066   4.992   6.512  0.4862  0.6535 -0.2481
  121OSM    H3S12761   2.981   5.022   6.447  1.2289  1.9806 -0.6511
  121OSM     O312762   3.181   5.014   6.440 -0.1515  0.1044  0.6746
  121OSM    HO312763   3.193   4.930   6.394 -1.6954  2.1246 -4.1404
  121OSM    C4S12764   3.071   5.081   6.643 -0.4903  1.1641 -0.0314
  121OSM    H4S12765   3.131   5.035   6.723 -0.7236 -0.4436 -0.7349
  121OSM    C5S12766   3.006   5.198   6.655  0.6920  0.7817  0.8889
  121OSM    H5S12767   2.927   5.219   6.582  0.0483 -0.7356  1.0995
  121OSM    C6S12768   3.000   5.279   6.779 -0.2939 -0.0885 -0.5024
  121OSM    H6S12769   2.920   5.355   6.765 -2.8211 -2.3754  0.6487
  121OSM    H6T12770   3.088   5.343   6.800 -0.1192 -0.1654 -0.9848
  121OSM    C7S12771   2.965   5.209   6.909  0.9376 -0.1083  0.0662
  121OSM    H7S12772   3.046   5.138   6.935  0.2474  0.0771  3.1317
  121OSM    H7T12773   2.871   5.149   6.899  0.1226  0.9093  1.3096
  121OSM    C8S12774   2.931   5.304   7.023 -0.5531 -0.8573 -0.4619
  121OSM    H8S12775   2.867   5.244   7.091 -2.6535 -1.3827 -2.7700
  121OSM    H8T12776   2.870   5.390   6.988 -1.5889 -1.1009  0.6929
  121OSM    C9S12777   3.059   5.340   7.097 -0.3109  0.9177 -0.3009
  121OSM    H9S12778   3.122   5.382   7.015 -1.6941 -1.0046 -2.4828
  121OSM    H9T12779   3.115   5.251   7.133  0.5032  0.2322 -3.0027
  121OSM   C10S12780   3.036   5.444   7.208 -0.2264  0.2946  0.2391
  121OSM   H10S12781   2.943   5.490   7.169 -0.5493 -1.4519 -1.2300
  121OSM   H10T12782   3.126   5.508   7.193 -0.2314  0.4839  1.0187
  121OSM   C11S12783   3.011   5.397   7.351 -0.2186  0.1133  0.5358
  121OSM   H11S12784   3.087   5.319   7.374 -1.9090 -1.1483  2.1571
  121OSM   H11T12785   2.920   5.334   7.360  1.2179 -2.3710 -1.1424
  121OSM   C12S12786   3.013   5.517   7.454 -0.1703 -0.4872 -0.0127
  121OSM   H12S12787   2.922   5.579   7.441 -1.0713 -1.5545  0.9885
  121OSM   H12T12788   3.094   5.587   7.423 -0.2770  0.5655  1.9159
  121OSM   C13S12789   3.021   5.488   7.598 -0.6326 -0.3098  0.4381
  121OSM   H13S12790   2.928   5.433   7.623 -1.8593  0.7745 -1.4725
  121OSM   H13T12791   3.025   5.586   7.651 -3.4775  1.9310 -3.0541
  121OSM   C14S12792   3.146   5.406   7.653  0.2207  0.6531  0.7850
  121OSM   H14S12793   3.241   5.450   7.616 -0.5938  2.2568  0.5198
  121OSM   H14T12794   3.135   5.307   7.603  1.1049 -0.4638  2.6849
  121OSM   C15S12795   3.143   5.387   7.808  0.5930 -0.1333 -0.1207
  121OSM   H15S12796   3.044   5.341   7.829  1.5478 -1.5785  1.4340
  121OSM   H15T12797   3.147   5.486   7.858  0.3612  0.1238 -0.5972
  121OSM   C16S12798   3.267   5.321   7.872  0.2358  0.3015 -0.2958
  121OSM   H16S12799   3.354   5.389   7.858  1.6800 -0.1936  4.3886
  121OSM   H16T12800   3.286   5.225   7.818  0.3446  1.2737 -2.0333
  121OSM   C17S12801   3.243   5.280   8.019 -0.3938  0.0673 -0.0701
  121OSM   H17S12802   3.181   5.188   8.012 -1.7848  1.0129 -0.6870
  121OSM   H17T12803   3.205   5.366   8.078  3.8579  1.4625  0.9980
  121OSM   C18S12804   3.372   5.232   8.092  0.7987  0.2459  0.2815
  121OSM   H18S12805   3.443   5.317   8.096 -0.3555  1.3250 -1.0497
  121OSM   H18T12806   3.422   5.156   8.028 -1.4610  0.5021 -1.9338
  121OSM   H18U12807   3.333   5.203   8.192  0.7563 -0.2435  0.1263
  121OSM    C1F12808   2.911   4.693   6.678  0.3735  0.5810  0.2262
  121OSM     OF12809   2.991   4.603   6.674  0.1516 -0.4516 -0.6084
  121OSM    C2F12810   2.770   4.672   6.724  0.2776 -0.8391 -0.2972
  121OSM    H2F12811   2.712   4.619   6.644 -0.8683  0.7177 -0.5495
  121OSM    H2G12812   2.712   4.766   6.736  0.5196 -0.5116 -1.5767
  121OSM    C3F12813   2.766   4.604   6.867 -0.5714 -0.0089  0.3010
  121OSM    H3F12814   2.828   4.663   6.939 -2.4570  1.0620  1.1219
  121OSM    H3G12815   2.813   4.503   6.870 -0.5432 -0.0535 -1.0928
  121OSM    C4F12816   2.624   4.591   6.921 -0.4462 -0.0625 -0.0221
  121OSM    H4F12817   2.562   4.528   6.854  0.9353 -1.8687  0.2931
  121OSM    H4G12818   2.581   4.693   6.922  0.7567  0.4758 -0.7301
  121OSM    C5F12819   2.608   4.534   7.056 -0.7056 -0.3139 -0.4017
  121OSM    H5F12820   2.706   4.548   7.107 -1.1699  0.8242  0.2215
  121OSM    H5G12821   2.600   4.423   7.061  1.4358 -0.5764 -1.4168
  121OSM    C6F12822   2.494   4.593   7.145  0.9143  0.4497  0.5532
  121OSM    H6F12823   2.398   4.592   7.090  1.5155  3.8792 -0.8345
  121OSM    H6G12824   2.512   4.700   7.170 -1.4311  1.1045 -0.2850
  121OSM    C7F12825   2.473   4.512   7.273  0.5279  0.2685 -0.2631
  121OSM    H7F12826   2.479   4.402   7.256 -2.0194  0.3839 -2.5532
  121OSM    H7G12827   2.368   4.525   7.305  0.1432  2.4133 -2.1835
  121OSM    C8F12828   2.590   4.537   7.375 -0.0248  0.3979 -0.1597
  121OSM    H8F12829   2.608   4.645   7.358 -0.6679  0.2672 -1.9623
  121OSM    H8G12830   2.677   4.476   7.341 -2.1233 -2.5030 -0.7798
  121OSM    C9F12831   2.548   4.494   7.513 -0.2434  0.3058 -0.6519
  121OSM    H9F12832   2.537   4.386   7.526 -2.7807  0.6251  0.5487
  121OSM   C10F12833   2.524   4.568   7.625  0.0874 -0.6525 -0.1469
  121OSM   H10F12834   2.502   4.508   7.715 -0.1587 -0.7931 -0.3010
  121OSM   C11F12835   2.530   4.720   7.641 -0.3483  0.0523 -0.5481
  121OSM   H11F12836   2.569   4.768   7.549  0.4902 -1.5380 -1.0582
  121OSM   H11G12837   2.599   4.747   7.724 -0.4775  0.4672 -0.5725
  121OSM   C12F12838   2.401   4.792   7.678  0.1917 -0.0692  0.0675
  121OSM   H12F12839   2.318   4.784   7.604 -1.0756 -1.3870  1.5745
  121OSM   H12G12840   2.440   4.894   7.697 -0.1449  0.1495 -0.4104
  121OSM   C13F12841   2.340   4.748   7.819 -0.9493 -0.3905  0.0029
  121OSM   H13F12842   2.417   4.780   7.893  0.0115  1.5765 -1.7393
  121OSM   H13G12843   2.324   4.639   7.831  0.6245 -0.7770 -1.0852
  121OSM   C14F12844   2.212   4.827   7.862  0.4661 -0.4139  0.1022
  121OSM   H14F12845   2.146   4.763   7.924 -0.9986  0.5427 -0.4384
  121OSM   H14G12846   2.154   4.853   7.771  0.3262  2.9479  1.0211
  121OSM   C15F12847   2.234   4.960   7.940  0.5096  0.1157  0.0897
  121OSM   H15F12848   2.149   5.028   7.915  0.9077  0.4827 -0.2908
  121OSM   H15G12849   2.322   5.010   7.895  0.4832  0.2676  0.2068
  121OSM   C16F12850   2.265   4.928   8.087 -0.1743 -0.5281  0.2542
  121OSM   H16F12851   2.317   4.830   8.088 -1.5130 -1.2549 -0.2612
  121OSM   H16G12852   2.178   4.921   8.155 -0.7051 -0.3290 -0.3982
  121OSM   C17F12853   2.358   5.039   8.138  0.3275 -0.4148 -0.3971
  121OSM   H17F12854   2.302   5.135   8.146  0.4103 -0.3165 -0.9572
  121OSM   H17G12855   2.445   5.051   8.070 -0.0548 -0.8124 -0.9634
  121OSM   C18F12856   2.418   5.008   8.271  0.0179  0.9725  0.0751
  121OSM   H18F12857   2.359   4.958   8.351 -0.9418 -0.0651 -1.2365
  121OSM   H18G12858   2.474   5.092   8.317  1.3372 -1.1690  2.6832
  121OSM   H18H12859   2.494   4.930   8.252  1.7318  2.2050  1.5571
  122OSM      N12860   1.226   5.612   6.162 -0.2331 -0.2559 -0.2145
  122OSM    C1512861   1.172   5.757   6.159  0.3020  0.5308 -0.6651
  122OSM   H15A12862   1.142   5.802   6.253  1.7779  1.6580 -0.7082
  122OSM   H15B12863   1.100   5.772   6.081 -0.8720 -3.1770 -0.5056
  122OSM   H15C12864   1.257   5.820   6.138  0.4960  1.5058  2.5114
  122OSM    C1412865   1.335   5.605   6.257  0.3626  0.3308 -0.3311
  122OSM   H14A12866   1.401   5.689   6.245 -0.5146  1.2253  0.8737
  122OSM   H14B12867   1.394   5.517   6.235  2.1646  0.7043  2.4433
  122OSM   H14C12868   1.307   5.607   6.361  0.8094  0.4854 -0.2111
  122OSM    C1312869   1.109   5.530   6.211 -0.2792  0.2494 -0.1317
  122OSM   H13A12870   1.119   5.426   6.186  1.2705  0.1332  0.8565
  122OSM   H13B12871   1.014   5.559   6.169  0.4890 -0.7046 -2.7120
  122OSM   H13C12872   1.103   5.532   6.318 -0.7545  0.3373 -0.1603
  122OSM    C1212873   1.279   5.563   6.025  0.2824 -0.1914  0.1011
  122OSM   H12A12874   1.357   5.628   5.988  0.9463 -0.6770  0.6161
  122OSM   H12B12875   1.198   5.557   5.954  1.7221 -0.7033 -1.5686
  122OSM    C1112876   1.331   5.420   6.009  0.1319  0.3894 -0.5197
  122OSM   H11A12877   1.318   5.376   5.907 -2.5021 -0.6297  0.1692
  122OSM   H11B12878   1.272   5.350   6.072  3.8362 -1.9801  0.6306
  122OSM      P12879   1.584   5.364   5.959  0.3499  0.3266  0.1912
  122OSM    O1312880   1.537   5.233   5.907  0.1234 -0.1472 -0.5731
  122OSM    O1412881   1.623   5.459   5.859  0.2436 -0.4050 -0.1574
  122OSM    O1112882   1.696   5.335   6.053 -0.2541  0.3229  0.7025
  122OSM    O1212883   1.469   5.421   6.056 -0.0302 -0.8878  0.2791
  122OSM    C1S12884   1.678   5.265   6.176  0.0146 -0.1472  0.4346
  122OSM    H1S12885   1.697   5.157   6.159 -0.1178 -0.1045  0.0115
  122OSM    H1T12886   1.574   5.270   6.213  0.5331 -2.3074  2.4221
  122OSM     NF12887   1.741   5.210   6.402  0.4399  0.4839  0.9650
  122OSM    HNF12888   1.663   5.225   6.463 -2.0536  1.4953 -2.1965
  122OSM    C2S12889   1.776   5.306   6.299  0.6003  0.6976  0.3580
  122OSM    H2S12890   1.884   5.298   6.270  0.2373 -0.2547 -0.8436
  122OSM    C3S12891   1.744   5.452   6.342 -0.0040 -0.3251  0.3171
  122OSM    H3S12892   1.634   5.467   6.338  0.0606  0.3536  0.8930
  122OSM     O312893   1.789   5.551   6.250 -0.2806 -0.5907 -0.1711
  122OSM    HO312894   1.813   5.512   6.166  0.8069  0.4786 -0.3857
  122OSM    C4S12895   1.797   5.488   6.480  0.7619 -0.6358  0.1104
  122OSM    H4S12896   1.898   5.451   6.503  1.0701  0.3484  0.3802
  122OSM    C5S12897   1.722   5.539   6.583  0.0552 -0.0712 -0.2526
  122OSM    H5S12898   1.616   5.567   6.573  0.4799  2.0346  0.5758
  122OSM    C6S12899   1.777   5.576   6.720 -0.5005  0.4028  0.4081
  122OSM    H6S12900   1.818   5.679   6.713  1.5065 -0.4759 -2.5604
  122OSM    H6T12901   1.862   5.508   6.742 -0.9350 -0.0679  0.6412
  122OSM    C7S12902   1.675   5.571   6.831 -0.5778 -0.7579 -0.1165
  122OSM    H7S12903   1.652   5.467   6.861 -1.1361 -1.4949 -2.8322
  122OSM    H7T12904   1.584   5.629   6.804  0.4971  0.3766 -1.4452
  122OSM    C8S12905   1.728   5.643   6.956 -0.2346 -0.2699  0.0109
  122OSM    H8S12906   1.732   5.750   6.926  2.5590  0.6289  2.9949
  122OSM    H8T12907   1.833   5.613   6.978  0.9978  0.8710 -3.5991
  122OSM    C9S12908   1.642   5.616   7.077  0.0222  0.2917 -0.1977
  122OSM    H9S12909   1.646   5.510   7.110  0.1881 -0.7174 -3.1470
  122OSM    H9T12910   1.534   5.638   7.071 -0.5987 -2.5497 -0.7175
  122OSM   C10S12911   1.697   5.707   7.190  0.1227  0.3072  0.3340
  122OSM   H10S12912   1.691   5.817   7.179  3.0166  0.5330  0.3457
  122OSM   H10T12913   1.806   5.689   7.190  0.1312  0.3344  0.9295
  122OSM   C11S12914   1.649   5.660   7.321 -0.1060 -0.0199 -0.4951
  122OSM   H11S12915   1.664   5.550   7.325 -0.7579 -0.0827  0.5482
  122OSM   H11T12916   1.540   5.681   7.320 -0.3631 -1.2975 -1.7467
  122OSM   C12S12917   1.728   5.712   7.443 -0.3578  0.1564  0.1103
  122OSM   H12S12918   1.718   5.823   7.444 -0.2731  0.1989 -1.5444
  122OSM   H12T12919   1.834   5.685   7.424 -0.8278  0.4857 -3.7973
  122OSM   C13S12920   1.699   5.676   7.588 -0.6737 -0.0638 -0.3080
  122OSM   H13S12921   1.696   5.567   7.610 -1.4274  0.4145  2.4404
  122OSM   H13T12922   1.599   5.712   7.621 -1.5515 -2.0889 -0.5953
  122OSM   C14S12923   1.808   5.731   7.692 -0.3585  0.4774 -0.4991
  122OSM   H14S12924   1.911   5.695   7.671 -0.7379 -0.4244 -0.8475
  122OSM   H14T12925   1.774   5.696   7.791 -2.0230  1.0220 -0.8409
  122OSM   C15S12926   1.814   5.886   7.688 -0.0226  0.6507 -0.2727
  122OSM   H15S12927   1.854   5.913   7.588 -1.9196 -0.6989 -1.4565
  122OSM   H15T12928   1.888   5.926   7.761 -0.5269  0.4790  0.3431
  122OSM   C16S12929   1.677   5.957   7.718 -0.3900  0.0409 -0.2934
  122OSM   H16S12930   1.612   5.911   7.796 -3.8719 -0.6925 -3.3325
  122OSM   H16T12931   1.626   5.954   7.619  0.1252 -0.2618 -0.5547
  122OSM   C17S12932   1.710   6.101   7.772 -0.3725 -0.2161  0.3772
  122OSM   H17S12933   1.769   6.092   7.866  0.4310  1.5845  0.0777
  122OSM   H17T12934   1.616   6.156   7.797 -0.1472  0.6717 -0.6762
  122OSM   C18S12935   1.787   6.196   7.681 -0.3039  0.4632 -0.0547
  122OSM   H18S12936   1.721   6.251   7.610  1.2476  2.3520 -0.1027
  122OSM   H18T12937   1.861   6.151   7.612 -0.4224 -1.4203  0.9802
  122OSM   H18U12938   1.842   6.266   7.748  0.4799 -0.5482  0.3907
  122OSM    C1F12939   1.776   5.080   6.401 -0.5204 -0.0961  0.6545
  122OSM     OF12940   1.838   5.038   6.307 -0.1592  0.1787  0.3920
  122OSM    C2F12941   1.729   4.981   6.508 -0.4948 -0.2089  0.7799
  122OSM    H2F12942   1.672   4.897   6.461 -0.3330 -1.5797  2.9004
  122OSM    H2G12943   1.651   5.022   6.576 -0.3773  0.5301  0.4774
  122OSM    C3F12944   1.853   4.905   6.564  0.1560 -0.1633 -0.1068
  122OSM    H3F12945   1.917   4.873   6.479  0.3235 -0.2804  0.0624
  122OSM    H3G12946   1.828   4.807   6.611  1.7335 -0.1399  0.8846
  122OSM    C4F12947   1.936   4.986   6.670  0.0060 -0.3326 -0.5110
  122OSM    H4F12948   1.978   5.063   6.602 -1.3649  2.5635  1.6957
  122OSM    H4G12949   2.015   4.917   6.707  1.2127  1.7550  1.0537
  122OSM    C5F12950   1.847   5.044   6.782 -0.4978 -0.2877 -0.2889
  122OSM    H5F12951   1.783   4.964   6.826 -2.0184 -0.5499 -2.8281
  122OSM    H5G12952   1.776   5.116   6.737  0.2730  1.3820  1.0474
  122OSM    C6F12953   1.926   5.123   6.892  0.2507 -0.3440 -0.1498
  122OSM    H6F12954   2.007   5.180   6.844 -1.0207  2.1431  0.4662
  122OSM    H6G12955   1.969   5.049   6.963 -1.4105  0.2275  1.5515
  122OSM    C7F12956   1.823   5.224   6.963  0.0991 -0.1852  0.3593
  122OSM    H7F12957   1.724   5.174   6.969 -0.0630 -0.4765 -2.8169
  122OSM    H7G12958   1.804   5.313   6.899  1.0337 -0.5146 -0.4145
  122OSM    C8F12959   1.876   5.268   7.095 -0.6985  0.3762 -0.0658
  122OSM    H8F12960   1.906   5.179   7.154  1.2571 -0.2192 -1.8577
  122OSM    H8G12961   1.797   5.329   7.145 -1.7687 -1.2538  0.3493
  122OSM    C9F12962   1.997   5.359   7.074 -0.5757 -0.3384  0.2740
  122OSM    H9F12963   2.055   5.334   6.983  1.4179  0.2274  1.3287
  122OSM   C10F12964   2.058   5.455   7.153 -0.6094 -0.2518  0.4794
  122OSM   H10F12965   2.150   5.502   7.116  0.1265 -1.8858  0.1447
  122OSM   C11F12966   2.017   5.496   7.289 -0.2966  0.1892  1.1721
  122OSM   H11F12967   1.939   5.431   7.333 -0.5701  0.5364  1.2082
  122OSM   H11G12968   1.977   5.600   7.278  1.2437  0.5751 -1.8908
  122OSM   C12F12969   2.134   5.502   7.385 -0.4827  0.6395  0.6310
  122OSM   H12F12970   2.212   5.579   7.363 -1.0707  0.8433 -0.8267
  122OSM   H12G12971   2.188   5.405   7.379 -0.6261  0.6563 -2.1061
  122OSM   C13F12972   2.099   5.533   7.530  0.1807 -0.1401 -0.1913
  122OSM   H13F12973   2.032   5.456   7.572  0.8162 -0.4453  0.2886
  122OSM   H13G12974   2.041   5.627   7.536 -0.4486 -0.4182 -1.5773
  122OSM   C14F12975   2.228   5.534   7.621 -0.8542  0.6598 -0.1584
  122OSM   H14F12976   2.283   5.624   7.586 -1.4147  1.1839  0.2776
  122OSM   H14G12977   2.288   5.444   7.596 -2.4546  0.0518 -2.0082
  122OSM   C15F12978   2.211   5.535   7.769  0.5894 -0.7730  0.9021
  122OSM   H15F12979   2.126   5.467   7.789  1.1063 -1.2204  1.6505
  122OSM   H15G12980   2.168   5.633   7.801 -0.1583 -0.0989 -1.9154
  122OSM   C16F12981   2.323   5.501   7.854  0.2113  0.8046  0.2291
  122OSM   H16F12982   2.372   5.404   7.830  2.3763  2.2153 -1.4625
  122OSM   H16G12983   2.283   5.483   7.956 -2.1234 -0.1724 -0.7903
  122OSM   C17F12984   2.439   5.606   7.859 -0.4858 -0.0584  0.1901
  122OSM   H17F12985   2.408   5.703   7.905 -2.8684 -0.6836  0.0423
  122OSM   H17G12986   2.463   5.627   7.753 -1.6926 -2.1947 -0.5690
  122OSM   C18F12987   2.562   5.551   7.930  0.5881  0.4460 -0.6029
  122OSM   H18F12988   2.541   5.510   8.032  2.0285 -3.2917 -1.6446
  122OSM   H18G12989   2.628   5.639   7.945  0.2681  0.5742  0.1277
  122OSM   H18H12990   2.612   5.469   7.876  1.7790  0.4651  0.4306
  123OSM      N12991   5.161   2.172   6.049 -0.2641  0.5356  0.3795
  123OSM    C1512992   5.229   2.071   5.959 -0.5389  0.1018 -0.6429
  123OSM   H15A12993   5.150   2.029   5.898 -1.1192  1.9996 -1.2616
  123OSM   H15B12994   5.284   1.994   6.011 -2.9416 -1.5514 -0.3478
  123OSM   H15C12995   5.296   2.124   5.892  0.1457 -0.7673 -0.6573
  123OSM    C1412996   5.118   2.286   5.960  0.2796  0.2136  0.2298
  123OSM   H14A12997   5.206   2.315   5.905  0.5239 -0.9709 -0.0298
  123OSM   H14B12998   5.072   2.373   6.005  0.6350 -0.1802  1.4211
  123OSM   H14C12999   5.044   2.255   5.888  0.7677 -0.4072 -0.0045
  123OSM    C1313000   5.039   2.104   6.108  0.1948 -0.1779  0.0987
  123OSM   H13A13001   5.072   2.018   6.163 -0.0958  0.1355  0.7797
  123OSM   H13B13002   4.973   2.079   6.026  0.7195  2.1675 -1.1431
  123OSM   H13C13003   4.979   2.171   6.168 -0.2491  0.7316 -1.2927
  123OSM    C1213004   5.245   2.226   6.162 -0.0340  1.0965  0.5394
  123OSM   H12A13005   5.197   2.312   6.206  0.6628  0.7471  2.0679
  123OSM   H12B13006   5.339   2.266   6.128  0.0798  2.2887  2.1026
  123OSM    C1113007   5.271   2.129   6.288 -0.1184 -0.7859  0.6055
  123OSM   H11A13008   5.168   2.104   6.321  0.1155  0.8893  2.8591
  123OSM   H11B13009   5.313   2.199   6.363 -0.0126  0.9280 -0.9673
  123OSM      P13010   5.330   1.883   6.314  0.0475  0.5040 -0.1666
  123OSM    O1313011   5.219   1.829   6.232 -0.3594  0.1244  0.0067
  123OSM    O1413012   5.456   1.808   6.318 -0.9525 -0.3636 -0.6621
  123OSM    O1113013   5.280   1.914   6.458 -0.6675 -0.8485 -0.0201
  123OSM    O1213014   5.363   2.024   6.253  0.4893  0.3588  0.3372
  123OSM    C1S13015   5.387   1.946   6.548  0.2240  0.5641 -0.8666
  123OSM    H1S13016   5.455   2.020   6.501 -0.0678  1.5376  0.2068
  123OSM    H1T13017   5.454   1.861   6.573  1.6283  1.7348 -0.4811
  123OSM     NF13018   5.437   2.000   6.795  0.0202 -0.7703  0.2043
  123OSM    HNF13019   5.419   1.932   6.865 -2.1235  0.1063  0.5946
  123OSM    C2S13020   5.338   2.003   6.685  0.3325  0.5249 -0.5519
  123OSM    H2S13021   5.315   2.111   6.666 -0.3489  0.1240 -2.2252
  123OSM    C3S13022   5.196   1.937   6.736 -1.0038 -0.1931 -0.5488
  123OSM    H3S13023   5.222   1.839   6.783 -1.0224  0.8455  1.7606
  123OSM     O313024   5.094   1.911   6.633 -0.2109 -0.7234  0.6621
  123OSM    HO313025   5.150   1.916   6.555  0.2109 -0.9271  0.9439
  123OSM    C4S13026   5.134   2.029   6.839  0.2590 -0.5855 -0.3372
  123OSM    H4S13027   5.153   1.997   6.943  0.7213  0.2361 -0.1535
  123OSM    C5S13028   5.061   2.141   6.821  0.0145 -0.0490  0.5345
  123OSM    H5S13029   5.030   2.157   6.716 -0.0858  0.1124  0.5876
  123OSM    C6S13030   5.006   2.225   6.933 -0.5648 -0.4753  0.1077
  123OSM    H6S13031   4.895   2.221   6.931 -0.5907 -0.1467  0.6777
  123OSM    H6T13032   5.040   2.326   6.900  2.0673 -1.6595 -1.0784
  123OSM    C7S13033   5.046   2.187   7.079  0.0917 -0.5520 -0.1378
  123OSM    H7S13034   5.155   2.206   7.089  0.2094 -1.7128  1.1919
  123OSM    H7T13035   5.027   2.079   7.095 -0.3371 -0.4263  0.2494
  123OSM    C8S13036   4.979   2.271   7.186 -0.4664 -0.8571  0.4026
  123OSM    H8S13037   4.869   2.259   7.176 -0.9846  1.4001  2.5423
  123OSM    H8T13038   5.007   2.376   7.163 -0.1771 -1.1271 -0.5340
  123OSM    C9S13039   5.035   2.239   7.320  0.4764 -0.6106  0.7958
  123OSM    H9S13040   5.145   2.257   7.324  0.3050  0.3919  1.4679
  123OSM    H9T13041   5.019   2.130   7.335 -1.2635 -0.2900  1.4563
  123OSM   C10S13042   4.963   2.306   7.438  0.0153 -0.9745  0.0702
  123OSM   H10S13043   4.869   2.253   7.464 -0.1685  1.0093  4.3881
  123OSM   H10T13044   4.941   2.407   7.397  1.1570 -0.6714  0.1517
  123OSM   C11S13045   5.057   2.299   7.560 -0.1120  0.5593  0.0750
  123OSM   H11S13046   5.138   2.373   7.548 -0.9253  1.3707 -0.5409
  123OSM   H11T13047   5.110   2.201   7.555 -0.9141 -0.0115  1.9195
  123OSM   C12S13048   4.986   2.313   7.690 -0.2959  0.6178  0.1788
  123OSM   H12S13049   4.905   2.237   7.688 -1.3020  1.5379 -3.9194
  123OSM   H12T13050   4.944   2.414   7.708 -0.0620  0.3501  2.3768
  123OSM   C13S13051   5.085   2.289   7.808  0.3629 -0.0336  0.1101
  123OSM   H13S13052   5.147   2.382   7.810 -2.0281  1.6864 -0.9631
  123OSM   H13T13053   5.151   2.207   7.772 -0.2652  1.1295 -4.2924
  123OSM   C14S13054   5.020   2.259   7.943 -0.0004 -0.2615 -0.2873
  123OSM   H14S13055   5.107   2.241   8.010  0.5364  2.1159 -0.2765
  123OSM   H14T13056   4.962   2.164   7.937  0.9398 -0.7507 -3.2728
  123OSM   C15S13057   4.923   2.358   8.000  0.1567 -0.0029  0.5708
  123OSM   H15S13058   4.820   2.338   7.965  0.9441  1.2751 -3.0165
  123OSM   H15T13059   4.947   2.455   7.949 -2.6282 -0.3614 -1.6698
  123OSM   C16S13060   4.937   2.368   8.154  0.0789 -0.3762  0.3252
  123OSM   H16S13061   5.038   2.410   8.176  0.8270 -2.1446  0.4466
  123OSM   H16T13062   4.930   2.262   8.188  1.3740 -0.8033 -0.6428
  123OSM   C17S13063   4.828   2.458   8.223 -0.3422  0.2594  0.2150
  123OSM   H17S13064   4.732   2.433   8.173  0.7227  1.3403 -2.5772
  123OSM   H17T13065   4.857   2.565   8.210  2.3574 -0.3425  0.7855
  123OSM   C18S13066   4.815   2.444   8.380 -0.3042 -0.2932 -0.2941
  123OSM   H18S13067   4.745   2.520   8.420 -0.3357  1.0151 -2.6311
  123OSM   H18T13068   4.916   2.474   8.416 -0.9365  1.8177 -0.1393
  123OSM   H18U13069   4.796   2.337   8.402 -0.2855 -0.3331 -0.4688
  123OSM    C1F13070   5.552   2.068   6.799  0.3372  0.1745  0.4933
  123OSM     OF13071   5.586   2.132   6.698 -0.2030  0.5639  0.5890
  123OSM    C2F13072   5.640   2.048   6.917 -1.3093 -0.8650 -0.3137
  123OSM    H2F13073   5.746   2.065   6.888 -0.7796 -2.1991  0.7092
  123OSM    H2G13074   5.632   1.947   6.962 -0.8262 -1.3966 -1.4091
  123OSM    C3F13075   5.612   2.137   7.045  0.9261  0.3402  0.0681
  123OSM    H3F13076   5.626   2.241   7.006 -2.4116  0.7311 -0.3466
  123OSM    H3G13077   5.689   2.108   7.119  0.5900  0.5477  0.5000
  123OSM    C4F13078   5.473   2.102   7.098 -0.3901 -0.0276 -0.0846
  123OSM    H4F13079   5.480   1.996   7.131  4.0198 -0.4914 -1.8014
  123OSM    H4G13080   5.392   2.110   7.023 -0.0551 -2.2004 -0.7510
  123OSM    C5F13081   5.449   2.191   7.215  0.2604  0.3350  0.1194
  123OSM    H5F13082   5.344   2.227   7.212 -0.0025 -0.4750 -1.2021
  123OSM    H5G13083   5.522   2.275   7.217  0.1065  0.5123 -1.0362
  123OSM    C6F13084   5.460   2.124   7.356  0.0530  0.6568 -0.2739
  123OSM    H6F13085   5.556   2.073   7.378 -0.3058 -0.6026 -1.4466
  123OSM    H6G13086   5.394   2.034   7.351  1.8780 -0.7147 -0.9854
  123OSM    C7F13087   5.404   2.220   7.467 -0.7483  0.1199  0.6096
  123OSM    H7F13088   5.305   2.247   7.425 -0.1647  2.0215  0.3674
  123OSM    H7G13089   5.464   2.313   7.474 -1.6207  0.9761 -2.0288
  123OSM    C8F13090   5.382   2.163   7.613 -1.0091  0.6355 -0.5634
  123OSM    H8F13091   5.311   2.078   7.621 -0.7485  0.5824  1.8277
  123OSM    H8G13092   5.351   2.249   7.676 -1.0558 -0.5586  1.1051
  123OSM    C9F13093   5.511   2.108   7.669  0.2862  0.1474  0.3114
  123OSM    H9F13094   5.549   2.018   7.618 -0.1914 -1.1627  2.1683
  123OSM   C10F13095   5.572   2.153   7.780 -0.9421  0.0496 -0.0884
  123OSM   H10F13096   5.660   2.097   7.815  0.3239  1.5268 -0.7895
  123OSM   C11F13097   5.555   2.272   7.869  0.0421  0.4623  0.7355
  123OSM   H11F13098   5.497   2.356   7.827 -0.5792  0.6319  1.8914
  123OSM   H11G13099   5.655   2.311   7.893 -0.9829  1.1932  4.3321
  123OSM   C12F13100   5.480   2.238   7.996  0.4191 -0.1374 -0.3587
  123OSM   H12F13101   5.371   2.245   7.976 -0.0458 -0.6504  1.7627
  123OSM   H12G13102   5.488   2.328   8.060  0.6631 -1.2902  1.2768
  123OSM   C13F13103   5.526   2.119   8.088 -0.3250 -0.0067 -0.2017
  123OSM   H13F13104   5.631   2.127   8.121 -1.1060  0.6668  2.3149
  123OSM   H13G13105   5.521   2.030   8.021  0.3727  1.4594 -2.3330
  123OSM   C14F13106   5.440   2.097   8.205 -0.0307 -0.7702 -0.3410
  123OSM   H14F13107   5.331   2.102   8.183 -0.2339  1.3722  0.9403
  123OSM   H14G13108   5.469   2.185   8.265  0.7966 -0.9054 -0.5374
  123OSM   C15F13109   5.464   1.963   8.271 -0.2719  0.2484 -0.2875
  123OSM   H15F13110   5.571   1.951   8.297 -0.9906 -0.0960  2.8655
  123OSM   H15G13111   5.434   1.882   8.201  1.9272  0.5387 -1.6604
  123OSM   C16F13112   5.395   1.962   8.411  0.3998 -0.1006  0.3050
  123OSM   H16F13113   5.291   2.000   8.395  0.5873  0.1703 -0.2974
  123OSM   H16G13114   5.434   2.049   8.468 -0.7102  0.9119 -0.4220
  123OSM   C17F13115   5.403   1.830   8.495  0.8346  0.0466 -0.5032
  123OSM   H17F13116   5.508   1.826   8.532  0.6410  2.2752  0.4833
  123OSM   H17G13117   5.402   1.737   8.435  1.5561  0.0724 -0.5700
  123OSM   C18F13118   5.295   1.822   8.613 -0.2311 -0.1635  0.7169
  123OSM   H18F13119   5.289   1.722   8.662 -1.1875 -1.0680 -1.1127
  123OSM   H18G13120   5.195   1.845   8.570 -0.8028  1.0235  2.5990
  123OSM   H18H13121   5.325   1.901   8.685  4.0110  1.7419 -2.6764
  124OSM      N13122   0.678   5.099   5.822 -0.0365  0.5227 -0.2514
  124OSM    C1513123   0.782   5.058   5.926  0.4246 -0.2896 -0.6136
  124OSM   H15A13124   0.738   5.019   6.016 -1.4903 -3.2372 -2.6212
  124OSM   H15B13125   0.854   5.136   5.945  1.2528 -1.1613 -0.0375
  124OSM   H15C13126   0.840   4.975   5.886  1.2922  0.1190 -0.2294
  124OSM    C1413127   0.630   5.237   5.851  0.4083 -0.2718  0.0263
  124OSM   H14A13128   0.577   5.280   5.767  2.6203  1.8915 -0.3982
  124OSM   H14B13129   0.720   5.297   5.860  0.6586 -0.7601  0.8209
  124OSM   H14C13130   0.572   5.258   5.939 -0.7453  1.4742 -1.0701
  124OSM    C1313131   0.754   5.111   5.689  0.3012  0.5610 -0.6673
  124OSM   H13A13132   0.686   5.147   5.614 -1.6048 -0.0956  0.6772
  124OSM   H13B13133   0.797   5.017   5.657 -1.3248 -0.3059 -0.3830
  124OSM   H13C13134   0.836   5.182   5.697 -0.0334  0.7795  1.5140
  124OSM    C1213135   0.559   5.008   5.809 -0.0721  0.2799  0.7437
  124OSM   H12A13136   0.580   4.918   5.752 -0.8588 -0.4489  1.5670
  124OSM   H12B13137   0.485   5.053   5.745 -0.3641  1.6554  2.0069
  124OSM    C1113138   0.478   4.970   5.933 -0.2663 -0.3905  0.0433
  124OSM   H11A13139   0.394   4.906   5.897  2.7870 -2.4295 -4.3193
  124OSM   H11B13140   0.433   5.058   5.984  0.3273 -0.8024  1.2971
  124OSM      P13141   0.603   4.751   6.024  0.0200  0.2885  0.1586
  124OSM    O1313142   0.559   4.712   5.888 -0.0693  0.1700 -0.6217
  124OSM    O1413143   0.752   4.760   6.046  0.0561  0.3092 -0.6467
  124OSM    O1113144   0.529   4.650   6.128 -0.4370 -0.4251  0.0381
  124OSM    O1213145   0.555   4.904   6.034  0.0004 -0.1016 -0.0863
  124OSM    C1S13146   0.427   4.713   6.203  0.0045  0.4417 -0.6142
  124OSM    H1S13147   0.333   4.685   6.151  0.0516 -0.1858 -0.3740
  124OSM    H1T13148   0.443   4.822   6.218 -1.0621  0.6074 -0.5958
  124OSM     NF13149   0.329   4.736   6.417  0.5209  0.7260  0.3560
  124OSM    HNF13150   0.376   4.815   6.455  0.0126  0.5178  1.4651
  124OSM    C2S13151   0.417   4.653   6.346 -0.1144  0.1115 -0.1791
  124OSM    H2S13152   0.363   4.556   6.344  2.0376 -1.1318 -0.0947
  124OSM    C3S13153   0.556   4.637   6.409 -0.5709  0.5743 -0.0689
  124OSM    H3S13154   0.612   4.733   6.408 -1.4926  1.2216  2.6458
  124OSM     O313155   0.644   4.551   6.331 -0.4729  0.0683 -0.2697
  124OSM    HO313156   0.603   4.558   6.244 -0.5460 -1.9564 -0.4447
  124OSM    C4S13157   0.554   4.578   6.549  0.0932 -0.0154 -0.0036
  124OSM    H4S13158   0.558   4.468   6.558  1.1358  0.1090  1.2961
  124OSM    C5S13159   0.562   4.654   6.659 -0.1525 -0.2818 -0.2795
  124OSM    H5S13160   0.565   4.762   6.639 -0.0283 -0.1477  0.4190
  124OSM    C6S13161   0.546   4.608   6.805 -0.1090 -0.5358  0.3204
  124OSM    H6S13162   0.516   4.501   6.802 -0.8115 -0.3671  1.1310
  124OSM    H6T13163   0.468   4.663   6.861 -0.8445 -2.4490  1.2497
  124OSM    C7S13164   0.670   4.615   6.893  0.0100 -0.8040  0.3852
  124OSM    H7S13165   0.711   4.718   6.897 -1.7648 -0.0517  0.3322
  124OSM    H7T13166   0.749   4.551   6.847  1.0066  2.2375 -2.5204
  124OSM    C8S13167   0.642   4.577   7.033  0.1635 -0.3690 -0.5287
  124OSM    H8S13168   0.618   4.469   7.049 -1.6139  0.1584  0.7439
  124OSM    H8T13169   0.548   4.627   7.063 -1.9045 -3.4476 -1.3831
  124OSM    C9S13170   0.762   4.614   7.118 -0.3980  0.6809  0.5727
  124OSM    H9S13171   0.760   4.722   7.146  2.0333  1.5529 -2.0850
  124OSM    H9T13172   0.847   4.605   7.046 -2.0009 -1.9404 -1.1490
  124OSM   C10S13173   0.764   4.542   7.242 -0.2843 -0.1684 -0.1878
  124OSM   H10S13174   0.866   4.550   7.285  0.0856 -1.6829 -0.6931
  124OSM   H10T13175   0.758   4.432   7.224 -0.5787 -0.2201  0.2045
  124OSM   C11S13176   0.654   4.591   7.341  0.6427 -0.2694  0.3141
  124OSM   H11S13177   0.555   4.579   7.293  0.3811  1.8950  0.2138
  124OSM   H11T13178   0.685   4.697   7.354  3.0521 -0.8133 -0.4656
  124OSM   C12S13179   0.662   4.507   7.471  0.3211  0.6502  0.2858
  124OSM   H12S13180   0.770   4.486   7.485  0.1364  0.2931  1.2870
  124OSM   H12T13181   0.606   4.418   7.435 -0.0956  0.3336  1.6461
  124OSM   C13S13182   0.618   4.584   7.594  0.2440  0.4270 -0.5284
  124OSM   H13S13183   0.523   4.640   7.577  0.4375  0.5265 -1.3328
  124OSM   H13T13184   0.684   4.673   7.606  0.1636  0.6508 -1.6125
  124OSM   C14S13185   0.609   4.482   7.709  0.0023 -1.0317  0.1070
  124OSM   H14S13186   0.683   4.400   7.703 -0.8543 -1.9565  1.5936
  124OSM   H14T13187   0.510   4.432   7.713 -0.0520 -0.8508  2.8491
  124OSM   C15S13188   0.617   4.553   7.847 -0.5882  0.1902  0.4242
  124OSM   H15S13189   0.539   4.631   7.836 -0.4369  0.3509  0.4773
  124OSM   H15T13190   0.715   4.606   7.855 -0.1535 -0.6396  0.7231
  124OSM   C16S13191   0.578   4.471   7.975  0.1602 -0.4123  0.2451
  124OSM   H16S13192   0.649   4.385   7.976  0.1635 -0.4355 -0.8627
  124OSM   H16T13193   0.477   4.433   7.950  0.0798 -0.4372  0.6049
  124OSM   C17S13194   0.590   4.555   8.098 -0.4364  0.0567 -0.0267
  124OSM   H17S13195   0.535   4.651   8.100  2.2309  1.7925 -2.2064
  124OSM   H17T13196   0.698   4.582   8.104 -0.5139  0.2515  0.6056
  124OSM   C18S13197   0.572   4.473   8.226  0.1813 -0.0918 -0.3023
  124OSM   H18S13198   0.658   4.403   8.226 -0.5210 -1.1176 -3.2160
  124OSM   H18T13199   0.472   4.424   8.224  0.8244 -1.6550  2.3255
  124OSM   H18U13200   0.553   4.541   8.311 -1.6544 -0.5026 -0.3372
  124OSM    C1F13201   0.197   4.739   6.403  0.2539 -0.3308  0.7789
  124OSM     OF13202   0.136   4.662   6.332 -0.0475  0.4635  0.0888
  124OSM    C2F13203   0.129   4.844   6.477  0.6399 -0.1333 -0.5261
  124OSM    H2F13204   0.117   4.935   6.414  1.3011  0.4218  0.1392
  124OSM    H2G13205   0.195   4.881   6.557 -0.5260  0.6003  0.1242
  124OSM    C3F13206  -0.006   4.792   6.536 -0.1220 -0.2124  0.4717
  124OSM    H3F13207  -0.075   4.755   6.458  0.6718  0.8828 -0.8078
  124OSM    H3G13208  -0.062   4.875   6.584 -2.1560 -1.9741  1.3019
  124OSM    C4F13209   0.004   4.687   6.644 -0.6094  0.2801  0.3830
  124OSM    H4F13210   0.031   4.591   6.595  0.1316  0.0352  1.2478
  124OSM    H4G13211  -0.094   4.669   6.694 -1.4931 -2.9528 -2.1679
  124OSM    C5F13212   0.104   4.723   6.750  0.0575 -0.1889  0.6750
  124OSM    H5F13213   0.102   4.833   6.763 -2.0506  0.0017 -0.7654
  124OSM    H5G13214   0.203   4.690   6.711  0.2026  0.0429  0.8442
  124OSM    C6F13215   0.066   4.651   6.875  0.1044 -0.8069  1.1587
  124OSM    H6F13216   0.036   4.548   6.847 -0.4500 -0.5889  0.9447
  124OSM    H6G13217  -0.021   4.688   6.934 -0.6220 -1.9456  0.8171
  124OSM    C7F13218   0.186   4.630   6.975  0.4187 -1.0059 -0.4176
  124OSM    H7F13219   0.206   4.718   7.039  0.0253 -1.0423 -0.2428
  124OSM    H7G13220   0.276   4.601   6.916 -1.5914 -2.4155 -3.0176
  124OSM    C8F13221   0.159   4.512   7.066  0.2423 -0.6666  0.3445
  124OSM    H8F13222   0.163   4.413   7.015  0.8391 -1.0919  1.1961
  124OSM    H8G13223   0.056   4.533   7.100 -0.4510  0.7901 -2.3215
  124OSM    C9F13224   0.270   4.501   7.168  0.3817 -0.0565 -0.1850
  124OSM    H9F13225   0.371   4.489   7.126  0.5692 -2.7647  0.8889
  124OSM   C10F13226   0.255   4.508   7.296 -0.7924  1.0455 -0.7171
  124OSM   H10F13227   0.347   4.495   7.355 -1.1107 -3.1179 -0.8491
  124OSM   C11F13228   0.125   4.523   7.371 -0.3893 -0.2867  0.2402
  124OSM   H11F13229   0.099   4.417   7.392  1.3738 -0.5982  0.9945
  124OSM   H11G13230   0.038   4.548   7.305 -0.6381  0.9544  1.0178
  124OSM   C12F13231   0.130   4.599   7.508  0.2414  0.6308  0.3305
  124OSM   H12F13232   0.026   4.608   7.547 -0.0432  1.1107 -0.5250
  124OSM   H12G13233   0.170   4.697   7.476  4.3527 -0.8126  0.4835
  124OSM   C13F13234   0.231   4.546   7.613 -0.0202 -0.9892 -0.6686
  124OSM   H13F13235   0.327   4.514   7.568  0.6128 -0.2716  0.1532
  124OSM   H13G13236   0.189   4.453   7.657  0.1253 -0.8720 -0.2784
  124OSM   C14F13237   0.261   4.645   7.726  0.6007 -0.4434  0.0269
  124OSM   H14F13238   0.305   4.737   7.681 -2.0124  1.5089  1.1424
  124OSM   H14G13239   0.333   4.597   7.795  0.2254  1.1635  1.6467
  124OSM   C15F13240   0.132   4.676   7.810 -0.3929 -1.1450 -0.3296
  124OSM   H15F13241   0.094   4.576   7.838 -1.0646 -0.2897  1.9857
  124OSM   H15G13242   0.064   4.726   7.737  2.0497  1.8019 -0.8270
  124OSM   C16F13243   0.161   4.761   7.936 -0.2629 -0.1060 -1.0033
  124OSM   H16F13244   0.064   4.794   7.980 -0.1866 -0.7723 -0.3057
  124OSM   H16G13245   0.221   4.851   7.910  1.4835 -0.6783  0.8431
  124OSM   C17F13246   0.233   4.676   8.042  0.6464 -0.2295  0.7881
  124OSM   H17F13247   0.323   4.627   7.998 -0.2690 -0.3467 -1.0218
  124OSM   H17G13248   0.168   4.590   8.070  0.3473 -0.7594 -1.3828
  124OSM   C18F13249   0.268   4.747   8.167 -0.4076  0.3973 -0.0475
  124OSM   H18F13250   0.333   4.834   8.143 -1.2747  1.4626  1.3122
  124OSM   H18G13251   0.337   4.700   8.240  1.6470  2.9339 -0.2191
  124OSM   H18H13252   0.178   4.784   8.221  0.2454  1.2091  0.5151
  125OSM      N13253   2.985   3.285   6.500 -0.1510 -0.0809  0.2547
  125OSM    C1513254   3.027   3.142   6.489  0.1818  0.2797 -0.1770
  125OSM   H15A13255   3.079   3.121   6.397  0.7419 -0.2025  0.2430
  125OSM   H15B13256   2.943   3.074   6.491 -1.1497  1.8112 -1.0390
  125OSM   H15C13257   3.095   3.117   6.569  1.2552  0.1132 -1.1316
  125OSM    C1413258   2.913   3.334   6.377  0.5132 -0.3047  0.2776
  125OSM   H14A13259   2.979   3.345   6.293 -0.0421  1.0570 -0.0144
  125OSM   H14B13260   2.872   3.428   6.411  1.6842 -0.1994  1.4981
  125OSM   H14C13261   2.824   3.275   6.360 -0.5001  1.7175 -2.0482
  125OSM    C1313262   2.882   3.295   6.610  0.1944  0.5310 -0.2028
  125OSM   H13A13263   2.929   3.278   6.705  0.5933 -0.2201 -0.5278
  125OSM   H13B13264   2.805   3.222   6.589  2.7781 -2.8060  1.0483
  125OSM   H13C13265   2.836   3.393   6.607 -1.8054 -0.4021 -1.9365
  125OSM    C1213266   3.096   3.379   6.526  0.0658 -0.6278  0.0255
  125OSM   H12A13267   3.142   3.354   6.620  1.5389  1.7038 -0.0170
  125OSM   H12B13268   3.060   3.480   6.539  1.0279 -0.3908  1.0309
  125OSM    C1113269   3.207   3.399   6.422 -0.1207  0.8575  0.6693
  125OSM   H11A13270   3.272   3.309   6.415  0.7786  1.3309  2.3683
  125OSM   H11B13271   3.275   3.477   6.462 -0.7273  1.7111  0.0685
  125OSM      P13272   3.182   3.568   6.228 -0.1136  0.1277 -0.2552
  125OSM    O1313273   3.306   3.542   6.149  0.4138  0.4312  0.0765
  125OSM    O1413274   3.064   3.619   6.160  0.7319  0.1846  0.7474
  125OSM    O1113275   3.225   3.674   6.349  0.7602 -0.3417 -0.5261
  125OSM    O1213276   3.154   3.428   6.295  0.0286  0.1320  0.0377
  125OSM    C1S13277   3.108   3.724   6.424  0.0408 -0.4411 -0.5964
  125OSM    H1S13278   3.048   3.635   6.456 -0.5204 -0.5465 -1.8752
  125OSM    H1T13279   3.054   3.788   6.352  0.4528  0.0825 -0.4457
  125OSM     NF13280   3.040   3.839   6.621 -0.7106 -0.6866 -0.5648
  125OSM    HNF13281   3.002   3.931   6.610  0.7511  0.1793  1.0949
  125OSM    C2S13282   3.155   3.809   6.545  0.0350  0.4487  0.0800
  125OSM    H2S13283   3.217   3.747   6.614 -0.5629 -2.6511 -1.9413
  125OSM    C3S13284   3.239   3.932   6.501  0.1203  0.2326 -0.4961
  125OSM    H3S13285   3.165   3.994   6.447 -1.2065  1.8430  2.8624
  125OSM     O313286   3.348   3.918   6.412 -0.1526 -0.0830  0.9473
  125OSM    HO313287   3.335   3.829   6.377 -2.9016  1.0719 -1.4191
  125OSM    C4S13288   3.274   4.014   6.617 -0.3517 -0.1497 -0.1128
  125OSM    H4S13289   3.331   3.946   6.682 -1.7836 -0.9677  0.3294
  125OSM    C5S13290   3.268   4.156   6.629 -0.3978  0.2791  0.4634
  125OSM    H5S13291   3.240   4.213   6.539 -1.1212 -0.1877  0.3875
  125OSM    C6S13292   3.313   4.228   6.748  0.0283 -0.3707 -0.2939
  125OSM    H6S13293   3.241   4.313   6.758  0.9793  0.2626  1.5830
  125OSM    H6T13294   3.414   4.272   6.730 -0.4777  1.1547  0.4226
  125OSM    C7S13295   3.298   4.150   6.882 -0.3482 -0.4221 -0.0622
  125OSM    H7S13296   3.370   4.066   6.873  0.4180 -0.1424  2.5582
  125OSM    H7T13297   3.195   4.110   6.895 -0.3705 -1.5667 -2.9204
  125OSM    C8S13298   3.334   4.238   7.002  0.3129 -0.1199 -0.3804
  125OSM    H8S13299   3.260   4.320   7.018  1.1285  0.6786 -0.6244
  125OSM    H8T13300   3.425   4.296   6.978 -2.0081  3.5223 -1.2039
  125OSM    C9S13301   3.350   4.171   7.135 -0.3062 -0.3246 -0.1287
  125OSM    H9S13302   3.415   4.081   7.130  0.5291  0.3020 -1.1042
  125OSM    H9T13303   3.258   4.141   7.189  0.8606  0.2857  2.3226
  125OSM   C10S13304   3.410   4.275   7.235  0.2079  0.1745  0.1139
  125OSM   H10S13305   3.339   4.360   7.250 -0.3784 -0.6511  2.4636
  125OSM   H10T13306   3.506   4.321   7.204  0.7391 -1.0541 -0.1111
  125OSM   C11S13307   3.438   4.201   7.371 -0.1463  0.2680  0.0636
  125OSM   H11S13308   3.513   4.119   7.362  0.1984  0.1679  2.9701
  125OSM   H11T13309   3.349   4.137   7.388 -1.2565  1.3257 -1.4680
  125OSM   C12S13310   3.472   4.296   7.484 -0.1655 -0.0326 -0.0573
  125OSM   H12S13311   3.405   4.384   7.494 -1.0559 -0.6235 -0.7803
  125OSM   H12T13312   3.572   4.330   7.449 -0.0214 -1.7199 -1.3954
  125OSM   C13S13313   3.486   4.237   7.628  0.1681  0.2854 -0.7108
  125OSM   H13S13314   3.543   4.142   7.623  0.3557  0.4240 -1.4218
  125OSM   H13T13315   3.383   4.197   7.643  0.2801 -0.8705 -2.5391
  125OSM   C14S13316   3.552   4.336   7.721 -0.0644 -1.0283  0.2582
  125OSM   H14S13317   3.504   4.435   7.706 -1.2007 -1.4502  1.0139
  125OSM   H14T13318   3.657   4.363   7.695  0.0817 -0.5532  1.2952
  125OSM   C15S13319   3.544   4.288   7.866  0.0612 -0.4571 -0.4145
  125OSM   H15S13320   3.606   4.197   7.879 -0.4616 -0.7482  0.0473
  125OSM   H15T13321   3.437   4.264   7.879 -0.1484  0.6627  0.0780
  125OSM   C16S13322   3.587   4.397   7.974 -0.0547  0.4150 -0.1459
  125OSM   H16S13323   3.508   4.476   7.972  0.2882  0.7491 -1.1838
  125OSM   H16T13324   3.688   4.428   7.941  0.1168  0.7190  0.6325
  125OSM   C17S13325   3.589   4.347   8.116  0.2809  0.6437 -0.6265
  125OSM   H17S13326   3.614   4.435   8.179  1.9958 -0.8053  0.8300
  125OSM   H17T13327   3.678   4.287   8.145 -0.5697 -0.5878 -0.4965
  125OSM   C18S13328   3.468   4.273   8.167 -0.2305 -0.0629  0.1108
  125OSM   H18S13329   3.425   4.207   8.088 -3.1542  1.6888  0.0682
  125OSM   H18T13330   3.384   4.345   8.183 -0.3571  0.2792 -1.8843
  125OSM   H18U13331   3.502   4.210   8.252 -3.6881 -1.6030  0.5346
  125OSM    C1F13332   2.980   3.749   6.688  0.5844  0.4978 -0.6193
  125OSM     OF13333   3.022   3.637   6.689 -0.3756 -0.0526  0.4566
  125OSM    C2F13334   2.851   3.788   6.760 -0.4144 -0.0634  0.1619
  125OSM    H2F13335   2.779   3.831   6.687 -0.6809 -0.4505  0.1939
  125OSM    H2G13336   2.877   3.859   6.841  0.2265  0.2492 -0.3080
  125OSM    C3F13337   2.786   3.672   6.835  0.6544 -0.3268 -0.0427
  125OSM    H3F13338   2.772   3.585   6.769  1.5068 -0.9776  0.6139
  125OSM    H3G13339   2.680   3.704   6.846  0.8127  0.7201 -1.3202
  125OSM    C4F13340   2.855   3.627   6.962 -0.4028 -0.5641 -0.2259
  125OSM    H4F13341   2.848   3.708   7.037 -0.9110 -1.8026  1.1038
  125OSM    H4G13342   2.962   3.620   6.934 -0.8850 -0.1706 -2.3412
  125OSM    C5F13343   2.778   3.512   7.033  0.2207  0.1866  0.6782
  125OSM    H5F13344   2.768   3.420   6.972 -0.5190  0.5449  0.2529
  125OSM    H5G13345   2.676   3.555   7.037  0.2320  0.6914 -2.1365
  125OSM    C6F13346   2.814   3.467   7.173 -0.4299  0.8637  0.5442
  125OSM    H6F13347   2.733   3.413   7.226 -1.4580 -0.8515 -2.4966
  125OSM    H6G13348   2.850   3.549   7.239  0.7937  0.4891  0.3611
  125OSM    C7F13349   2.932   3.367   7.162 -0.2119  0.5726 -0.4173
  125OSM    H7F13350   3.019   3.430   7.133 -0.4131  0.9077 -0.2943
  125OSM    H7G13351   2.921   3.292   7.080  2.2821 -1.1483  0.7007
  125OSM    C8F13352   2.968   3.303   7.294  0.3041  0.5221 -0.8627
  125OSM    H8F13353   3.009   3.389   7.351 -1.8461  2.1918 -1.6848
  125OSM    H8G13354   3.055   3.235   7.281 -0.0727 -0.1177 -0.0946
  125OSM    C9F13355   2.860   3.228   7.370  0.2620  0.6197  0.2111
  125OSM    H9F13356   2.815   3.142   7.317  1.1000 -0.7536  1.6238
  125OSM   C10F13357   2.822   3.252   7.498 -0.3913 -0.7362  0.2225
  125OSM   H10F13358   2.731   3.208   7.543 -0.8772  0.6335  0.6378
  125OSM   C11F13359   2.868   3.366   7.584  0.5062  0.1100  0.0466
  125OSM   H11F13360   2.778   3.421   7.620 -1.8860 -2.6214 -1.3424
  125OSM   H11G13361   2.919   3.446   7.526  1.1260  0.4882  1.0838
  125OSM   C12F13362   2.952   3.318   7.711 -0.0625 -0.3427 -0.0171
  125OSM   H12F13363   2.976   3.410   7.769 -0.1048  0.9641 -1.9644
  125OSM   H12G13364   3.041   3.275   7.661  0.5481  1.0406 -0.1794
  125OSM   C13F13365   2.882   3.215   7.800 -1.0678 -0.9849 -0.5034
  125OSM   H13F13366   2.847   3.138   7.728 -0.7404 -1.7412  0.1225
  125OSM   H13G13367   2.787   3.262   7.834 -0.7317  0.9265 -2.0616
  125OSM   C14F13368   2.978   3.157   7.915  0.4618  0.2095  0.1806
  125OSM   H14F13369   3.082   3.180   7.883  0.4288  1.6391  1.0142
  125OSM   H14G13370   2.976   3.046   7.928  1.7122 -0.0142 -1.2286
  125OSM   C15F13371   2.954   3.211   8.053 -0.0023 -0.4816 -0.2632
  125OSM   H15F13372   2.863   3.160   8.090  0.8319 -0.9164  1.2596
  125OSM   H15G13373   2.945   3.322   8.048  1.5125 -0.2176  1.5104
  125OSM   C16F13374   3.070   3.180   8.150 -0.1788 -0.1697 -0.4076
  125OSM   H16F13375   3.168   3.218   8.112 -1.7689  3.2689 -1.4351
  125OSM   H16G13376   3.080   3.070   8.162  2.8011  0.1099  0.4759
  125OSM   C17F13377   3.073   3.238   8.295  0.2261  0.7140  0.2361
  125OSM   H17F13378   3.067   3.347   8.281 -0.7554  0.6140 -0.1757
  125OSM   H17G13379   3.167   3.197   8.338 -0.4992 -0.9639  0.3313
  125OSM   C18F13380   2.951   3.184   8.372 -0.3364  0.2441  0.2899
  125OSM   H18F13381   2.960   3.075   8.353 -0.7545  0.2956 -0.2215
  125OSM   H18G13382   2.854   3.225   8.335 -0.6735 -1.0608 -0.3524
  125OSM   H18H13383   2.965   3.215   8.478 -1.8121  1.1827  0.2357
  126OSM      N13384   5.584   1.027   6.122  0.7131  0.1933 -0.0282
  126OSM    C1513385   5.718   1.050   6.060  0.2420 -0.6579  0.6400
  126OSM   H15A13386   5.751   1.152   6.077 -0.4697  0.0678 -1.9598
  126OSM   H15B13387   5.723   1.025   5.955 -1.7259  0.4216  0.2476
  126OSM   H15C13388   5.793   0.989   6.109  0.4110 -0.3162  0.8121
  126OSM    C1413389   5.472   1.079   6.032  0.1847  0.3786 -0.5835
  126OSM   H14A13390   5.449   1.185   6.033  0.4293  0.4430  1.1680
  126OSM   H14B13391   5.379   1.031   6.055 -0.7662  2.2853 -0.3098
  126OSM   H14C13392   5.491   1.046   5.930 -0.5169 -0.7320 -0.3700
  126OSM    C1313393   5.580   0.879   6.141 -0.0521 -0.2322 -0.4062
  126OSM   H13A13394   5.579   0.829   6.045 -1.5239 -0.2030 -0.4303
  126OSM   H13B13395   5.496   0.848   6.202 -0.3071 -0.8647 -1.0592
  126OSM   H13C13396   5.669   0.855   6.196  0.3167 -1.8464 -1.6318
  126OSM    C1213397   5.574   1.088   6.266  0.2884 -0.1684  0.5962
  126OSM   H12A13398   5.636   1.028   6.331  1.8124  0.6013 -0.1060
  126OSM   H12B13399   5.469   1.078   6.293 -0.2826 -1.9752 -1.9211
  126OSM    C1113400   5.619   1.235   6.286  0.6971  0.1794  0.3977
  126OSM   H11A13401   5.578   1.264   6.385  0.6820  0.8913  0.1897
  126OSM   H11B13402   5.570   1.302   6.212  1.2555 -0.1076 -0.2408
  126OSM      P13403   5.819   1.401   6.303  0.1193  0.0650  0.4919
  126OSM    O1313404   5.915   1.425   6.188  0.9528 -0.1638  0.0875
  126OSM    O1413405   5.711   1.497   6.330  0.5488  0.5361  0.7020
  126OSM    O1113406   5.900   1.375   6.433  0.2918  0.0873 -0.1279
  126OSM    O1213407   5.758   1.262   6.276  0.4345 -0.0121  0.2339
  126OSM    C1S13408   5.810   1.337   6.542 -0.1838 -0.4660 -0.0724
  126OSM    H1S13409   5.782   1.230   6.529  0.3568 -0.5585 -0.5097
  126OSM    H1T13410   5.719   1.400   6.548 -0.0075 -0.2076 -0.0593
  126OSM     NF13411   5.800   1.302   6.797 -0.9476 -0.0465 -0.6675
  126OSM    HNF13412   5.769   1.378   6.854 -0.7802  1.6952 -2.7680
  126OSM    C2S13413   5.879   1.345   6.684  0.2322 -0.4955  0.1994
  126OSM    H2S13414   5.968   1.279   6.678  1.7051  1.5179 -1.5657
  126OSM    C3S13415   5.935   1.486   6.716 -0.2301 -0.0410 -0.4672
  126OSM    H3S13416   5.848   1.551   6.741  2.1108  3.3651 -0.5578
  126OSM     O313417   5.999   1.551   6.602 -0.0560  0.1100 -0.0623
  126OSM    HO313418   5.975   1.507   6.520 -0.7939 -0.8343  0.6413
  126OSM    C4S13419   6.031   1.474   6.826  0.4596  0.1361 -0.8813
  126OSM    H4S13420   5.971   1.483   6.918  0.7149  1.6893 -0.8432
  126OSM    C5S13421   6.161   1.455   6.832  0.3688 -0.2573 -0.0017
  126OSM    H5S13422   6.217   1.452   6.737  2.6004 -2.1185  1.2538
  126OSM    C6S13423   6.243   1.438   6.958 -0.5202  0.3698  0.5523
  126OSM    H6S13424   6.303   1.531   6.957  0.0677 -0.0034 -0.5431
  126OSM    H6T13425   6.322   1.359   6.954  0.8993  1.7224  0.6800
  126OSM    C7S13426   6.170   1.416   7.092 -0.7618  0.2019  0.0790
  126OSM    H7S13427   6.114   1.320   7.096  1.6445 -1.3913 -1.5704
  126OSM    H7T13428   6.099   1.498   7.114 -1.8030 -0.6679  0.0458
  126OSM    C8S13429   6.265   1.420   7.216  0.7366  0.0581  0.2249
  126OSM    H8S13430   6.331   1.507   7.194  0.4393 -0.1638 -1.7057
  126OSM    H8T13431   6.323   1.326   7.228  1.5381  0.4976 -0.1217
  126OSM    C9S13432   6.189   1.427   7.351  0.1491 -0.6084  0.2682
  126OSM    H9S13433   6.133   1.332   7.365  0.3173 -1.2377 -2.7304
  126OSM    H9T13434   6.114   1.508   7.337  0.4664 -0.7835 -3.5391
  126OSM   C10S13435   6.262   1.452   7.482 -0.0122  0.1104  0.3192
  126OSM   H10S13436   6.335   1.534   7.485  1.1024 -0.7405 -1.5936
  126OSM   H10T13437   6.326   1.365   7.508  0.1588  0.2354  0.3107
  126OSM   C11S13438   6.160   1.454   7.597 -0.3081 -1.0367 -0.0380
  126OSM   H11S13439   6.085   1.374   7.576 -2.5551  0.5890  1.3099
  126OSM   H11T13440   6.105   1.551   7.603  1.3678  0.0349 -1.2048
  126OSM   C12S13441   6.224   1.420   7.726 -0.3581 -0.7994 -0.5096
  126OSM   H12S13442   6.305   1.495   7.739  0.6176 -1.9595  0.3829
  126OSM   H12T13443   6.274   1.321   7.729  0.3094 -0.4919 -1.2442
  126OSM   C13S13444   6.131   1.422   7.844 -0.1112 -0.5451  0.2347
  126OSM   H13S13445   6.059   1.339   7.832  2.0827 -2.4093 -0.8035
  126OSM   H13T13446   6.079   1.520   7.849  2.4968  0.8817  1.1212
  126OSM   C14S13447   6.202   1.401   7.978  0.1084  0.0489 -0.7201
  126OSM   H14S13448   6.283   1.477   7.990 -0.3702  0.9637 -2.8678
  126OSM   H14T13449   6.241   1.298   7.966 -3.1820 -1.2404 -1.4189
  126OSM   C15S13450   6.119   1.399   8.107 -0.1350  0.1565  0.3660
  126OSM   H15S13451   6.036   1.329   8.087  0.8327 -0.6404 -1.0210
  126OSM   H15T13452   6.080   1.502   8.124 -2.3503 -0.6313  0.3601
  126OSM   C16S13453   6.197   1.352   8.234 -0.9928  0.3545  0.6800
  126OSM   H16S13454   6.295   1.404   8.238 -1.2211  0.9307 -0.6485
  126OSM   H16T13455   6.223   1.245   8.222  1.6156  0.8048  1.6636
  126OSM   C17S13456   6.117   1.386   8.356  0.7155  0.1878 -0.1529
  126OSM   H17S13457   6.090   1.494   8.360  0.2188  0.2583 -3.0330
  126OSM   H17T13458   6.174   1.356   8.446 -1.2325 -1.4017  0.6316
  126OSM   C18S13459   5.979   1.319   8.365 -0.1066  0.1409  0.9684
  126OSM   H18S13460   5.910   1.346   8.447 -0.4295 -1.8436  1.4061
  126OSM   H18T13461   5.976   1.209   8.351  0.2972  0.4225 -2.3596
  126OSM   H18U13462   5.916   1.355   8.281 -0.5835  0.3346  1.4076
  126OSM    C1F13463   5.766   1.175   6.824 -0.1307 -0.1904 -0.9410
  126OSM     OF13464   5.780   1.082   6.746 -0.2805  0.2212  0.1345
  126OSM    C2F13465   5.707   1.157   6.959 -0.5269 -0.0005  0.1754
  126OSM    H2F13466   5.620   1.225   6.971  0.1583  0.8669  0.3444
  126OSM    H2G13467   5.779   1.175   7.042 -2.2226  1.6924  1.3893
  126OSM    C3F13468   5.649   1.009   6.964  0.2768 -0.3851  0.0900
  126OSM    H3F13469   5.734   0.939   6.968  0.1897 -0.4613  0.6544
  126OSM    H3G13470   5.592   0.994   6.869  0.8928  0.6582 -0.4612
  126OSM    C4F13471   5.551   0.986   7.081  0.0600  0.9921  0.4804
  126OSM    H4F13472   5.506   0.886   7.065  0.5233  1.0855 -1.7011
  126OSM    H4G13473   5.471   1.063   7.075 -2.5273 -1.6251 -1.1675
  126OSM    C5F13474   5.629   0.998   7.211  0.8199  0.7193 -0.1189
  126OSM    H5F13475   5.668   1.102   7.211  0.4834  0.9076  2.5014
  126OSM    H5G13476   5.716   0.929   7.208  0.1541 -0.1138 -0.4046
  126OSM    C6F13477   5.546   0.974   7.343  0.2092  0.1520  0.7558
  126OSM    H6F13478   5.511   0.869   7.337 -2.0950  0.9695 -2.2972
  126OSM    H6G13479   5.443   1.014   7.333  0.8650  1.3849 -1.7115
  126OSM    C7F13480   5.625   1.001   7.471  0.8200 -0.6309 -1.0283
  126OSM    H7F13481   5.673   1.101   7.460 -1.8967  0.9350  0.2478
  126OSM    H7G13482   5.714   0.935   7.477  0.7282 -0.5998  1.4878
  126OSM    C8F13483   5.549   1.000   7.604 -0.2631  0.1910 -0.7693
  126OSM    H8F13484   5.623   1.027   7.682 -1.2478  0.2087  0.1848
  126OSM    H8G13485   5.503   0.899   7.612  0.7846 -0.2628 -0.2676
  126OSM    C9F13486   5.438   1.100   7.626 -0.3532 -0.6280  0.2034
  126OSM    H9F13487   5.448   1.178   7.548 -1.0259  0.0319  0.7616
  126OSM   C10F13488   5.345   1.113   7.723 -0.3976  0.7946 -0.2554
  126OSM   H10F13489   5.281   1.201   7.710  1.9786  2.9763  1.6155
  126OSM   C11F13490   5.324   1.024   7.842 -0.3957  0.2828  0.6535
  126OSM   H11F13491   5.356   0.918   7.834  0.9687  0.7714 -0.6724
  126OSM   H11G13492   5.213   1.021   7.849 -0.6602 -2.6723 -2.4569
  126OSM   C12F13493   5.401   1.070   7.965  0.9586  0.7087  0.1038
  126OSM   H12F13494   5.383   1.179   7.981 -0.9870  0.4529 -0.0998
  126OSM   H12G13495   5.512   1.076   7.957  1.1125 -0.6576  0.9515
  126OSM   C13F13496   5.364   0.994   8.091  0.0919 -0.0726 -0.5800
  126OSM   H13F13497   5.387   0.888   8.067 -0.6527 -0.5738  0.7978
  126OSM   H13G13498   5.254   0.991   8.106  0.1554  2.2085  0.8012
  126OSM   C14F13499   5.429   1.048   8.217 -0.1685  0.7359  0.0219
  126OSM   H14F13500   5.538   1.030   8.207 -0.3784  0.0505 -1.2174
  126OSM   H14G13501   5.401   0.995   8.311  1.6851 -0.5590 -0.0961
  126OSM   C15F13502   5.395   1.196   8.243 -1.1969 -0.7291  0.6825
  126OSM   H15F13503   5.285   1.191   8.253 -1.4654  2.7810  0.5778
  126OSM   H15G13504   5.426   1.263   8.160 -2.1902  0.5693  1.3261
  126OSM   C16F13505   5.455   1.254   8.376 -0.0217 -0.1224  0.1404
  126OSM   H16F13506   5.566   1.258   8.374  0.0031 -0.1764 -2.2514
  126OSM   H16G13507   5.427   1.181   8.455  2.8406  0.3568  1.7402
  126OSM   C17F13508   5.405   1.395   8.418 -0.4438  0.2261 -0.4673
  126OSM   H17F13509   5.295   1.404   8.418 -0.5375 -0.7653  0.2325
  126OSM   H17G13510   5.448   1.471   8.349  4.4784 -0.6808  1.1935
  126OSM   C18F13511   5.469   1.448   8.543 -0.3693 -0.3649 -0.6555
  126OSM   H18F13512   5.580   1.444   8.538 -0.3294  1.5442 -2.0254
  126OSM   H18G13513   5.437   1.389   8.632 -0.1688 -0.7112 -0.8090
  126OSM   H18H13514   5.447   1.553   8.568  1.9625 -0.3898  2.0659
  127OSM      N13515   5.876   2.724   6.234 -0.6249 -0.2491 -0.7559
  127OSM    C1513516   5.795   2.726   6.353 -0.1451 -0.8043 -0.5106
  127OSM   H15A13517   5.701   2.676   6.338 -1.8122  1.2973  2.0391
  127OSM   H15B13518   5.768   2.825   6.388  2.2823 -0.6833  1.2580
  127OSM   H15C13519   5.843   2.668   6.430  0.5138 -1.0347 -1.0872
  127OSM    C1413520   5.991   2.815   6.257 -0.1801 -0.4158  0.0501
  127OSM   H14A13521   5.974   2.922   6.263 -1.4478 -0.5386 -0.9237
  127OSM   H14B13522   6.054   2.805   6.170 -2.4444 -0.1845 -1.7016
  127OSM   H14C13523   6.047   2.789   6.346  0.9043  1.6995  0.0557
  127OSM    C1313524   5.938   2.587   6.217  0.3579  0.2812  0.3039
  127OSM   H13A13525   6.003   2.557   6.298  1.2401 -2.3886 -1.2711
  127OSM   H13B13526   5.998   2.590   6.127  2.0637 -0.0679  1.3823
  127OSM   H13C13527   5.858   2.514   6.209 -1.0633  1.4220  2.9244
  127OSM    C1213528   5.798   2.763   6.112 -0.6462 -0.4063  0.3547
  127OSM   H12A13529   5.862   2.744   6.026 -0.3406  0.1181  0.4612
  127OSM   H12B13530   5.788   2.870   6.114 -1.9381 -0.4246 -1.7731
  127OSM    C1113531   5.666   2.691   6.102  0.2457 -0.2033 -0.0383
  127OSM   H11A13532   5.598   2.740   6.030 -0.7751  0.0502  1.0803
  127OSM   H11B13533   5.609   2.715   6.194  1.8927  1.1591  0.6980
  127OSM      P13534   5.616   2.435   6.150 -0.1702  0.1349  0.2031
  127OSM    O1313535   5.475   2.418   6.115 -0.9972 -0.2579 -0.1644
  127OSM    O1413536   5.700   2.320   6.144  0.1674  0.7545 -0.8513
  127OSM    O1113537   5.613   2.491   6.297  0.6253 -0.1773 -0.4257
  127OSM    O1213538   5.685   2.553   6.065 -0.5063 -0.2236 -0.0446
  127OSM    C1S13539   5.663   2.411   6.408 -0.2471  0.6177  0.1464
  127OSM    H1S13540   5.773   2.423   6.418 -0.3079  1.9393 -0.4739
  127OSM    H1T13541   5.650   2.303   6.384  3.9483  0.3016 -1.3913
  127OSM     NF13542   5.686   2.401   6.647 -0.1562 -0.3069 -0.0208
  127OSM    HNF13543   5.658   2.311   6.679 -1.4421 -0.5622 -1.7076
  127OSM    C2S13544   5.602   2.445   6.544  0.9236  1.2786  0.5511
  127OSM    H2S13545   5.610   2.556   6.547  0.9099  1.2821  0.4669
  127OSM    C3S13546   5.448   2.413   6.557 -0.2034 -0.1536  0.3770
  127OSM    H3S13547   5.420   2.306   6.544 -1.7534 -0.0487  2.3830
  127OSM     O313548   5.373   2.484   6.454  0.1622 -0.6797  0.1771
  127OSM    HO313549   5.434   2.539   6.404  0.5190 -0.7074  0.5722
  127OSM    C4S13550   5.409   2.465   6.691  0.7071  0.3573  0.2437
  127OSM    H4S13551   5.417   2.574   6.699  1.4078  0.3050  0.3070
  127OSM    C5S13552   5.371   2.390   6.797  0.5285  0.6564  0.0217
  127OSM    H5S13553   5.355   2.281   6.793 -1.0483  0.8858 -0.8695
  127OSM    C6S13554   5.334   2.447   6.931  0.0910  0.5992  0.2848
  127OSM    H6S13555   5.291   2.365   6.992 -1.4564  0.7631 -0.5320
  127OSM    H6T13556   5.256   2.524   6.918  0.9350  1.2888 -0.9603
  127OSM    C7S13557   5.443   2.517   7.018  0.4603 -0.2631 -0.8477
  127OSM    H7S13558   5.492   2.600   6.964  0.2262  0.4687  0.0379
  127OSM    H7T13559   5.521   2.442   7.046 -1.3644 -1.7932  0.4286
  127OSM    C8S13560   5.395   2.550   7.160 -0.1130 -0.1401 -0.0198
  127OSM    H8S13561   5.358   2.453   7.198 -0.9522  0.3421  0.4150
  127OSM    H8T13562   5.316   2.627   7.167 -1.5872 -1.7437  1.9955
  127OSM    C9S13563   5.513   2.576   7.253 -0.5807  0.3306  0.4507
  127OSM    H9S13564   5.574   2.660   7.213 -0.3649  1.0455  2.1757
  127OSM    H9T13565   5.578   2.486   7.261  0.2455  0.9209  0.4945
  127OSM   C10S13566   5.456   2.606   7.401  1.0082  0.1406  0.1172
  127OSM   H10S13567   5.405   2.514   7.436 -1.8221  0.9963 -1.4312
  127OSM   H10T13568   5.367   2.672   7.406  0.2034 -0.8437 -0.6863
  127OSM   C11S13569   5.558   2.659   7.501 -0.0059 -0.4122 -0.1909
  127OSM   H11S13570   5.623   2.727   7.441 -2.2293  1.5625 -0.5129
  127OSM   H11T13571   5.622   2.577   7.540 -1.8722 -2.3787 -1.0578
  127OSM   C12S13572   5.504   2.742   7.620 -0.5923 -0.1993 -0.0906
  127OSM   H12S13573   5.451   2.833   7.584  0.0996  0.0150 -0.5773
  127OSM   H12T13574   5.590   2.780   7.679 -0.7124  1.3189 -0.8578
  127OSM   C13S13575   5.414   2.660   7.715 -0.3978  0.6152 -0.2425
  127OSM   H13S13576   5.453   2.557   7.722  0.6627  1.0725  0.9603
  127OSM   H13T13577   5.311   2.650   7.675 -0.2341  1.0990 -0.7926
  127OSM   C14S13578   5.416   2.726   7.854  0.4729  0.1171 -0.7452
  127OSM   H14S13579   5.331   2.670   7.899  0.0033  1.0968 -0.4007
  127OSM   H14T13580   5.391   2.834   7.848  0.4432  0.0759 -1.4470
  127OSM   C15S13581   5.547   2.712   7.925  0.5798 -0.4361  0.7939
  127OSM   H15S13582   5.571   2.811   7.968 -0.1347 -0.1083  0.4599
  127OSM   H15T13583   5.627   2.678   7.855  0.2296 -0.5155  0.4239
  127OSM   C16S13584   5.533   2.614   8.045 -0.1551  0.1731  0.4865
  127OSM   H16S13585   5.476   2.521   8.022  0.0313 -0.6639  3.0809
  127OSM   H16T13586   5.469   2.662   8.122  1.8626  2.4823  0.8365
  127OSM   C17S13587   5.663   2.575   8.118 -0.7928  0.4890  0.3930
  127OSM   H17S13588   5.726   2.661   8.150  0.4845  0.4725 -1.8674
  127OSM   H17T13589   5.728   2.529   8.040  0.6158  1.2310  1.0948
  127OSM   C18S13590   5.649   2.470   8.230 -0.4788 -0.3367 -0.5382
  127OSM   H18S13591   5.562   2.402   8.225  1.2820 -2.8815  1.0339
  127OSM   H18T13592   5.648   2.517   8.330 -2.0137  0.2503 -0.8062
  127OSM   H18U13593   5.745   2.414   8.232 -0.9243 -1.1080 -0.5652
  127OSM    C1F13594   5.812   2.441   6.674 -0.2188 -0.1596  0.8576
  127OSM     OF13595   5.858   2.540   6.623 -0.3419 -0.3150 -0.6089
  127OSM    C2F13596   5.895   2.346   6.750 -0.6393  1.1182 -0.5653
  127OSM    H2F13597   5.989   2.340   6.692 -0.2718 -1.8680  0.1483
  127OSM    H2G13598   5.853   2.243   6.746  2.1022 -0.2547  2.1666
  127OSM    C3F13599   5.912   2.390   6.895 -0.2774  0.4175  0.1497
  127OSM    H3F13600   5.813   2.376   6.942 -1.1073  0.2201 -1.5901
  127OSM    H3G13601   5.949   2.495   6.893  1.8170 -0.2221  1.5774
  127OSM    C4F13602   6.020   2.307   6.959  0.5357  0.3846  0.2911
  127OSM    H4F13603   6.101   2.290   6.885  0.5328  1.3498  0.0527
  127OSM    H4G13604   5.968   2.213   6.986  1.2285  0.8310  3.5483
  127OSM    C5F13605   6.078   2.368   7.088 -0.2500  0.2049 -0.9122
  127OSM    H5F13606   6.113   2.471   7.063 -2.6436  1.4403  0.4039
  127OSM    H5G13607   6.172   2.318   7.119  0.0719 -0.1149 -2.3308
  127OSM    C6F13608   5.982   2.391   7.207  0.0286 -0.6999 -0.8524
  127OSM    H6F13609   5.894   2.443   7.163 -0.6481 -2.1822 -1.3192
  127OSM    H6G13610   6.033   2.462   7.275 -0.4316  1.0033 -2.2149
  127OSM    C7F13611   5.929   2.263   7.287 -0.2907  0.1259 -0.2836
  127OSM    H7F13612   6.014   2.231   7.351 -0.7977  1.6692  1.2446
  127OSM    H7G13613   5.896   2.180   7.222 -1.4783  1.1609 -1.0218
  127OSM    C8F13614   5.805   2.300   7.378  1.1122 -0.0747  0.1879
  127OSM    H8F13615   5.754   2.207   7.409  1.1999  0.5760  2.4281
  127OSM    H8G13616   5.739   2.363   7.313 -1.1926 -0.6292  1.8668
  127OSM    C9F13617   5.840   2.382   7.498 -0.7593 -0.0142  0.1316
  127OSM    H9F13618   5.831   2.491   7.491  0.4572 -0.0012 -2.2610
  127OSM   C10F13619   5.913   2.329   7.597  0.5322 -0.8151  0.0405
  127OSM   H10F13620   5.916   2.394   7.686 -0.8511  1.6023 -1.5596
  127OSM   C11F13621   5.975   2.191   7.624  0.4266  0.0268 -0.1306
  127OSM   H11F13622   6.085   2.206   7.618  0.3739  1.7693  1.9840
  127OSM   H11G13623   5.950   2.122   7.541 -2.1347 -0.2105  0.7544
  127OSM   C12F13624   5.949   2.116   7.759 -0.4105 -0.2088 -0.4779
  127OSM   H12F13625   5.990   2.013   7.756 -1.2528 -0.5378 -0.9959
  127OSM   H12G13626   5.839   2.112   7.774 -0.4032 -1.1378 -0.5875
  127OSM   C13F13627   6.012   2.163   7.892 -0.4725 -0.4038  0.2277
  127OSM   H13F13628   6.109   2.214   7.873  0.3237 -1.2221  1.8360
  127OSM   H13G13629   6.031   2.075   7.958  1.6153 -0.0171  0.1889
  127OSM   C14F13630   5.924   2.271   7.969 -0.8399 -0.1624  0.0424
  127OSM   H14F13631   5.823   2.229   7.987 -1.4199  1.5817  1.0906
  127OSM   H14G13632   5.925   2.357   7.899  3.2458 -0.9848 -1.1693
  127OSM   C15F13633   6.001   2.325   8.096  0.3777  0.6506 -0.3291
  127OSM   H15F13634   5.944   2.414   8.129 -1.1545 -0.8479  1.2483
  127OSM   H15G13635   6.106   2.347   8.066  0.4962 -2.0877 -2.3068
  127OSM   C16F13636   5.983   2.221   8.207 -0.3837  0.0930  0.0354
  127OSM   H16F13637   6.029   2.127   8.168  0.2978  0.5603 -0.3149
  127OSM   H16G13638   5.876   2.198   8.225  0.2193 -1.4417  2.0251
  127OSM   C17F13639   6.063   2.267   8.331  0.3032  0.3092  0.2286
  127OSM   H17F13640   6.019   2.366   8.355 -2.4199 -0.7855  0.1145
  127OSM   H17G13641   6.169   2.291   8.307  1.1264 -1.3204  2.0307
  127OSM   C18F13642   6.057   2.175   8.453  0.4169 -0.3717 -0.3993
  127OSM   H18F13643   6.103   2.076   8.435  0.1761 -0.4924 -0.3602
  127OSM   H18G13644   5.949   2.161   8.475  0.6017 -0.4447  0.4913
  127OSM   H18H13645   6.105   2.230   8.537 -0.1777 -1.7013  0.8507
  128OSM      N13646   5.563   6.014   5.910 -0.4779  0.0815 -0.4623
  128OSM    C1513647   5.544   6.161   5.925  0.5208 -0.2279  0.0256
  128OSM   H15A13648   5.553   6.218   5.833  1.7659 -0.9871 -0.3497
  128OSM   H15B13649   5.612   6.205   5.996  0.0869  0.1921  0.1889
  128OSM   H15C13650   5.456   6.190   5.980 -0.7984 -1.6344 -1.2662
  128OSM    C1413651   5.480   5.957   5.802 -0.3210  0.2575 -0.4829
  128OSM   H14A13652   5.518   5.861   5.770 -0.5417 -0.5286  1.4658
  128OSM   H14B13653   5.475   6.022   5.715 -2.3140 -1.0569 -1.4283
  128OSM   H14C13654   5.382   5.938   5.844 -0.7658  0.9324 -1.1758
  128OSM    C1313655   5.708   5.997   5.876 -0.6616 -0.2049  0.5323
  128OSM   H13A13656   5.770   6.033   5.957 -1.3825  0.9036  0.6070
  128OSM   H13B13657   5.723   6.055   5.786  0.2097  0.5320  1.1281
  128OSM   H13C13658   5.735   5.894   5.856 -1.7330 -0.7677  1.8660
  128OSM    C1213659   5.537   5.938   6.038 -0.1134 -0.3087 -0.3939
  128OSM   H12A13660   5.624   5.957   6.099  0.9096  2.4661 -2.5428
  128OSM   H12B13661   5.537   5.831   6.021  2.3674 -0.4196 -0.0148
  128OSM    C1113662   5.410   5.986   6.118 -0.2965 -0.0498 -0.4374
  128OSM   H11A13663   5.430   6.085   6.164 -2.0781 -0.0837  0.4841
  128OSM   H11B13664   5.391   5.926   6.210 -0.5395  0.6158 -0.0451
  128OSM      P13665   5.196   6.119   6.040 -0.1615 -0.1713 -0.3165
  128OSM    O1313666   5.250   6.236   5.966 -0.0957 -0.2444 -0.2052
  128OSM    O1413667   5.068   6.065   5.989  0.2406 -0.6049 -0.0777
  128OSM    O1113668   5.172   6.163   6.190  0.6115  0.4375 -0.5958
  128OSM    O1213669   5.293   5.999   6.039  0.0766  0.3953  0.0835
  128OSM    C1S13670   5.055   6.226   6.247 -0.1085 -0.7368  0.1469
  128OSM    H1S13671   4.969   6.170   6.205 -0.3233  0.2659 -0.8156
  128OSM    H1T13672   5.035   6.333   6.221  0.1786 -0.2866  1.7108
  128OSM     NF13673   4.921   6.252   6.461 -0.6075  0.0707  1.2790
  128OSM    HNF13674   4.926   6.333   6.518 -1.4690  0.4648  0.8168
  128OSM    C2S13675   5.051   6.211   6.404 -0.9818 -0.5149 -0.5261
  128OSM    H2S13676   5.068   6.103   6.422 -1.7194 -0.6421 -0.5714
  128OSM    C3S13677   5.176   6.293   6.467  0.2910  0.9485  0.0730
  128OSM    H3S13678   5.166   6.402   6.449  2.1217  0.8286 -2.2380
  128OSM     O313679   5.301   6.254   6.417 -0.3543 -0.2475 -0.0046
  128OSM    HO313680   5.278   6.211   6.334  2.6812 -1.9322 -0.1574
  128OSM    C4S13681   5.183   6.265   6.614 -0.1849  0.1916 -0.1820
  128OSM    H4S13682   5.232   6.168   6.627 -0.3992 -0.1252 -1.5971
  128OSM    C5S13683   5.141   6.339   6.722  0.0562 -0.9226  0.1689
  128OSM    H5S13684   5.091   6.435   6.702  1.2115 -0.1231  0.9891
  128OSM    C6S13685   5.147   6.312   6.866 -0.5415  0.4446 -0.7246
  128OSM    H6S13686   5.051   6.267   6.900 -0.0111 -1.5372 -1.7471
  128OSM    H6T13687   5.164   6.409   6.919 -0.4391 -0.1097  0.2910
  128OSM    C7S13688   5.245   6.205   6.928  0.0687  0.3906  0.7428
  128OSM    H7S13689   5.349   6.246   6.929  0.8906 -1.5429 -0.0952
  128OSM    H7T13690   5.252   6.107   6.876  0.6258 -0.4857  2.3992
  128OSM    C8S13691   5.207   6.161   7.071 -0.2915  0.1025 -0.0210
  128OSM    H8S13692   5.124   6.087   7.068 -2.0649  2.0088 -0.4727
  128OSM    H8T13693   5.150   6.250   7.108  0.1588  0.5083 -0.2950
  128OSM    C9S13694   5.329   6.123   7.159 -0.2519  0.4513 -0.0981
  128OSM    H9S13695   5.419   6.184   7.133 -0.0446  0.4763  0.6429
  128OSM    H9T13696   5.356   6.018   7.134 -1.4575  0.7646 -3.1795
  128OSM   C10S13697   5.310   6.145   7.310  0.3958  0.6257  0.4690
  128OSM   H10S13698   5.218   6.093   7.344 -0.6988  1.4460 -1.0800
  128OSM   H10T13699   5.302   6.255   7.327  1.9709  0.4934  2.4009
  128OSM   C11S13700   5.431   6.093   7.385 -0.1205 -0.2584  0.0127
  128OSM   H11S13701   5.523   6.138   7.343 -0.8270 -0.2084 -1.5408
  128OSM   H11T13702   5.433   5.984   7.366 -0.8668 -0.3841  0.5822
  128OSM   C12S13703   5.409   6.119   7.536 -1.2043 -0.0251  0.1379
  128OSM   H12S13704   5.309   6.088   7.576 -0.7402 -1.3363  0.3355
  128OSM   H12T13705   5.422   6.229   7.534 -1.4926 -0.0032 -0.8602
  128OSM   C13S13706   5.528   6.060   7.610  0.1225  0.2586 -0.0914
  128OSM   H13S13707   5.615   6.071   7.541 -0.0359  0.4936 -0.2577
  128OSM   H13T13708   5.505   5.952   7.619  0.9454  0.1481  0.8078
  128OSM   C14S13709   5.551   6.123   7.749 -0.2127 -0.4022  0.5109
  128OSM   H14S13710   5.571   6.230   7.730  1.1186 -1.1877 -3.3246
  128OSM   H14T13711   5.631   6.068   7.804 -0.5459 -0.8031  0.6080
  128OSM   C15S13712   5.424   6.109   7.841 -0.5137  0.3834  0.0229
  128OSM   H15S13713   5.402   6.001   7.849  1.0420  0.0443  0.0864
  128OSM   H15T13714   5.334   6.163   7.803  0.3987  2.4809  0.7124
  128OSM   C16S13715   5.447   6.168   7.982  0.0770  0.3346  0.3713
  128OSM   H16S13716   5.508   6.261   7.981  1.5358 -0.5825 -1.1231
  128OSM   H16T13717   5.504   6.095   8.043 -1.9983 -0.8367  1.0169
  128OSM   C17S13718   5.316   6.182   8.050 -0.1773 -0.5817 -0.7717
  128OSM   H17S13719   5.282   6.080   8.080  0.3763 -0.5196  0.0842
  128OSM   H17T13720   5.229   6.218   7.991 -3.1819 -2.1891  2.2630
  128OSM   C18S13721   5.337   6.257   8.179  0.9756 -0.1514 -0.3158
  128OSM   H18S13722   5.248   6.257   8.245  0.6274  2.8975 -0.6449
  128OSM   H18T13723   5.356   6.366   8.163  1.3626 -0.4807 -2.3210
  128OSM   H18U13724   5.430   6.217   8.224  2.2072  2.7264 -0.0513
  128OSM    C1F13725   4.810   6.189   6.445  0.0089 -0.6986 -1.0809
  128OSM     OF13726   4.795   6.096   6.366 -0.3671 -0.0941  0.4678
  128OSM    C2F13727   4.697   6.226   6.539 -0.2300  0.1180  0.7226
  128OSM    H2F13728   4.607   6.169   6.506 -0.5039 -0.2140  2.0011
  128OSM    H2G13729   4.672   6.334   6.533 -1.6087 -0.2493 -2.4699
  128OSM    C3F13730   4.734   6.197   6.683 -0.0598  0.1110  0.2506
  128OSM    H3F13731   4.656   6.249   6.743 -2.2068 -0.1255 -2.1504
  128OSM    H3G13732   4.834   6.238   6.706 -0.4248  0.9251  0.4168
  128OSM    C4F13733   4.736   6.050   6.719 -0.7221 -0.7154  0.2810
  128OSM    H4F13734   4.809   6.008   6.646 -0.3010 -0.7634  0.7268
  128OSM    H4G13735   4.644   5.990   6.705  1.0420 -3.4546 -0.3419
  128OSM    C5F13736   4.784   6.023   6.859  0.2492  0.4649 -0.6128
  128OSM    H5F13737   4.885   6.068   6.872  0.1334  0.8450 -1.0050
  128OSM    H5G13738   4.797   5.916   6.885  0.9043  0.4912 -0.8244
  128OSM    C6F13739   4.674   6.077   6.960 -0.0375 -0.0273  0.1101
  128OSM    H6F13740   4.641   6.181   6.940  0.0729  0.2800  1.4359
  128OSM    H6G13741   4.714   6.076   7.063 -2.2443 -0.3872  1.0127
  128OSM    C7F13742   4.554   5.987   6.991 -0.5857 -0.1154  0.7509
  128OSM    H7F13743   4.598   5.888   7.019 -0.1527 -0.8443 -2.1363
  128OSM    H7G13744   4.494   5.963   6.901 -1.4559  0.6500  1.1200
  128OSM    C8F13745   4.471   6.046   7.111  0.4090  0.4100 -0.8744
  128OSM    H8F13746   4.418   6.137   7.074 -1.5665  0.1446  1.1297
  128OSM    H8G13747   4.535   6.075   7.197 -0.1239 -0.2557 -0.2394
  128OSM    C9F13748   4.377   5.936   7.160  0.1085 -0.4248  0.1734
  128OSM    H9F13749   4.288   5.904   7.105  0.3247 -1.4954  0.4320
  128OSM   C10F13750   4.377   5.890   7.287  0.4409  0.0338 -0.4407
  128OSM   H10F13751   4.294   5.824   7.316  0.5089 -0.2358 -0.8359
  128OSM   C11F13752   4.467   5.930   7.398  0.8009  0.3974  0.0418
  128OSM   H11F13753   4.503   6.035   7.398  1.1878  0.2750 -1.2983
  128OSM   H11G13754   4.564   5.878   7.380  0.7016  0.6949 -1.4009
  128OSM   C12F13755   4.406   5.899   7.536  0.1391  0.6387  0.3786
  128OSM   H12F13756   4.372   5.794   7.530  1.3484  0.2478 -0.1110
  128OSM   H12G13757   4.313   5.956   7.555  0.0724 -0.4069  3.9479
  128OSM   C13F13758   4.496   5.915   7.654 -0.1802 -0.3849 -0.1973
  128OSM   H13F13759   4.531   6.021   7.655 -0.0858 -0.4129  1.1738
  128OSM   H13G13760   4.580   5.843   7.641 -1.0438 -1.4968  0.2780
  128OSM   C14F13761   4.418   5.901   7.793 -0.9798 -0.3922  0.4207
  128OSM   H14F13762   4.376   5.798   7.787 -0.7606 -0.5194  0.9677
  128OSM   H14G13763   4.342   5.981   7.783  0.0153  0.5560  0.2634
  128OSM   C15F13764   4.510   5.923   7.915  0.5604  0.4312 -0.6738
  128OSM   H15F13765   4.567   6.018   7.925  3.4030 -1.2284 -0.0562
  128OSM   H15G13766   4.590   5.848   7.900 -0.0625 -0.5142  0.5794
  128OSM   C16F13767   4.430   5.896   8.052  0.4649 -0.7945  0.5959
  128OSM   H16F13768   4.387   5.794   8.036 -0.6405 -0.3069  0.3306
  128OSM   H16G13769   4.345   5.967   8.053  0.5272 -0.5480 -2.4513
  128OSM   C17F13770   4.522   5.890   8.169 -0.3724 -0.6812 -0.0653
  128OSM   H17F13771   4.584   5.983   8.170 -0.4438 -0.6196  1.2752
  128OSM   H17G13772   4.590   5.804   8.156 -0.9994 -2.0005  3.8929
  128OSM   C18F13773   4.438   5.879   8.303  0.4557 -0.2733  0.3138
  128OSM   H18F13774   4.367   5.962   8.317 -0.8331 -0.8546 -2.2500
  128OSM   H18G13775   4.516   5.866   8.381 -0.0481  0.9393  1.0470
  128OSM   H18H13776   4.370   5.792   8.295 -0.5321  0.5932 -0.9148
  129OSM      N13777   2.224   2.468   5.926 -0.7296  0.1739  0.0107
  129OSM    C1513778   2.085   2.511   5.911  0.1360  0.1446  0.0322
  129OSM   H15A13779   2.051   2.492   5.811  0.1627  1.1583 -0.1799
  129OSM   H15B13780   2.081   2.617   5.932  2.3070 -0.1107  2.2774
  129OSM   H15C13781   2.023   2.449   5.974  0.0011  1.9096  1.7391
  129OSM    C1413782   2.239   2.315   5.908 -0.3468 -0.6483 -0.3686
  129OSM   H14A13783   2.344   2.293   5.916 -0.0820  0.4637 -0.5895
  129OSM   H14B13784   2.199   2.285   5.812  0.1954  0.1853 -0.8722
  129OSM   H14C13785   2.184   2.256   5.979  1.1113 -0.1925  1.1981
  129OSM    C1313786   2.299   2.538   5.814 -0.4254 -0.3013  0.0103
  129OSM   H13A13787   2.394   2.492   5.793 -1.0266 -1.8990  0.5656
  129OSM   H13B13788   2.328   2.634   5.854  1.1110 -0.2565 -1.1373
  129OSM   H13C13789   2.254   2.541   5.716  4.6311  1.3026 -2.6034
  129OSM    C1213790   2.271   2.496   6.066  0.3171 -0.1389  0.1295
  129OSM   H12A13791   2.367   2.447   6.078 -0.1058 -0.7937  0.9633
  129OSM   H12B13792   2.213   2.456   6.148  1.3269  2.0198  2.0233
  129OSM    C1113793   2.302   2.644   6.100 -0.0280  0.5147  0.3408
  129OSM   H11A13794   2.290   2.666   6.208 -1.4428 -1.2162  0.5846
  129OSM   H11B13795   2.225   2.710   6.054 -1.5304 -0.9471  0.6593
  129OSM      P13796   2.561   2.628   6.127  0.2718 -0.3457  0.1137
  129OSM    O1313797   2.632   2.550   6.019  0.6358  0.2819 -0.0955
  129OSM    O1413798   2.632   2.746   6.179 -0.5948  0.6808 -0.0569
  129OSM    O1113799   2.516   2.522   6.240  0.1812  0.2893 -0.2917
  129OSM    O1213800   2.429   2.678   6.059 -0.1313 -0.0352  0.2073
  129OSM    C1S13801   2.549   2.563   6.376  0.0190 -0.2268  0.5878
  129OSM    H1S13802   2.511   2.664   6.400  0.2756 -0.2265  0.9966
  129OSM    H1T13803   2.655   2.541   6.399  0.1848  0.7954  0.8565
  129OSM     NF13804   2.460   2.526   6.605 -0.2321  0.2557  0.0339
  129OSM    HNF13805   2.508   2.467   6.670 -0.4102  1.0435  0.9020
  129OSM    C2S13806   2.466   2.467   6.471 -0.2752  0.4374  0.1721
  129OSM    H2S13807   2.365   2.467   6.424 -0.7117  3.1700  0.9637
  129OSM    C3S13808   2.530   2.324   6.463 -0.0399 -0.5003 -0.1548
  129OSM    H3S13809   2.640   2.337   6.471  0.1155 -0.5144 -1.8762
  129OSM     O313810   2.524   2.268   6.329  0.7958 -0.1186  0.1091
  129OSM    HO313811   2.533   2.335   6.260 -1.0778  1.5289  1.3705
  129OSM    C4S13812   2.481   2.221   6.570 -0.5412  0.3167  0.5221
  129OSM    H4S13813   2.371   2.216   6.570 -0.4872 -1.4726  1.2962
  129OSM    C5S13814   2.562   2.132   6.646  0.2544 -0.8138 -0.3209
  129OSM    H5S13815   2.670   2.153   6.638  0.2993 -0.6549  0.5808
  129OSM    C6S13816   2.509   2.024   6.735 -0.3766 -0.6687  0.5822
  129OSM    H6S13817   2.577   2.020   6.823 -0.3371 -1.4487  0.5284
  129OSM    H6T13818   2.516   1.926   6.682  0.4095  0.4674 -1.5433
  129OSM    C7S13819   2.369   2.050   6.787 -0.2331  0.2165 -0.3684
  129OSM    H7S13820   2.302   2.062   6.699 -0.8205 -3.5918 -0.6216
  129OSM    H7T13821   2.371   2.138   6.855 -0.0420 -0.9628  1.2273
  129OSM    C8S13822   2.291   1.932   6.853  0.0719 -0.3970 -0.4665
  129OSM    H8S13823   2.284   1.850   6.779 -0.1621  0.2839 -1.2213
  129OSM    H8T13824   2.182   1.952   6.857  0.1641  0.0351  0.1097
  129OSM    C9S13825   2.356   1.895   6.987  0.2082  0.0882  0.0977
  129OSM    H9S13826   2.381   1.979   7.056 -1.5650 -0.3599  1.3645
  129OSM    H9T13827   2.453   1.847   6.963  0.0220 -1.1503  1.6438
  129OSM   C10S13828   2.261   1.808   7.068  0.0393  0.6565 -0.5649
  129OSM   H10S13829   2.249   1.720   7.001  1.1340 -0.4905  0.6713
  129OSM   H10T13830   2.160   1.852   7.079 -0.0725  0.4110 -0.5874
  129OSM   C11S13831   2.329   1.758   7.194 -0.1968 -0.3999 -0.0173
  129OSM   H11S13832   2.379   1.846   7.239 -0.1841 -0.4244  0.0170
  129OSM   H11T13833   2.413   1.689   7.171 -0.0727 -0.1729 -0.2385
  129OSM   C12S13834   2.245   1.693   7.299  0.8183 -0.0757 -0.0727
  129OSM   H12S13835   2.231   1.585   7.275 -0.6601  0.0955 -0.1136
  129OSM   H12T13836   2.141   1.733   7.290  0.6889 -0.5301 -0.7484
  129OSM   C13S13837   2.300   1.711   7.441 -0.5460  0.1709  0.1103
  129OSM   H13S13838   2.255   1.807   7.473 -0.7336  0.3042 -0.5277
  129OSM   H13T13839   2.410   1.729   7.444 -0.1527 -1.9774  3.9506
  129OSM   C14S13840   2.265   1.607   7.543 -0.2473  0.3878  0.0773
  129OSM   H14S13841   2.289   1.504   7.508  2.0366  0.1638  2.0761
  129OSM   H14T13842   2.156   1.603   7.563 -0.1749  1.5202  0.7299
  129OSM   C15S13843   2.317   1.629   7.686  0.0052  0.4025 -0.0156
  129OSM   H15S13844   2.265   1.720   7.726 -2.3170 -1.3476  1.1798
  129OSM   H15T13845   2.426   1.653   7.682  0.7542 -2.7119 -0.3842
  129OSM   C16S13846   2.279   1.522   7.789 -0.3359  0.1633 -0.1455
  129OSM   H16S13847   2.333   1.425   7.787 -2.3903 -1.0405  0.3284
  129OSM   H16T13848   2.169   1.511   7.776 -0.4816  0.4978  0.7457
  129OSM   C17S13849   2.294   1.574   7.943  1.3414  0.0057 -0.1910
  129OSM   H17S13850   2.243   1.673   7.947 -0.1296 -0.7827  2.8559
  129OSM   H17T13851   2.404   1.592   7.954  1.4377  0.7776 -2.0105
  129OSM   C18S13852   2.240   1.485   8.051  0.2757  0.6766 -0.0469
  129OSM   H18S13853   2.138   1.465   8.012  0.4585 -1.0133  0.2608
  129OSM   H18T13854   2.226   1.535   8.149  0.9167  1.6383 -0.4260
  129OSM   H18U13855   2.300   1.393   8.069 -0.9615  0.0114  0.7861
  129OSM    C1F13856   2.386   2.635   6.642 -0.6324 -0.1328  0.2387
  129OSM     OF13857   2.329   2.698   6.554  0.0466 -0.2479  0.3744
  129OSM    C2F13858   2.378   2.667   6.794  0.4981  0.7690 -0.2866
  129OSM    H2F13859   2.484   2.655   6.826  0.4468 -1.1676 -0.7162
  129OSM    H2G13860   2.303   2.595   6.833  0.9877 -0.8359 -2.1163
  129OSM    C3F13861   2.321   2.817   6.820  0.3450  0.6058  0.4816
  129OSM    H3F13862   2.219   2.826   6.778 -0.7201  0.8830  2.9512
  129OSM    H3G13863   2.397   2.882   6.771  2.3775 -1.3794  0.8254
  129OSM    C4F13864   2.314   2.839   6.972  0.5913  0.1446 -0.0088
  129OSM    H4F13865   2.283   2.945   6.984  1.2342  0.2975  0.3454
  129OSM    H4G13866   2.404   2.843   7.036  0.2876 -1.7508  0.5954
  129OSM    C5F13867   2.204   2.752   7.038 -0.0875 -0.1608 -0.0590
  129OSM    H5F13868   2.229   2.644   7.046  1.9655  0.2648  0.0207
  129OSM    H5G13869   2.114   2.756   6.973  2.2566  3.6173 -3.6091
  129OSM    C6F13870   2.182   2.811   7.180  0.4429  0.7145 -0.2518
  129OSM    H6F13871   2.116   2.900   7.190  0.6317  1.2040 -2.7093
  129OSM    H6G13872   2.281   2.845   7.218 -0.6575  0.6614  2.9585
  129OSM    C7F13873   2.134   2.698   7.276 -0.4698 -0.3375 -0.3533
  129OSM    H7F13874   2.194   2.605   7.288 -0.4197 -0.0974  1.6539
  129OSM    H7G13875   2.033   2.669   7.240 -2.1170  2.2885  1.7398
  129OSM    C8F13876   2.112   2.756   7.417  0.4386 -0.4991 -0.1971
  129OSM    H8F13877   2.050   2.847   7.403 -0.0660 -0.7091  0.5858
  129OSM    H8G13878   2.209   2.789   7.459  0.9419 -0.2195 -1.5354
  129OSM    C9F13879   2.036   2.654   7.500  1.0831  0.6260  0.5748
  129OSM    H9F13880   1.945   2.619   7.448  2.4012 -1.7223 -0.2804
  129OSM   C10F13881   2.077   2.586   7.606  0.0605 -0.5391  1.0311
  129OSM   H10F13882   2.016   2.512   7.659  0.3598 -0.7670  1.0643
  129OSM   C11F13883   2.215   2.598   7.666 -0.5783 -0.4452 -0.6342
  129OSM   H11F13884   2.296   2.631   7.597 -0.8376  1.8376  0.1020
  129OSM   H11G13885   2.256   2.495   7.675  0.9992  0.0351 -1.9226
  129OSM   C12F13886   2.205   2.686   7.799  0.6888  0.5319  0.3123
  129OSM   H12F13887   2.134   2.771   7.794 -0.0391 -0.1225 -1.3696
  129OSM   H12G13888   2.304   2.720   7.836 -0.3481  2.1514  1.7515
  129OSM   C13F13889   2.142   2.610   7.926 -0.2647 -0.0085  0.2570
  129OSM   H13F13890   2.050   2.554   7.902  0.1721 -0.4728 -0.3710
  129OSM   H13G13891   2.123   2.688   8.004 -0.5770  1.0228 -0.8247
  129OSM   C14F13892   2.243   2.520   8.000  0.3238 -0.1325  1.1385
  129OSM   H14F13893   2.344   2.564   7.986  1.0053 -2.0451 -0.4308
  129OSM   H14G13894   2.243   2.421   7.949 -0.5502  0.5823 -0.3235
  129OSM   C15F13895   2.205   2.498   8.144 -0.0022 -0.0881  0.2283
  129OSM   H15F13896   2.124   2.422   8.149  0.6839 -0.8224  0.4874
  129OSM   H15G13897   2.165   2.588   8.195  1.3561  0.2675  0.7124
  129OSM   C16F13898   2.328   2.450   8.220 -0.2088 -0.0028  0.3678
  129OSM   H16F13899   2.415   2.506   8.180  0.0103 -1.0662 -0.7164
  129OSM   H16G13900   2.337   2.342   8.197 -1.5700 -0.2232  0.7532
  129OSM   C17F13901   2.317   2.467   8.372  0.2630  0.7022 -0.2583
  129OSM   H17F13902   2.344   2.573   8.392 -0.5972  0.5521  1.9585
  129OSM   H17G13903   2.395   2.402   8.418 -0.6387  0.3083  0.7592
  129OSM   C18F13904   2.183   2.436   8.438 -0.5389 -0.1116  0.3989
  129OSM   H18F13905   2.103   2.501   8.397  1.7826  2.8784  0.2394
  129OSM   H18G13906   2.190   2.457   8.546  1.9404  2.3661 -0.1208
  129OSM   H18H13907   2.155   2.332   8.408 -0.3165  0.4202 -1.8865
  130OSM      N13908   2.996   5.204   6.142  0.1229  0.3000  0.0462
  130OSM    C1513909   2.905   5.185   6.254 -0.3420  0.7122  0.4467
  130OSM   H15A13910   2.806   5.204   6.215 -0.9364 -2.0842  0.3261
  130OSM   H15B13911   2.924   5.251   6.337 -0.8486 -0.5017  1.5678
  130OSM   H15C13912   2.906   5.085   6.297 -0.9380 -0.6949 -2.5530
  130OSM    C1413913   2.997   5.090   6.040  1.1560  0.0569 -0.8512
  130OSM   H14A13914   3.033   4.997   6.081 -0.7400 -0.1105  0.5507
  130OSM   H14B13915   3.051   5.117   5.950 -0.5572  1.7144 -1.4537
  130OSM   H14C13916   2.897   5.076   6.001  1.0123 -0.3116 -0.3587
  130OSM    C1313917   2.939   5.315   6.063  0.1156 -0.6817 -0.5825
  130OSM   H13A13918   2.923   5.400   6.128 -0.3964 -1.8690  0.8999
  130OSM   H13B13919   2.847   5.283   6.018  0.1550 -0.1146 -1.0823
  130OSM   H13C13920   3.012   5.352   5.992  2.5428 -0.1593  2.0043
  130OSM    C1213921   3.142   5.219   6.172 -0.2884  0.6861  0.1371
  130OSM   H12A13922   3.196   5.220   6.078 -2.4432  1.8490 -1.1671
  130OSM   H12B13923   3.168   5.132   6.230 -0.7100 -0.1108 -0.8453
  130OSM    C1113924   3.182   5.344   6.261 -0.6735 -0.2925  0.4959
  130OSM   H11A13925   3.288   5.317   6.280 -0.2866  1.0982  0.3524
  130OSM   H11B13926   3.143   5.342   6.365  2.2665 -3.2497  1.7520
  130OSM      P13927   3.235   5.523   6.076 -0.3601  0.0857 -0.0995
  130OSM    O1313928   3.331   5.417   6.030  0.1257  0.3536 -0.0889
  130OSM    O1413929   3.141   5.577   5.975 -0.4522 -0.3168 -0.1648
  130OSM    O1113930   3.317   5.642   6.143  0.1986  0.1074  0.4338
  130OSM    O1213931   3.147   5.469   6.194  0.1336 -0.5274  0.0772
  130OSM    C1S13932   3.273   5.741   6.225  0.3797  0.0302 -0.3632
  130OSM    H1S13933   3.168   5.769   6.202  0.2832 -1.3432 -1.7346
  130OSM    H1T13934   3.340   5.830   6.229 -0.2358  0.4984 -0.4655
  130OSM     NF13935   3.207   5.803   6.454  0.1703 -0.0903  0.4361
  130OSM    HNF13936   3.265   5.882   6.473 -0.1746  0.4182 -0.5648
  130OSM    C2S13937   3.272   5.694   6.373  0.5101 -0.1665 -0.1359
  130OSM    H2S13938   3.209   5.604   6.383  1.3321 -0.7893 -0.4574
  130OSM    C3S13939   3.415   5.654   6.426  0.1915  0.1532 -0.7475
  130OSM    H3S13940   3.473   5.747   6.409 -1.6280  1.8686  1.6395
  130OSM     O313941   3.474   5.548   6.348 -0.2974 -0.3731  0.2226
  130OSM    HO313942   3.432   5.566   6.263  1.5536  1.2537 -0.4083
  130OSM    C4S13943   3.407   5.628   6.571  0.1302 -0.4959 -0.4790
  130OSM    H4S13944   3.405   5.714   6.640  1.7600 -1.2657  0.5892
  130OSM    C5S13945   3.404   5.504   6.634  0.1716 -0.2051 -0.2908
  130OSM    H5S13946   3.406   5.410   6.576  3.1902 -0.2923 -0.2120
  130OSM    C6S13947   3.400   5.479   6.780 -0.4359  0.4457  0.8487
  130OSM    H6S13948   3.501   5.437   6.800  0.0573  0.4739 -1.3128
  130OSM    H6T13949   3.322   5.403   6.799  1.3095 -1.4574  0.7933
  130OSM    C7S13950   3.373   5.600   6.864  0.1835 -0.7321 -0.2704
  130OSM    H7S13951   3.269   5.632   6.843  0.1267  0.1850  1.2758
  130OSM    H7T13952   3.446   5.679   6.838  1.7617 -0.9632  2.9372
  130OSM    C8S13953   3.379   5.569   7.017 -0.3625  0.2885 -0.0190
  130OSM    H8S13954   3.478   5.527   7.043 -0.6937 -0.6133 -0.2035
  130OSM    H8T13955   3.310   5.487   7.043 -0.9117  0.5387 -0.6660
  130OSM    C9S13956   3.361   5.691   7.108  0.1472  0.3505 -0.1084
  130OSM    H9S13957   3.273   5.752   7.080 -0.0234  1.2980  2.2251
  130OSM    H9T13958   3.457   5.747   7.095  0.3037  0.4758  1.4036
  130OSM   C10S13959   3.360   5.658   7.249 -0.1276  0.0274  0.3638
  130OSM   H10S13960   3.390   5.552   7.268 -0.4099 -0.2845 -0.8317
  130OSM   H10T13961   3.256   5.667   7.288  0.3238  1.7554  1.2493
  130OSM   C11S13962   3.450   5.748   7.330  0.9789  1.0051 -0.3244
  130OSM   H11S13963   3.405   5.849   7.323  2.4511  1.7368  0.1378
  130OSM   H11T13964   3.552   5.749   7.286  1.3610 -0.2752  0.4703
  130OSM   C12S13965   3.486   5.697   7.471 -0.2544 -0.0854 -0.2500
  130OSM   H12S13966   3.560   5.617   7.447  0.9845  1.1186 -0.5649
  130OSM   H12T13967   3.397   5.651   7.519 -0.6911  1.5872  0.6197
  130OSM   C13S13968   3.538   5.809   7.563  0.0849  0.4120  0.0020
  130OSM   H13S13969   3.468   5.895   7.572  0.5964  0.7467  0.8742
  130OSM   H13T13970   3.633   5.849   7.521 -0.1407  1.4027  0.4124
  130OSM   C14S13971   3.564   5.753   7.699 -0.5020 -0.4376 -0.6553
  130OSM   H14S13972   3.506   5.662   7.725 -1.5860  0.4843  0.2780
  130OSM   H14T13973   3.528   5.832   7.768 -0.6323 -0.5318 -0.6142
  130OSM   C15S13974   3.713   5.718   7.730  0.1213 -1.0487 -1.0916
  130OSM   H15S13975   3.773   5.807   7.704  0.9662 -1.9994 -2.5264
  130OSM   H15T13976   3.729   5.640   7.652  0.2389 -1.5979 -0.5324
  130OSM   C16S13977   3.727   5.665   7.873  0.2504 -0.3793  0.5894
  130OSM   H16S13978   3.659   5.577   7.874 -0.0333 -0.1804 -0.3676
  130OSM   H16T13979   3.675   5.736   7.941 -3.7828 -2.1053 -0.4030
  130OSM   C17S13980   3.873   5.635   7.898  1.0029  0.5339  0.3537
  130OSM   H17S13981   3.921   5.735   7.885  0.8022  0.4762 -0.9734
  130OSM   H17T13982   3.919   5.571   7.820 -2.7590 -1.2282 -0.6816
  130OSM   C18S13983   3.902   5.577   8.035 -0.4329 -0.2099  0.5699
  130OSM   H18S13984   4.011   5.557   8.042 -0.4511 -0.7013 -0.2702
  130OSM   H18T13985   3.850   5.480   8.052 -1.9679  0.0539 -2.0330
  130OSM   H18U13986   3.866   5.644   8.115  0.8383  0.6619  0.4338
  130OSM    C1F13987   3.070   5.808   6.460 -0.4897 -0.1210 -0.1726
  130OSM     OF13988   2.992   5.733   6.400  0.1309 -0.6905  0.1283
  130OSM    C2F13989   3.018   5.917   6.550  0.0524 -0.4445  0.4900
  130OSM    H2F13990   2.943   5.976   6.495 -0.4376 -1.6281 -0.1546
  130OSM    H2G13991   3.103   5.984   6.574 -0.8888  1.2627 -0.7865
  130OSM    C3F13992   2.943   5.862   6.672 -0.8021 -0.0219  0.0106
  130OSM    H3F13993   2.857   5.797   6.646 -0.2093 -1.0968  0.6567
  130OSM    H3G13994   2.904   5.944   6.735  0.5439 -0.9214  2.1388
  130OSM    C4F13995   3.021   5.763   6.762 -0.2986  0.3975 -0.1544
  130OSM    H4F13996   3.110   5.818   6.800  0.9243 -0.7093 -1.3244
  130OSM    H4G13997   3.067   5.680   6.704 -0.6081 -0.1874  0.4245
  130OSM    C5F13998   2.941   5.706   6.877  0.1419  0.4921  0.0623
  130OSM    H5F13999   3.007   5.642   6.939 -0.0059 -0.3115 -0.5920
  130OSM    H5G14000   2.868   5.639   6.827  0.6281 -1.6354  2.0628
  130OSM    C6F14001   2.874   5.810   6.970  0.8966 -0.2719  0.0960
  130OSM    H6F14002   2.802   5.761   7.040  0.7163  1.3788  1.1239
  130OSM    H6G14003   2.811   5.874   6.905  0.1040 -0.9435  0.1872
  130OSM    C7F14004   2.979   5.889   7.050 -0.5408 -0.1871  0.5439
  130OSM    H7F14005   3.016   5.965   6.978 -2.1683  1.3660  1.2712
  130OSM    H7G14006   3.064   5.828   7.088  0.5685 -0.1053 -1.6684
  130OSM    C8F14007   2.928   5.963   7.172  0.1173 -0.1520  0.1993
  130OSM    H8F14008   2.912   5.878   7.242  0.0482 -0.3702 -0.0835
  130OSM    H8G14009   2.821   5.994   7.170 -0.2498 -1.3941 -0.6870
  130OSM    C9F14010   3.023   6.070   7.218  0.3448 -0.1088  0.1073
  130OSM    H9F14011   3.045   6.158   7.155  1.1759  0.4689  1.1747
  130OSM   C10F14012   3.091   6.063   7.333 -0.1104  0.7599  0.2168
  130OSM   H10F14013   3.173   6.133   7.355  2.4744 -1.4787 -1.5327
  130OSM   C11F14014   3.067   5.948   7.430  0.1086 -0.0232 -0.2899
  130OSM   H11F14015   3.082   5.846   7.388  0.9603 -0.0964  0.1789
  130OSM   H11G14016   2.958   5.944   7.455 -0.1722  0.0442 -1.4562
  130OSM   C12F14017   3.137   5.956   7.571 -0.6588 -0.7042 -0.4997
  130OSM   H12F14018   3.106   6.056   7.606  1.6754  0.6622 -2.0651
  130OSM   H12G14019   3.246   5.971   7.555 -0.3694 -0.1313  1.6526
  130OSM   C13F14020   3.116   5.839   7.658  0.4395 -0.1529  0.3548
  130OSM   H13F14021   3.164   5.748   7.617 -1.3620 -0.2656 -1.7010
  130OSM   H13G14022   3.009   5.812   7.670  0.5106 -0.1246  1.1132
  130OSM   C14F14023   3.192   5.879   7.785  0.0706  0.2327 -0.6284
  130OSM   H14F14024   3.132   5.956   7.837 -0.4271 -0.3163 -0.3882
  130OSM   H14G14025   3.289   5.925   7.756 -0.9399  2.1520 -1.1218
  130OSM   C15F14026   3.220   5.763   7.882 -0.1010  0.5299  0.0376
  130OSM   H15F14027   3.295   5.691   7.842  1.5293  0.8056  2.3977
  130OSM   H15G14028   3.122   5.715   7.900 -1.4680  2.1537 -2.4410
  130OSM   C16F14029   3.297   5.823   8.004 -0.4923  0.1000  0.1733
  130OSM   H16F14030   3.234   5.910   8.032  0.6347  0.2412  2.5366
  130OSM   H16G14031   3.403   5.852   7.986  0.1673 -2.7964 -1.1523
  130OSM   C17F14032   3.316   5.725   8.122  0.7351  0.2353 -0.5091
  130OSM   H17F14033   3.213   5.692   8.149  0.6750 -0.5114 -1.6039
  130OSM   H17G14034   3.363   5.785   8.202  0.8665  0.3971 -0.7047
  130OSM   C18F14035   3.401   5.608   8.090 -1.2047  0.9931  0.6446
  130OSM   H18F14036   3.473   5.634   8.009 -1.1380 -0.6152  0.1557
  130OSM   H18G14037   3.328   5.531   8.059  0.3936 -0.4233  0.2403
  130OSM   H18H14038   3.445   5.566   8.183 -1.2846  0.6310  0.5209
  131OSM      N14039   4.543   3.061   5.862  0.4686  0.0329  0.0272
  131OSM    C1514040   4.491   3.183   5.790 -0.2368 -0.1812 -0.2118
  131OSM   H15A14041   4.436   3.157   5.700  0.0357  2.5021 -1.2282
  131OSM   H15B14042   4.564   3.260   5.770  1.5775 -2.1048 -1.4205
  131OSM   H15C14043   4.409   3.218   5.852 -0.2609 -1.1159  0.3084
  131OSM    C1414044   4.442   2.952   5.857  0.1582  0.0981  0.5138
  131OSM   H14A14045   4.398   2.941   5.759 -1.4049 -0.4694  1.2541
  131OSM   H14B14046   4.363   2.955   5.929 -0.4633  0.2951 -0.1674
  131OSM   H14C14047   4.494   2.858   5.869  0.8160  0.2989 -0.5380
  131OSM    C1314048   4.668   3.009   5.789 -0.3718  0.7872 -0.3986
  131OSM   H13A14049   4.753   3.074   5.796 -1.2491  1.8219  1.4201
  131OSM   H13B14050   4.646   2.992   5.684  2.8598 -0.5404 -0.9680
  131OSM   H13C14051   4.700   2.910   5.818  1.4286  0.7934 -2.1627
  131OSM    C1214052   4.586   3.097   6.001 -0.1334 -0.4610  0.2016
  131OSM   H12A14053   4.492   3.114   6.050 -0.1339 -1.2753  0.4980
  131OSM   H12B14054   4.648   3.186   6.000 -0.8502  0.0417 -0.5427
  131OSM    C1114055   4.672   2.991   6.085  0.2968 -0.5723  0.2851
  131OSM   H11A14056   4.675   3.023   6.191 -1.6084 -0.8300  0.4589
  131OSM   H11B14057   4.778   2.995   6.051  0.4756 -0.1682  0.8666
  131OSM      P14058   4.710   2.730   6.054  0.2232  0.0590  0.3704
  131OSM    O1314059   4.638   2.605   6.103  0.5184 -0.2102 -0.1664
  131OSM    O1414060   4.748   2.733   5.914 -0.1199 -0.6854  0.2437
  131OSM    O1114061   4.844   2.747   6.140 -0.3659  0.1466 -0.2836
  131OSM    O1214062   4.621   2.858   6.087 -0.8309 -0.4602  0.6400
  131OSM    C1S14063   4.825   2.734   6.280 -0.2525 -0.4055 -0.6533
  131OSM    H1S14064   4.786   2.632   6.301 -1.3984  0.4730  1.9870
  131OSM    H1T14065   4.749   2.808   6.315 -0.5994 -0.2447 -1.7334
  131OSM     NF14066   4.948   2.723   6.504 -0.1133  0.2349  0.1656
  131OSM    HNF14067   4.944   2.799   6.569  1.4672 -1.9402  3.0688
  131OSM    C2S14068   4.954   2.761   6.367  0.5071 -0.4348  0.2666
  131OSM    H2S14069   5.037   2.712   6.313 -0.3997  0.6042 -2.2386
  131OSM    C3S14070   4.977   2.915   6.350 -0.1462 -0.1623 -0.0079
  131OSM    H3S14071   4.897   2.989   6.371 -0.4472 -0.4341 -0.1743
  131OSM     O314072   5.005   2.940   6.212 -0.2112 -0.7439  0.0528
  131OSM    HO314073   4.955   2.872   6.165  0.6841 -1.3119 -0.1140
  131OSM    C4S14074   5.091   2.957   6.439  0.6526  0.6381  0.7725
  131OSM    H4S14075   5.193   2.933   6.406 -0.0347  1.6925 -2.4667
  131OSM    C5S14076   5.078   3.041   6.547  0.5577 -0.1565  0.5430
  131OSM    H5S14077   4.985   3.093   6.571 -0.6071 -1.9088  0.0117
  131OSM    C6S14078   5.191   3.085   6.638  0.2860  0.3511 -0.2030
  131OSM    H6S14079   5.159   3.189   6.660 -0.8142 -0.2806  1.3909
  131OSM    H6T14080   5.291   3.093   6.591 -0.3924 -0.9213 -1.9904
  131OSM    C7S14081   5.196   3.000   6.760  0.7487 -0.5435  0.1773
  131OSM    H7S14082   5.222   2.900   6.720 -1.8380 -0.7839 -1.1564
  131OSM    H7T14083   5.100   3.000   6.816 -0.4083  2.2634 -1.6027
  131OSM    C8S14084   5.306   3.040   6.862 -0.0880 -0.1331  0.3449
  131OSM    H8S14085   5.397   3.040   6.798 -1.3983 -0.7625 -1.6247
  131OSM    H8T14086   5.319   2.949   6.924 -1.2056 -2.2449 -2.2923
  131OSM    C9S14087   5.287   3.172   6.927  0.4825  0.2207  0.1445
  131OSM    H9S14088   5.234   3.250   6.868 -2.6274 -0.1535  2.1619
  131OSM    H9T14089   5.387   3.213   6.954  0.0914  1.7633 -0.6672
  131OSM   C10S14090   5.214   3.152   7.057  0.0296  0.0836  0.0745
  131OSM   H10S14091   5.279   3.077   7.106 -2.0060 -0.9705  1.3018
  131OSM   H10T14092   5.124   3.092   7.032  0.3664  0.7372 -3.0765
  131OSM   C11S14093   5.199   3.277   7.145  0.2050  1.1083 -0.1688
  131OSM   H11S14094   5.109   3.335   7.114 -1.2728 -0.0168  1.8098
  131OSM   H11T14095   5.292   3.338   7.151  0.6834  0.4905 -1.0603
  131OSM   C12S14096   5.185   3.231   7.295 -0.3552 -0.1551 -0.0973
  131OSM   H12S14097   5.276   3.178   7.331 -0.8540 -2.1926 -1.6919
  131OSM   H12T14098   5.107   3.157   7.321 -1.1804  1.4929  2.5669
  131OSM   C13S14099   5.160   3.356   7.387  0.2203  0.2584  0.3319
  131OSM   H13S14100   5.084   3.419   7.337  1.0333  0.6945 -0.3874
  131OSM   H13T14101   5.251   3.419   7.396 -1.1095  2.2158  0.5367
  131OSM   C14S14102   5.124   3.312   7.531  0.1442 -0.0039  0.1746
  131OSM   H14S14103   5.214   3.257   7.564  0.7345  0.0046 -1.3549
  131OSM   H14T14104   5.047   3.233   7.520 -0.1046  0.2391  0.1635
  131OSM   C15S14105   5.079   3.427   7.623  0.3495  0.1921  0.4180
  131OSM   H15S14106   4.979   3.459   7.586 -0.3918 -1.5269  0.8382
  131OSM   H15T14107   5.145   3.515   7.611  0.1370  0.3867  0.6872
  131OSM   C16S14108   5.062   3.382   7.767 -0.3467 -0.8085 -0.4931
  131OSM   H16S14109   5.161   3.372   7.817 -0.3104  0.7220 -0.2351
  131OSM   H16T14110   5.010   3.285   7.782 -0.6892 -0.9554 -2.3688
  131OSM   C17S14111   4.974   3.481   7.853 -0.8953  0.5068  0.1088
  131OSM   H17S14112   4.881   3.505   7.797  0.2318  0.8669 -1.7155
  131OSM   H17T14113   5.024   3.579   7.867  0.9810 -0.4377  0.3825
  131OSM   C18S14114   4.958   3.412   7.990 -0.3710  0.6783  0.7291
  131OSM   H18S14115   4.879   3.473   8.039 -0.9716 -1.6298  2.8137
  131OSM   H18T14116   5.054   3.422   8.046 -0.0278  0.0359  0.2569
  131OSM   H18U14117   4.928   3.305   7.984 -0.6102  0.6434  2.1083
  131OSM    C1F14118   4.938   2.596   6.552 -0.3663 -0.5618 -0.1427
  131OSM     OF14119   4.923   2.507   6.469  0.3222 -0.5046 -0.2898
  131OSM    C2F14120   4.962   2.567   6.699 -0.0266 -0.2440 -0.5713
  131OSM    H2F14121   5.052   2.502   6.690 -0.3725 -1.1030  1.5487
  131OSM    H2G14122   4.878   2.502   6.730  0.4502 -1.9602 -2.6632
  131OSM    C3F14123   4.986   2.694   6.775 -1.0049 -0.2048 -0.5074
  131OSM    H3F14124   4.912   2.777   6.760 -0.4245  0.8495  1.9440
  131OSM    H3G14125   5.087   2.728   6.745 -0.2634 -1.5991  0.3319
  131OSM    C4F14126   4.990   2.657   6.925 -0.4232 -0.1936 -0.5389
  131OSM    H4F14127   5.038   2.557   6.938 -1.5905 -0.7703 -0.5331
  131OSM    H4G14128   4.890   2.650   6.971  0.3726 -0.3649  1.2510
  131OSM    C5F14129   5.051   2.765   7.009 -0.1827 -0.6525 -0.2377
  131OSM    H5F14130   5.001   2.854   6.965  0.6711 -0.7060 -1.3519
  131OSM    H5G14131   5.160   2.779   6.995 -0.1171 -0.0365  0.8078
  131OSM    C6F14132   5.024   2.743   7.159 -0.4529 -0.5961 -0.0667
  131OSM    H6F14133   5.078   2.650   7.184  0.1108 -0.1506  0.4287
  131OSM    H6G14134   4.918   2.718   7.178 -0.6491 -0.1247 -0.5173
  131OSM    C7F14135   5.071   2.850   7.262  0.0464 -0.6341  0.4714
  131OSM    H7F14136   5.004   2.938   7.260  1.7171  0.7313  1.2846
  131OSM    H7G14137   5.170   2.896   7.243  1.2722 -2.2052  2.5600
  131OSM    C8F14138   5.085   2.792   7.398 -0.0280  0.9174 -0.0322
  131OSM    H8F14139   5.158   2.707   7.404 -0.9050  0.2021  0.7042
  131OSM    H8G14140   4.988   2.747   7.426  0.6754 -1.3720 -0.9524
  131OSM    C9F14141   5.143   2.891   7.495 -0.0366  0.2617 -0.3125
  131OSM    H9F14142   5.241   2.927   7.461 -0.0869 -0.1796 -0.9528
  131OSM   C10F14143   5.105   2.917   7.622 -0.4616  0.0799 -0.1928
  131OSM   H10F14144   5.155   2.989   7.687 -1.9516 -0.4754  1.6667
  131OSM   C11F14145   5.005   2.831   7.697  0.0280  1.2568 -0.2914
  131OSM   H11F14146   4.951   2.753   7.639  0.0627 -0.5389  1.9390
  131OSM   H11G14147   4.922   2.895   7.736 -0.4607 -1.7028  4.2672
  131OSM   C12F14148   5.060   2.753   7.816  0.4291  0.3115 -0.8026
  131OSM   H12F14149   5.142   2.685   7.783 -1.4095 -2.0973 -0.6863
  131OSM   H12G14150   4.986   2.685   7.862  2.6454 -0.2658  2.2161
  131OSM   C13F14151   5.100   2.851   7.926  0.2276  0.9570  0.2606
  131OSM   H13F14152   5.015   2.920   7.945 -0.4255 -0.3251  2.4165
  131OSM   H13G14153   5.189   2.906   7.890  0.7137  1.1362  1.6582
  131OSM   C14F14154   5.126   2.770   8.055 -0.3273  0.0603 -0.4816
  131OSM   H14F14155   5.212   2.700   8.042 -0.8239 -0.7072  0.2346
  131OSM   H14G14156   5.040   2.703   8.074 -1.5515  1.5454 -0.6268
  131OSM   C15F14157   5.167   2.861   8.170 -0.1303  0.5841 -0.8246
  131OSM   H15F14158   5.259   2.920   8.148  0.7061  0.7265  2.6105
  131OSM   H15G14159   5.191   2.801   8.260  0.5994  1.8099 -0.1773
  131OSM   C16F14160   5.073   2.976   8.198 -0.2769 -0.1012 -0.7137
  131OSM   H16F14161   5.045   3.037   8.109  1.0172  0.2271 -0.9095
  131OSM   H16G14162   5.126   3.046   8.266 -1.7443  0.5672 -0.2266
  131OSM   C17F14163   4.954   2.924   8.276 -0.3246  0.1036 -0.2286
  131OSM   H17F14164   4.969   2.887   8.379 -1.0786  1.0154  0.2281
  131OSM   H17G14165   4.913   2.853   8.202 -2.1629  0.4022  0.4449
  131OSM   C18F14166   4.853   3.048   8.270  0.3691  1.0816  0.3795
  131OSM   H18F14167   4.836   3.073   8.163 -1.7014 -4.2876 -0.8737
  131OSM   H18G14168   4.891   3.139   8.321  2.2094  0.4498  0.1906
  131OSM   H18H14169   4.754   3.028   8.316 -0.2782 -0.1031 -1.4457
  132OSM      N14170   6.592   6.355   6.062 -0.1879 -0.8417  0.1543
  132OSM    C1514171   6.666   6.288   6.172 -0.3483  0.6105 -0.0772
  132OSM   H15A14172   6.692   6.193   6.127 -0.7742  0.7031 -0.5244
  132OSM   H15B14173   6.602   6.264   6.255  0.5151  1.0197  0.7306
  132OSM   H15C14174   6.755   6.345   6.195 -0.7693  1.2476  0.0181
  132OSM    C1414175   6.650   6.316   5.930 -0.0708  0.3568  0.6954
  132OSM   H14A14176   6.757   6.329   5.939 -0.1793  0.8584  1.3172
  132OSM   H14B14177   6.602   6.371   5.851 -0.7664  1.9671  2.1764
  132OSM   H14C14178   6.634   6.211   5.908 -0.3471  0.8781 -1.7884
  132OSM    C1314179   6.450   6.329   6.072 -0.2185  0.0932 -0.2299
  132OSM   H13A14180   6.389   6.398   6.016 -1.3255 -2.1311 -1.9246
  132OSM   H13B14181   6.431   6.332   6.178  1.9057  0.3700  0.1883
  132OSM   H13C14182   6.434   6.229   6.034 -0.8248  0.1099 -0.0339
  132OSM    C1214183   6.622   6.499   6.086 -0.1413  0.2644  0.2197
  132OSM   H12A14184   6.730   6.508   6.093 -0.0819  0.7179 -0.9988
  132OSM   H12B14185   6.581   6.534   6.180 -0.1422 -0.5971  0.5447
  132OSM    C1114186   6.567   6.600   5.979  0.6420 -0.1710  0.1960
  132OSM   H11A14187   6.604   6.566   5.879  0.1200 -0.5513  0.1276
  132OSM   H11B14188   6.616   6.698   5.995  0.8336 -0.3761  0.8687
  132OSM      P14189   6.348   6.699   6.081 -0.0978 -0.3389  0.6125
  132OSM    O1314190   6.366   6.846   6.048  0.1457 -0.2907 -0.1314
  132OSM    O1414191   6.206   6.655   6.099  0.0610  0.1314  0.6732
  132OSM    O1114192   6.433   6.666   6.215  0.4444  0.5619 -0.1723
  132OSM    O1214193   6.427   6.611   5.977  0.1916  0.2705  0.1406
  132OSM    C1S14194   6.428   6.760   6.331 -0.1441  0.5514  0.3174
  132OSM    H1S14195   6.383   6.858   6.305 -0.0383  0.7108  0.7199
  132OSM    H1T14196   6.526   6.787   6.376  0.1359  1.1021 -0.6166
  132OSM     NF14197   6.358   6.798   6.563  0.8608 -0.6222  0.3494
  132OSM    HNF14198   6.433   6.789   6.627  0.4016 -0.3248  0.9384
  132OSM    C2S14199   6.348   6.697   6.453 -0.0554 -0.3799 -0.1998
  132OSM    H2S14200   6.240   6.688   6.426 -1.1018 -0.1924  3.4015
  132OSM    C3S14201   6.399   6.553   6.477 -0.6210  0.4363 -0.3339
  132OSM    H3S14202   6.510   6.549   6.483 -0.7124 -2.2435  2.5667
  132OSM     O314203   6.383   6.457   6.366 -0.1910  0.5345  0.9034
  132OSM    HO314204   6.382   6.508   6.285 -2.5039 -0.4026  0.2399
  132OSM    C4S14205   6.342   6.500   6.605 -0.0528  0.1629  1.0321
  132OSM    H4S14206   6.405   6.512   6.695 -0.6878  2.0117  1.2631
  132OSM    C5S14207   6.226   6.430   6.620 -0.9895 -0.5500 -0.0522
  132OSM    H5S14208   6.181   6.407   6.522 -2.3279  2.7868 -0.3778
  132OSM    C6S14209   6.171   6.382   6.751 -0.7906  0.5664 -0.1368
  132OSM    H6S14210   6.211   6.279   6.760 -0.5763  0.6169 -0.4654
  132OSM    H6T14211   6.061   6.371   6.756 -0.5940 -1.4791  0.4102
  132OSM    C7S14212   6.238   6.445   6.883 -0.4856 -0.1742  0.3468
  132OSM    H7S14213   6.216   6.554   6.882  1.0713  0.2004 -1.8360
  132OSM    H7T14214   6.348   6.443   6.865 -0.7603  1.0243 -1.7907
  132OSM    C8S14215   6.199   6.388   7.022  0.0044 -0.0748 -0.0455
  132OSM    H8S14216   6.206   6.277   7.030 -2.0725 -0.1663  1.3352
  132OSM    H8T14217   6.092   6.409   7.045 -0.4815 -2.4794  0.2086
  132OSM    C9S14218   6.292   6.454   7.129 -0.0240  0.4080 -0.1985
  132OSM    H9S14219   6.265   6.561   7.142  0.6759  0.7849 -1.6310
  132OSM    H9T14220   6.396   6.444   7.093 -0.4789 -0.3247 -1.3811
  132OSM   C10S14221   6.300   6.374   7.256 -0.3265 -0.0957 -0.0653
  132OSM   H10S14222   6.358   6.286   7.221  0.5538  1.7047 -3.5884
  132OSM   H10T14223   6.200   6.341   7.292 -0.5293  0.8710  0.2788
  132OSM   C11S14224   6.356   6.457   7.372 -0.3782 -0.5490  0.0265
  132OSM   H11S14225   6.281   6.537   7.391 -0.0769 -0.3824  0.5654
  132OSM   H11T14226   6.452   6.501   7.338 -2.6416  2.5408 -2.9461
  132OSM   C12S14227   6.369   6.367   7.501  0.2841  0.4771  0.1702
  132OSM   H12S14228   6.429   6.275   7.488 -0.3110  0.3119 -1.6531
  132OSM   H12T14229   6.264   6.336   7.517 -0.1982  0.9461 -1.8459
  132OSM   C13S14230   6.411   6.448   7.624  0.2557 -0.8554  0.9302
  132OSM   H13S14231   6.349   6.540   7.631  1.9811  0.3598  1.0023
  132OSM   H13T14232   6.512   6.492   7.607  0.8151 -1.5987  2.1750
  132OSM   C14S14233   6.419   6.363   7.747 -0.0276  0.0259  0.6463
  132OSM   H14S14234   6.401   6.258   7.717 -2.7384  0.1119  1.6446
  132OSM   H14T14235   6.321   6.373   7.798 -0.1293 -3.1733  1.2729
  132OSM   C15S14236   6.540   6.386   7.839  0.2575 -0.3204  0.4521
  132OSM   H15S14237   6.560   6.494   7.853 -3.4961  0.4344  1.3598
  132OSM   H15T14238   6.626   6.340   7.788  0.7511  0.9229  0.1240
  132OSM   C16S14239   6.510   6.325   7.973 -0.2528  0.2264 -0.0738
  132OSM   H16S14240   6.481   6.219   7.954  0.1955 -0.2526  1.7005
  132OSM   H16T14241   6.418   6.377   8.007 -1.0930 -1.5317  0.4807
  132OSM   C17S14242   6.617   6.331   8.087  0.7711  0.0566  1.1605
  132OSM   H17S14243   6.652   6.435   8.107  1.2812 -0.1612  1.4137
  132OSM   H17T14244   6.712   6.283   8.054  2.7729  3.6830  1.0249
  132OSM   C18S14245   6.563   6.266   8.213 -0.3984  0.1541  0.1287
  132OSM   H18S14246   6.457   6.288   8.240 -0.2013 -0.2176  1.2200
  132OSM   H18T14247   6.623   6.299   8.300 -0.6387  2.2461 -0.4242
  132OSM   H18U14248   6.573   6.157   8.197  2.6710  0.3698  0.0638
  132OSM    C1F14249   6.286   6.914   6.553  0.0094  0.8260  0.2614
  132OSM     OF14250   6.204   6.934   6.465  0.6111  0.0649 -0.5767
  132OSM    C2F14251   6.309   7.027   6.648 -0.1933  0.6968 -0.2694
  132OSM    H2F14252   6.209   7.067   6.674 -0.8543 -0.9866 -0.0557
  132OSM    H2G14253   6.376   7.097   6.595 -1.9490  0.4875 -2.9104
  132OSM    C3F14254   6.374   6.987   6.784 -0.0742  0.4821  0.1829
  132OSM    H3F14255   6.407   7.079   6.838  2.6752  0.1389 -0.7217
  132OSM    H3G14256   6.463   6.923   6.764 -0.2152  0.1485  0.6129
  132OSM    C4F14257   6.281   6.911   6.884  0.2415  0.4238 -0.0482
  132OSM    H4F14258   6.228   6.832   6.826 -1.1472  1.0387  0.3400
  132OSM    H4G14259   6.209   6.989   6.915  1.2243  0.2589  2.9681
  132OSM    C5F14260   6.343   6.838   7.006  0.2821 -0.3481  0.0382
  132OSM    H5F14261   6.410   6.757   6.970 -2.0924 -1.3672 -2.5010
  132OSM    H5G14262   6.254   6.782   7.045  0.7254 -0.5720  0.7466
  132OSM    C6F14263   6.404   6.929   7.116  0.1906  0.4938 -0.0453
  132OSM    H6F14264   6.324   7.000   7.144  0.3623  0.8519 -0.4404
  132OSM    H6G14265   6.493   6.989   7.088  0.5835 -0.6771 -1.4999
  132OSM    C7F14266   6.431   6.833   7.237 -0.1263 -0.4213  0.6138
  132OSM    H7F14267   6.537   6.800   7.232  0.0286  0.1000  0.3621
  132OSM    H7G14268   6.376   6.738   7.222  0.9480 -0.7434 -1.7692
  132OSM    C8F14269   6.389   6.892   7.371 -0.4772 -0.5864 -0.4668
  132OSM    H8F14270   6.288   6.938   7.364 -0.0881  0.1137 -2.0550
  132OSM    H8G14271   6.461   6.972   7.398 -1.6529  0.8013 -1.2891
  132OSM    C9F14272   6.389   6.789   7.479  0.2129  0.4258  0.3371
  132OSM    H9F14273   6.389   6.689   7.433 -2.0463  0.8699 -0.7128
  132OSM   C10F14274   6.397   6.804   7.612  0.5611  0.2206  0.4946
  132OSM   H10F14275   6.408   6.719   7.680 -0.7677  2.3510  3.5986
  132OSM   C11F14276   6.406   6.935   7.678 -0.2285  0.3787  0.2848
  132OSM   H11F14277   6.430   7.017   7.608  2.1176 -2.1733 -2.1850
  132OSM   H11G14278   6.479   6.941   7.761  0.5475  0.4356 -0.3921
  132OSM   C12F14279   6.279   6.972   7.751  0.4868 -0.6398  0.1399
  132OSM   H12F14280   6.307   7.054   7.820  3.3786 -2.2064  0.9927
  132OSM   H12G14281   6.250   6.883   7.810  1.0795 -0.2763  0.9925
  132OSM   C13F14282   6.157   7.016   7.664  0.1088  0.7755 -0.2115
  132OSM   H13F14283   6.144   6.930   7.594 -1.8500  0.2341  0.7461
  132OSM   H13G14284   6.170   7.110   7.606  0.5963  0.8289 -0.0148
  132OSM   C14F14285   6.013   7.019   7.742 -0.0255  0.0641 -0.5032
  132OSM   H14F14286   6.008   6.924   7.799  0.8907 -0.1620 -0.7780
  132OSM   H14G14287   5.930   7.010   7.668  0.8200  0.0833 -1.4803
  132OSM   C15F14288   6.000   7.133   7.840  0.1776 -1.0785 -0.8502
  132OSM   H15F14289   5.987   7.235   7.798  0.9943 -0.1087  1.1230
  132OSM   H15G14290   6.078   7.127   7.918 -1.9657 -0.5709  1.4529
  132OSM   C16F14291   5.866   7.121   7.924 -0.6929 -0.3941  0.4267
  132OSM   H16F14292   5.781   7.080   7.866 -1.9494  1.5852  0.7928
  132OSM   H16G14293   5.828   7.224   7.943 -0.9653 -0.5250  0.5904
  132OSM   C17F14294   5.896   7.050   8.052  0.2557  0.2528  0.5495
  132OSM   H17F14295   5.970   6.969   8.035  0.4713  0.4238  0.6858
  132OSM   H17G14296   5.795   7.005   8.067  0.8461 -2.9028 -3.2393
  132OSM   C18F14297   5.932   7.135   8.167  0.2424  0.2920 -0.3155
  132OSM   H18F14298   5.875   7.229   8.181  0.3948  0.3672 -0.1959
  132OSM   H18G14299   6.039   7.157   8.148  1.3829 -2.7944  1.5975
  132OSM   H18H14300   5.926   7.075   8.261 -0.7874  0.5157 -0.2214
  133SAPE     N14301   0.433   4.295  10.728  0.4735 -0.2467 -0.1138
  133SAPE   HN114302   0.441   4.289  10.624  0.0748  3.1550 -0.4350
  133SAPE   HN214303   0.435   4.198  10.765  1.0059  0.1211  0.8491
  133SAPE   HN314304   0.348   4.350  10.748  0.9950  0.3807  0.4174
  133SAPE   C1214305   0.557   4.366  10.779 -0.1065  0.5762  0.2413
  133SAPE  H12A14306   0.590   4.326  10.878  1.6446 -3.2242 -1.6466
  133SAPE  H12B14307   0.528   4.473  10.773 -0.6059  0.4486  0.3358
  133SAPE   C1114308   0.664   4.345  10.672 -0.2633 -0.1625 -0.1155
  133SAPE  H11A14309   0.690   4.238  10.689  0.5018  0.3772  2.6950
  133SAPE  H11B14310   0.762   4.395  10.693  0.6446 -1.5585 -0.8546
  133SAPE     P14311   0.660   4.519  10.468  0.0001 -0.5565 -0.0173
  133SAPE   O1314312   0.573   4.625  10.519  0.9261  0.5199  0.6618
  133SAPE   O1414313   0.805   4.540  10.474 -0.1364  0.1188 -0.7412
  133SAPE   O1214314   0.617   4.376  10.540 -0.3098  0.2053  0.6625
  133SAPE   O1114315   0.619   4.490  10.325  0.4145 -0.1301  0.2935
  133SAPE    C114316   0.610   4.359  10.274  0.3764 -0.4421 -0.5521
  133SAPE    HA14317   0.540   4.294  10.331  1.0905 -0.6551  0.1106
  133SAPE    HB14318   0.582   4.365  10.167 -1.0156  1.1527 -0.1505
  133SAPE    C214319   0.748   4.288  10.267 -0.9128  1.4680  0.4676
  133SAPE    HS14320   0.799   4.297  10.365 -1.4164 -0.2907  0.9248
  133SAPE   O2114321   0.833   4.349  10.169  0.1489  0.0816  1.1099
  133SAPE   C2114322   0.959   4.316  10.170  0.5486  0.1026 -0.7258
  133SAPE   O2214323   1.016   4.244  10.251  0.3403  0.2222 -0.0926
  133SAPE   C2214324   1.032   4.381  10.060 -0.4064  0.1688 -0.4161
  133SAPE   H2R14325   0.989   4.484  10.051  1.0765  0.9949  1.3277
  133SAPE   H2S14326   1.139   4.389  10.091 -0.8685 -2.0660  2.0521
  133SAPE    C314327   0.732   4.135  10.248 -0.2711 -0.5685 -0.5582
  133SAPE    HX14328   0.684   4.092  10.339 -0.6692 -3.0597 -1.8503
  133SAPE    HY14329   0.824   4.074  10.236 -0.3287 -0.6339 -0.6732
  133SAPE   O3114330   0.633   4.102  10.139  0.0612  0.2945 -0.1532
  133SAPE   C3114331   0.688   4.081  10.019  0.0336 -0.2921  0.4180
  133SAPE   O3214332   0.809   4.075  10.000 -0.6844 -0.9004 -0.1586
  133SAPE   C3214333   0.575   4.050   9.919  0.2692 -0.0563 -0.5784
  133SAPE   H2X14334   0.498   4.129   9.932  1.0227  0.5917  0.0288
  133SAPE   H2Y14335   0.534   3.949   9.939  1.3297 -0.5462 -0.7708
  133SAPE   C2314336   1.022   4.302   9.927 -0.3205  0.0115 -0.5846
  133SAPE   H3R14337   0.916   4.292   9.897 -0.9146 -1.4284  1.6908
  133SAPE   H3S14338   1.059   4.198   9.937 -0.6378 -0.2963 -2.3411
  133SAPE   C2414339   1.106   4.377   9.821  0.0887  0.1094 -0.7771
  133SAPE   H4R14340   1.115   4.303   9.738 -0.7791 -0.1877 -0.6180
  133SAPE   H4S14341   1.205   4.394   9.869 -0.2792 -1.5999  0.6958
  133SAPE   C2514342   1.051   4.504   9.789  0.9389 -0.2613 -0.4771
  133SAPE   H5R14343   0.960   4.536   9.842  1.4222 -1.9447  1.5200
  133SAPE   C2614344   1.108   4.584   9.697  0.4814  0.6374  0.8123
  133SAPE   H6R14345   1.074   4.689   9.690 -1.8350 -0.1851 -2.0164
  133SAPE   C2714346   1.224   4.537   9.614  0.1447 -0.8789 -0.0885
  133SAPE   H7R14347   1.186   4.473   9.532 -1.5896  1.1190 -0.9561
  133SAPE   H7S14348   1.303   4.483   9.669  0.4536  0.6299  1.0282
  133SAPE   C2814349   1.301   4.658   9.564  0.8299  0.2975 -0.4148
  133SAPE   H8R14350   1.385   4.686   9.629  1.3447  0.0642 -0.9710
  133SAPE   C2914351   1.268   4.723   9.448  0.4211 -0.3288 -0.1510
  133SAPE   H9R14352   1.326   4.812   9.419  1.2438 -0.7164  0.2768
  133SAPE  C21014353   1.153   4.677   9.349  0.2888 -0.2451  0.1244
  133SAPE  H10R14354   1.065   4.699   9.413 -1.0819  0.7436 -1.9539
  133SAPE  H10S14355   1.178   4.571   9.325  2.1227  0.1582  0.1349
  133SAPE  C21114356   1.137   4.766   9.225  0.1255 -0.0535 -0.2096
  133SAPE  H11R14357   1.085   4.859   9.253  1.7109  0.9100 -0.3259
  133SAPE  C21214358   1.177   4.745   9.101 -0.0118 -0.2078 -0.6065
  133SAPE  H12R14359   1.158   4.829   9.034  3.0634  1.7576  0.7427
  133SAPE  C21314360   1.249   4.619   9.063  0.3798  0.2835  0.1334
  133SAPE  H13R14361   1.247   4.538   9.140 -1.8084  1.3205  1.2538
  133SAPE  H13S14362   1.357   4.645   9.054 -0.3483  2.7335 -4.5914
  133SAPE  C21414363   1.209   4.559   8.934  0.5678 -0.1528  0.1156
  133SAPE  H14R14364   1.116   4.500   8.933  0.0116  0.6846  1.1538
  133SAPE  C21514365   1.258   4.584   8.814  0.2023  0.3039 -0.5693
  133SAPE  H15R14366   1.216   4.538   8.723  0.8472 -0.1861 -0.6303
  133SAPE  C21614367   1.366   4.682   8.785 -0.1582  0.0531  0.1991
  133SAPE  H16R14368   1.461   4.636   8.750 -0.3353  0.1069 -0.3653
  133SAPE  H16S14369   1.390   4.742   8.875 -2.7384  1.9993 -0.2613
  133SAPE  C21714370   1.317   4.785   8.685  0.0910 -0.5289 -0.7430
  133SAPE  H17R14371   1.388   4.870   8.681 -0.2163 -0.3037 -2.4385
  133SAPE  H17S14372   1.222   4.830   8.722  0.9525  0.7428  0.0186
  133SAPE  C21814373   1.303   4.742   8.537 -0.6531  0.5504  0.6790
  133SAPE  H18R14374   1.244   4.811   8.473 -1.4172  0.4607  1.2676
  133SAPE  H18S14375   1.241   4.650   8.530 -0.8925  0.7790 -0.3798
  133SAPE  C21914376   1.440   4.712   8.468  0.0505  0.0097 -0.0106
  133SAPE  H19R14377   1.478   4.624   8.525  0.5117 -1.3850 -2.3458
  133SAPE  H19S14378   1.515   4.792   8.490 -0.4304  0.5813 -0.4135
  133SAPE  C22014379   1.433   4.681   8.321 -0.3782 -0.0263 -0.5036
  133SAPE  H20R14380   1.530   4.642   8.283 -0.1888 -0.5448  0.4693
  133SAPE  H20S14381   1.436   4.774   8.261  0.3416 -0.7932 -1.7201
  133SAPE  H20T14382   1.352   4.612   8.288 -0.3046 -1.4558  2.0329
  133SAPE   C3314383   0.638   4.057   9.786 -0.4241  0.0724  0.2052
  133SAPE   H3X14384   0.561   4.009   9.722 -1.7370 -0.1528  1.8721
  133SAPE   H3Y14385   0.733   4.001   9.774 -0.4304  0.0637  0.1947
  133SAPE   C3414386   0.667   4.201   9.744  0.0294 -0.5487 -0.0104
  133SAPE   H4X14387   0.724   4.253   9.824  1.3491 -1.9721  0.0130
  133SAPE   H4Y14388   0.572   4.258   9.744 -1.0053 -2.2048  0.9609
  133SAPE   C3514389   0.719   4.213   9.596  0.0697 -0.4365  0.1892
  133SAPE   H5X14390   0.658   4.159   9.520 -0.5754 -0.3201  0.6222
  133SAPE   H5Y14391   0.817   4.161   9.586  0.4843  0.3187  0.2954
  133SAPE   C3614392   0.754   4.358   9.548 -0.1989 -0.2252 -0.1381
  133SAPE   H6X14393   0.848   4.388   9.599 -0.7634 -2.3409  2.4090
  133SAPE   H6Y14394   0.677   4.426   9.591 -1.7172 -2.3683  0.7145
  133SAPE   C3714395   0.770   4.376   9.399  0.0902  0.1550  0.4391
  133SAPE   H7X14396   0.689   4.318   9.351  2.7022 -4.0027  0.5187
  133SAPE   H7Y14397   0.862   4.319   9.374 -0.0035  0.7734 -1.4505
  133SAPE   C3814398   0.772   4.525   9.346  0.9154 -0.4610 -0.0200
  133SAPE   H8X14399   0.828   4.588   9.419 -1.4149 -0.2032  1.6575
  133SAPE   H8Y14400   0.665   4.555   9.349  0.5403 -1.7599  0.2415
  133SAPE   C3914401   0.826   4.526   9.206 -0.7156  0.9681 -0.0398
  133SAPE   H9X14402   0.785   4.442   9.146  1.2886  0.5189 -0.8897
  133SAPE   H9Y14403   0.935   4.507   9.216 -1.1366 -0.7262  2.1343
  133SAPE  C31014404   0.804   4.657   9.137 -0.2957 -0.4364  0.2263
  133SAPE  H10X14405   0.852   4.740   9.193  0.5503 -0.5716 -0.2717
  133SAPE  H10Y14406   0.697   4.686   9.146 -0.0874 -0.0832  1.9854
  133SAPE  C31114407   0.841   4.641   8.983 -0.5810  0.0659 -0.6256
  133SAPE  H11X14408   0.771   4.574   8.927  2.0292 -1.0332 -2.7876
  133SAPE  H11Y14409   0.937   4.588   8.966 -1.3631 -0.8286 -2.6320
  133SAPE  C31214410   0.849   4.763   8.895  0.6393 -0.1100 -0.5008
  133SAPE  H12X14411   0.865   4.737   8.788 -0.3003 -2.2528 -0.1806
  133SAPE  H12Y14412   0.945   4.808   8.929  1.0923 -0.2760 -1.5197
  133SAPE  C31314413   0.747   4.882   8.917  0.2676 -0.1987 -0.2617
  133SAPE  H13X14414   0.784   4.958   8.989  1.3992  1.4515 -2.4676
  133SAPE  H13Y14415   0.650   4.849   8.960 -0.6578  3.0789  0.4789
  133SAPE  C31414416   0.699   4.952   8.783 -0.2930  0.0687  0.1005
  133SAPE  H14X14417   0.657   4.867   8.726 -0.0923 -0.4634  0.7355
  133SAPE  H14Y14418   0.797   4.970   8.735 -0.7266  2.1340 -0.0971
  133SAPE  C31514419   0.630   5.079   8.799 -0.2356 -0.3523  0.5093
  133SAPE  H15X14420   0.688   5.140   8.872  0.7226 -1.5080  0.7416
  133SAPE  H15Y14421   0.535   5.046   8.846 -1.2610  4.5309  2.5524
  133SAPE  C31614422   0.593   5.172   8.682 -0.9543 -0.3383  0.4535
  133SAPE  H16X14423   0.518   5.248   8.711 -0.9511  0.9360 -2.5090
  133SAPE  H16Y14424   0.548   5.124   8.592 -1.0116  2.0945 -0.9037
  133SAPE  C31714425   0.715   5.242   8.627  0.1715 -0.7849  0.3263
  133SAPE  H17X14426   0.779   5.153   8.613 -2.0315 -2.2470 -1.1090
  133SAPE  H17Y14427   0.762   5.311   8.700 -1.4313  0.0549  0.6255
  133SAPE  C31814428   0.685   5.321   8.496  0.1583  0.4707 -0.4215
  133SAPE  H18X14429   0.615   5.403   8.524  0.4730  0.1230  1.5618
  133SAPE  H18Y14430   0.644   5.251   8.420 -0.4002  0.0654  0.2346
  133SAPE  H18Z14431   0.768   5.380   8.452 -1.3368 -0.4787 -5.0615
  134SAPE     N14432   2.831   6.425  10.717  0.1051 -0.1498 -0.2430
  134SAPE   HN114433   2.746   6.480  10.693  0.7908  0.1043 -2.2202
  134SAPE   HN214434   2.879   6.444  10.807 -0.0447 -2.6488  0.4361
  134SAPE   HN314435   2.896   6.440  10.637  1.2942 -0.4856  0.6334
  134SAPE   C1214436   2.789   6.281  10.717  0.1225 -0.5200  0.1961
  134SAPE  H12A14437   2.733   6.259  10.623  0.9282  1.4931 -0.8215
  134SAPE  H12B14438   2.722   6.268  10.805 -1.7784 -0.0824 -1.1141
  134SAPE   C1114439   2.909   6.187  10.731 -0.4534  0.0580  0.8012
  134SAPE  H11A14440   2.875   6.082  10.744  2.8632 -0.9646  2.1854
  134SAPE  H11B14441   2.974   6.212  10.817 -0.6225  2.7443  0.2414
  134SAPE     P14442   2.994   6.122  10.486  0.1932 -0.3426  0.0167
  134SAPE   O1314443   3.045   5.985  10.512  0.5396 -0.2471 -0.3490
  134SAPE   O1414444   2.856   6.140  10.439 -0.4706  0.3456 -0.4265
  134SAPE   O1214445   3.000   6.212  10.626  0.5016  0.3392 -0.1492
  134SAPE   O1114446   3.083   6.194  10.385 -0.1577  0.0147 -0.3147
  134SAPE    C114447   3.222   6.189  10.378 -1.3216 -0.1546 -0.2746
  134SAPE    HA14448   3.269   6.287  10.399  2.0125 -1.3606 -1.4413
  134SAPE    HB14449   3.259   6.120  10.458 -1.5524  0.8014  0.6821
  134SAPE    C214450   3.271   6.121  10.250 -0.3056  0.6670  0.7219
  134SAPE    HS14451   3.379   6.102  10.268 -0.1862 -1.0815 -1.4199
  134SAPE   O2114452   3.249   6.211  10.141  0.2035 -0.4363  0.3446
  134SAPE   C2114453   3.321   6.319  10.126  0.3952  0.7335  0.4862
  134SAPE   O2214454   3.419   6.346  10.197  0.3665  0.3798 -0.3735
  134SAPE   C2214455   3.270   6.411  10.015 -0.4521  0.2171 -0.4920
  134SAPE   H2R14456   3.197   6.480  10.063  1.4341  1.0780  1.2938
  134SAPE   H2S14457   3.358   6.458   9.966  0.3227  0.5017  1.0784
  134SAPE    C314458   3.205   5.982  10.232 -0.1304  0.4274  0.3109
  134SAPE    HX14459   3.098   5.991  10.204 -0.0870 -2.1356 -0.9349
  134SAPE    HY14460   3.203   5.935  10.333 -0.1168  0.8637  0.5177
  134SAPE   O3114461   3.280   5.900  10.143  0.2952  0.1092 -0.0274
  134SAPE   C3114462   3.232   5.774  10.141 -0.4353  0.5992 -0.3085
  134SAPE   O3214463   3.133   5.730  10.200  0.2413 -0.2500 -0.5540
  134SAPE   C3214464   3.344   5.700  10.076  0.1337 -0.0429 -0.0628
  134SAPE   H2X14465   3.426   5.712  10.150 -0.1966 -0.2362  0.3418
  134SAPE   H2Y14466   3.365   5.757   9.983 -1.3397  0.3785 -0.1644
  134SAPE   C2314467   3.178   6.331   9.913  0.7489  0.0554 -0.1814
  134SAPE   H3R14468   3.082   6.311   9.965 -0.1310  1.1311 -1.3204
  134SAPE   H3S14469   3.233   6.237   9.888  0.5891 -0.0590 -0.1007
  134SAPE   C2414470   3.146   6.420   9.796  0.1151  0.5216  0.4067
  134SAPE   H4R14471   3.106   6.512   9.844 -0.1357 -1.2492  3.9121
  134SAPE   H4S14472   3.060   6.369   9.749  1.3320 -1.0659 -0.2119
  134SAPE   C2514473   3.245   6.451   9.691 -0.4920 -0.0453 -0.4863
  134SAPE   H5R14474   3.335   6.507   9.723 -0.3738 -0.4000 -0.1989
  134SAPE   C2614475   3.243   6.413   9.565  0.0240  0.5134  0.6569
  134SAPE   H6R14476   3.330   6.436   9.502  0.4255  2.1346  1.7458
  134SAPE   C2714477   3.127   6.341   9.499 -0.2556 -0.3786  0.0777
  134SAPE   H7R14478   3.033   6.338   9.557 -1.3493  1.1325 -1.5296
  134SAPE   H7S14479   3.150   6.234   9.476 -1.2808 -0.6296  0.1595
  134SAPE   C2814480   3.103   6.383   9.358 -1.1191  0.0475  0.3687
  134SAPE   H8R14481   3.026   6.462   9.351  0.4271  1.8804  2.7720
  134SAPE   C2914482   3.168   6.356   9.238 -0.2247  0.2217 -0.1316
  134SAPE   H9R14483   3.116   6.385   9.146  0.9508 -1.4130 -1.3681
  134SAPE  C21014484   3.289   6.269   9.216  0.7792  0.1158  0.0402
  134SAPE  H10R14485   3.277   6.176   9.276 -0.3282  1.1323  1.4463
  134SAPE  H10S14486   3.378   6.317   9.262  1.7467 -0.1609 -1.4611
  134SAPE  C21114487   3.318   6.235   9.071 -0.0155  0.2490  1.0280
  134SAPE  H11R14488   3.271   6.141   9.039  0.9951  0.5472 -1.5128
  134SAPE  C21214489   3.393   6.298   8.985  0.2642 -0.4702  0.2186
  134SAPE  H12R14490   3.419   6.266   8.883  1.4126 -1.3634  0.7562
  134SAPE  C21314491   3.456   6.426   9.026  0.4165  0.2824  0.4836
  134SAPE  H13R14492   3.565   6.405   9.022  0.3870  0.2311 -0.0727
  134SAPE  H13S14493   3.441   6.457   9.132  0.4653  2.9746 -0.2251
  134SAPE  C21414494   3.435   6.552   8.943 -0.7202 -0.3199  0.5380
  134SAPE  H14R14495   3.366   6.625   8.986  0.5584  1.7776 -0.8112
  134SAPE  C21514496   3.471   6.562   8.817 -0.2014  0.3312  0.8859
  134SAPE  H15R14497   3.434   6.653   8.766  1.5220 -0.1505 -1.4137
  134SAPE  C21614498   3.548   6.472   8.730 -0.6799 -0.1152  0.3376
  134SAPE  H16R14499   3.479   6.401   8.680  0.8577 -2.4666  1.3631
  134SAPE  H16S14500   3.613   6.406   8.792 -0.1653  0.8979  0.9087
  134SAPE  C21714501   3.621   6.536   8.613  0.2356 -0.7557 -0.1622
  134SAPE  H17R14502   3.699   6.464   8.580  0.0726 -1.9639  1.8719
  134SAPE  H17S14503   3.687   6.621   8.640  1.3023 -0.9121 -2.0845
  134SAPE  C21814504   3.523   6.548   8.491  0.3502  0.3474  0.2573
  134SAPE  H18R14505   3.465   6.640   8.513  2.2492  1.8431 -0.6290
  134SAPE  H18S14506   3.464   6.455   8.482  1.5536 -0.3256 -1.0292
  134SAPE  C21914507   3.591   6.575   8.360  0.1902 -0.7309  0.7141
  134SAPE  H19R14508   3.517   6.596   8.280  0.6128  2.1318  0.9783
  134SAPE  H19S14509   3.651   6.485   8.331 -2.2539 -1.9760 -0.8012
  134SAPE  C22014510   3.696   6.688   8.365 -0.1353 -0.5068  0.2454
  134SAPE  H20R14511   3.756   6.687   8.271  0.8855  1.0937  0.8454
  134SAPE  H20S14512   3.773   6.671   8.444  3.1717 -0.6901 -2.7825
  134SAPE  H20T14513   3.653   6.787   8.388 -0.7805 -0.4944 -0.9404
  134SAPE   C3314514   3.315   5.550  10.056 -0.3606 -0.0394  0.0903
  134SAPE   H3X14515   3.275   5.492  10.142 -4.5203  1.9502 -0.2784
  134SAPE   H3Y14516   3.415   5.508  10.031 -0.0902  1.7369 -2.1427
  134SAPE   C3414517   3.242   5.530   9.919 -0.6163 -0.2190 -0.6231
  134SAPE   H4X14518   3.138   5.561   9.941 -1.3597 -1.6500 -1.8696
  134SAPE   H4Y14519   3.246   5.422   9.892  1.8099 -0.5161  0.6595
  134SAPE   C3514520   3.305   5.588   9.790 -0.2598 -0.6623 -0.1975
  134SAPE   H5X14521   3.405   5.541   9.791  0.1754  0.2572  0.0341
  134SAPE   H5Y14522   3.319   5.698   9.798  0.2849 -0.6823 -0.8057
  134SAPE   C3614523   3.227   5.551   9.663 -0.1343 -0.2238  0.6621
  134SAPE   H6X14524   3.133   5.610   9.659 -0.6250 -1.0096  0.3011
  134SAPE   H6Y14525   3.206   5.442   9.668  1.0432 -0.4376  1.2799
  134SAPE   C3714526   3.316   5.585   9.544 -0.2638 -0.4983 -0.4236
  134SAPE   H7X14527   3.424   5.558   9.549  0.6061  2.2169 -2.3211
  134SAPE   H7Y14528   3.327   5.695   9.541 -1.1730 -0.3706  0.4083
  134SAPE   C3814529   3.263   5.541   9.412 -0.2651 -0.3971 -0.2648
  134SAPE   H8X14530   3.156   5.572   9.403  0.0657  0.8587 -0.0993
  134SAPE   H8Y14531   3.260   5.431   9.397  0.5294 -0.9734  3.0400
  134SAPE   C3914532   3.340   5.594   9.292 -0.2150  0.0535  0.0555
  134SAPE   H9X14533   3.449   5.597   9.314 -0.1807  0.1156 -0.1215
  134SAPE   H9Y14534   3.328   5.703   9.275  3.1354  0.3833 -1.0898
  134SAPE  C31014535   3.296   5.529   9.155 -0.4501 -0.2824 -0.1849
  134SAPE  H10X14536   3.211   5.588   9.115 -0.2087 -0.4337 -0.9391
  134SAPE  H10Y14537   3.269   5.423   9.171  0.4457 -0.2962  1.4879
  134SAPE  C31114538   3.409   5.551   9.055 -0.4214 -0.6217  0.4155
  134SAPE  H11X14539   3.496   5.488   9.084  1.7672  1.8295 -0.4405
  134SAPE  H11Y14540   3.451   5.654   9.049  1.9416 -1.6018 -2.1382
  134SAPE  C31214541   3.370   5.521   8.908  0.3728 -0.0855  0.6365
  134SAPE  H12X14542   3.454   5.559   8.846 -1.3969  0.3455 -1.6655
  134SAPE  H12Y14543   3.279   5.570   8.867 -0.6641 -1.8217  0.7668
  134SAPE  C31314544   3.339   5.374   8.876  0.3430 -0.5956  0.3626
  134SAPE  H13X14545   3.255   5.329   8.931 -1.2491  0.9737 -0.6621
  134SAPE  H13Y14546   3.429   5.311   8.892  1.1244  0.1476 -0.8420
  134SAPE  C31414547   3.312   5.347   8.727 -0.1624 -0.5785 -0.2574
  134SAPE  H14X14548   3.404   5.372   8.670 -0.9296  0.5074 -1.0548
  134SAPE  H14Y14549   3.239   5.416   8.680 -0.7143 -0.9201  0.0916
  134SAPE  C31514550   3.262   5.202   8.695  0.5412 -0.1875 -0.2857
  134SAPE  H15X14551   3.182   5.178   8.769  1.5461  3.1649  2.0944
  134SAPE  H15Y14552   3.355   5.148   8.722  0.0041 -0.0536  2.0715
  134SAPE  C31614553   3.246   5.160   8.545  0.7500  0.3390 -0.0826
  134SAPE  H16X14554   3.326   5.225   8.504  0.2351  0.4157 -0.9854
  134SAPE  H16Y14555   3.148   5.203   8.512 -0.4260 -1.8910  0.3215
  134SAPE  C31714556   3.253   5.016   8.537 -0.4012 -0.7039  0.1010
  134SAPE  H17X14557   3.165   4.975   8.591 -2.6156  0.0326 -2.7265
  134SAPE  H17Y14558   3.348   4.997   8.591 -0.2427 -1.0129 -0.2791
  134SAPE  C31814559   3.266   4.960   8.397 -0.0054 -0.9447 -0.4985
  134SAPE  H18X14560   3.176   4.997   8.343 -0.5833  0.3362  1.2746
  134SAPE  H18Y14561   3.266   4.848   8.397  0.9628 -0.9495 -0.5971
  134SAPE  H18Z14562   3.363   4.991   8.352 -0.0864 -0.0167 -0.0385
  135SAPE     N14563   2.313   4.591  10.684 -0.2352 -0.1146 -0.4604
  135SAPE   HN114564   2.412   4.559  10.676  0.0868  0.9978 -1.0687
  135SAPE   HN214565   2.310   4.683  10.637 -1.6138 -0.7793 -1.7293
  135SAPE   HN314566   2.276   4.597  10.781  0.5513 -0.7550 -0.1046
  135SAPE   C1214567   2.217   4.507  10.601  0.5516 -0.8561 -0.5306
  135SAPE  H12A14568   2.260   4.486  10.501  0.8902 -0.8325 -0.3930
  135SAPE  H12B14569   2.115   4.550  10.595  1.3485  1.3103  0.4401
  135SAPE   C1114570   2.214   4.369  10.680  0.4782  0.6954 -0.1874
  135SAPE  H11A14571   2.140   4.372  10.764 -3.0215  3.2477 -3.0427
  135SAPE  H11B14572   2.316   4.343  10.714  0.9874 -1.1510 -2.8415
  135SAPE     P14573   2.031   4.196  10.581 -0.3448 -0.1010 -0.0415
  135SAPE   O1314574   2.047   4.082  10.677 -0.2415  0.2852 -0.1263
  135SAPE   O1414575   1.924   4.296  10.609 -0.2091 -0.4743  0.2285
  135SAPE   O1214576   2.168   4.275  10.580 -0.4048  0.3807 -0.2122
  135SAPE   O1114577   2.029   4.144  10.428  0.0761  0.1159 -0.2618
  135SAPE    C114578   2.090   4.229  10.325  0.1974  0.6805 -0.4395
  135SAPE    HA14579   2.181   4.285  10.357 -0.2039 -0.0054  2.0729
  135SAPE    HB14580   2.124   4.159  10.246 -0.3845 -0.2848  0.1479
  135SAPE    C214581   1.991   4.318  10.242  0.0746  0.0258  0.5312
  135SAPE    HS14582   1.891   4.270  10.244  0.3630 -1.1157 -3.3040
  135SAPE   O2114583   2.035   4.315  10.110 -0.2846 -0.1524  0.7057
  135SAPE   C2114584   1.943   4.348  10.016 -0.1613 -0.3118  0.0547
  135SAPE   O2214585   1.824   4.369  10.038 -0.4497 -0.1810 -0.0163
  135SAPE   C2214586   1.997   4.319   9.870  0.2368 -0.7401  0.1152
  135SAPE   H2R14587   2.087   4.253   9.879  0.4356 -0.4658  0.1557
  135SAPE   H2S14588   1.911   4.273   9.817  0.2840 -0.2428 -0.3908
  135SAPE    C314589   1.976   4.462  10.296 -0.7707 -0.4035 -0.3055
  135SAPE    HX14590   1.950   4.456  10.404 -1.7218 -0.0909 -0.5077
  135SAPE    HY14591   1.894   4.525  10.255  0.0275  2.0121  1.5678
  135SAPE   O3114592   2.106   4.527  10.292 -0.1497  0.1748 -0.4720
  135SAPE   C3114593   2.121   4.602  10.179  0.0845 -0.3624 -0.2277
  135SAPE   O3214594   2.052   4.602  10.083 -0.4368 -0.3114  0.1255
  135SAPE   C3214595   2.252   4.693  10.191  0.0619  0.1182 -0.3601
  135SAPE   H2X14596   2.336   4.628  10.224  0.5844  1.2488  0.5955
  135SAPE   H2Y14597   2.223   4.753  10.280 -2.4998 -0.7888 -0.4692
  135SAPE   C2314598   2.046   4.448   9.791 -0.4041 -0.1323  0.0310
  135SAPE   H3R14599   2.097   4.411   9.699  2.2994  2.8423  0.1369
  135SAPE   H3S14600   2.119   4.490   9.863  0.4653  0.1571 -0.9936
  135SAPE   C2414601   1.939   4.543   9.762  0.4047  0.5433 -0.0455
  135SAPE   H4R14602   1.888   4.581   9.853 -0.2355  0.0392 -0.1882
  135SAPE   H4S14603   1.856   4.501   9.700 -0.4950 -2.0177  2.6873
  135SAPE   C2514604   2.004   4.660   9.684  0.3523  0.1430 -0.0970
  135SAPE   H5R14605   2.045   4.732   9.756 -0.8146 -0.9443  1.7596
  135SAPE   C2614606   2.014   4.674   9.551  0.5030 -0.7365  0.1810
  135SAPE   H6R14607   2.057   4.765   9.505 -0.0163 -1.1207 -1.0898
  135SAPE   C2714608   1.952   4.576   9.454 -0.1622 -0.4465  0.7471
  135SAPE   H7R14609   1.885   4.638   9.390 -1.5148 -1.7644  0.8252
  135SAPE   H7S14610   1.883   4.501   9.499 -1.5663  1.0770  1.2509
  135SAPE   C2814611   2.059   4.506   9.377 -0.0214 -0.0959  0.2999
  135SAPE   H8R14612   2.099   4.418   9.429 -0.5331  0.3529  1.5121
  135SAPE   C2914613   2.106   4.533   9.256 -0.1653  0.0781 -0.0902
  135SAPE   H9R14614   2.182   4.465   9.215  0.2325 -1.3186  2.7281
  135SAPE  C21014615   2.064   4.651   9.161 -0.6000  0.4820  0.6927
  135SAPE  H10R14616   2.153   4.713   9.136 -1.3707  1.2633 -0.1640
  135SAPE  H10S14617   2.006   4.721   9.224 -0.0837  0.1235  1.5928
  135SAPE  C21114618   1.992   4.604   9.042 -0.1044 -0.2153 -0.2939
  135SAPE  H11R14619   1.902   4.543   9.062  0.0226 -0.7442 -1.2881
  135SAPE  C21214620   2.020   4.639   8.913 -0.1859 -0.6320  0.0135
  135SAPE  H12R14621   1.959   4.593   8.833 -1.3462  0.8680  0.0001
  135SAPE  C21314622   2.130   4.716   8.851  0.4541 -0.4039  0.3755
  135SAPE  H13R14623   2.153   4.649   8.765 -1.1871 -2.6568  1.5559
  135SAPE  H13S14624   2.217   4.721   8.920  0.7176 -0.8910  0.0867
  135SAPE  C21414625   2.073   4.848   8.813 -0.5238 -0.3670 -0.0314
  135SAPE  H14R14626   2.011   4.904   8.884 -0.4164 -1.2183  0.7565
  135SAPE  C21514627   2.085   4.903   8.692 -0.3235 -0.0971  0.4613
  135SAPE  H15R14628   2.050   5.006   8.675  0.4669 -0.2382 -2.6067
  135SAPE  C21614629   2.164   4.847   8.582  0.0781  0.8300  0.4756
  135SAPE  H16R14630   2.251   4.798   8.631 -0.5528  0.6765  1.4732
  135SAPE  H16S14631   2.213   4.928   8.523  1.2310 -1.7840 -2.4813
  135SAPE  C21714632   2.083   4.747   8.487 -0.3302 -0.4446  0.2231
  135SAPE  H17R14633   2.006   4.814   8.443  1.9006  0.7247 -2.1595
  135SAPE  H17S14634   2.023   4.676   8.548  1.9161 -0.2656  2.8600
  135SAPE  C21814635   2.171   4.677   8.380  0.7417  0.0155  0.0242
  135SAPE  H18R14636   2.249   4.631   8.445 -1.0259 -1.0529  1.5044
  135SAPE  H18S14637   2.206   4.746   8.300 -0.9881  0.6362 -0.2430
  135SAPE  C21914638   2.081   4.572   8.308 -0.2865 -0.1412 -0.2152
  135SAPE  H19R14639   2.000   4.636   8.267  1.4226  1.4401 -1.2510
  135SAPE  H19S14640   2.048   4.498   8.384 -0.2719  0.4363  0.3645
  135SAPE  C22014641   2.152   4.492   8.196 -0.7563 -0.7614  0.5649
  135SAPE  H20R14642   2.070   4.424   8.163 -3.2443  1.2560  2.1642
  135SAPE  H20S14643   2.244   4.437   8.225  0.3279 -0.0724 -1.3507
  135SAPE  H20T14644   2.180   4.558   8.111 -0.3065  0.0673  1.3338
  135SAPE   C3314645   2.262   4.790  10.066  0.5022 -0.4464 -0.8464
  135SAPE   H3X14646   2.192   4.876  10.071  0.1450 -0.8210  1.0284
  135SAPE   H3Y14647   2.245   4.742   9.967 -0.9139 -2.3696  0.2538
  135SAPE   C3414648   2.400   4.864  10.062  0.7979 -0.1295  0.3193
  135SAPE   H4X14649   2.476   4.785  10.042 -3.4078 -3.6578 -4.3484
  135SAPE   H4Y14650   2.411   4.925  10.154 -0.0179  2.4253 -1.1786
  135SAPE   C3514651   2.410   4.967   9.948  0.7868  0.1933 -0.0058
  135SAPE   H5X14652   2.456   5.061   9.988  0.4586  0.1416  0.5090
  135SAPE   H5Y14653   2.313   5.010   9.915  0.2690 -0.0683  1.1252
  135SAPE   C3614654   2.498   4.916   9.826 -0.7751 -0.3456 -0.1754
  135SAPE   H6X14655   2.523   4.809   9.843  2.2871  0.2029 -0.6870
  135SAPE   H6Y14656   2.593   4.973   9.835 -0.3836 -0.9009 -0.7234
  135SAPE   C3714657   2.438   4.945   9.689  0.2703 -0.2130 -0.0883
  135SAPE   H7X14658   2.400   5.049   9.695 -0.8687 -0.6298  0.2522
  135SAPE   H7Y14659   2.357   4.872   9.669  1.5142 -1.5702 -0.3233
  135SAPE   C3814660   2.546   4.938   9.573  0.2039 -0.0732 -1.0312
  135SAPE   H8X14661   2.582   4.833   9.565  1.1510  0.2394 -0.9297
  135SAPE   H8Y14662   2.629   4.999   9.611 -0.7522  0.0709  0.9492
  135SAPE   C3914663   2.488   4.963   9.433 -0.6321  0.0999  0.4981
  135SAPE   H9X14664   2.566   4.972   9.354 -2.6064 -1.4349 -1.7755
  135SAPE   H9Y14665   2.431   5.058   9.437  0.3905  0.6850  3.0225
  135SAPE  C31014666   2.407   4.851   9.374 -0.3254 -0.0059  0.5247
  135SAPE  H10X14667   2.353   4.895   9.287 -0.2573 -3.1719 -1.2758
  135SAPE  H10Y14668   2.329   4.824   9.448 -0.4402  1.3014  0.9120
  135SAPE  C31114669   2.504   4.746   9.310  0.6220  0.0000 -0.3706
  135SAPE  H11X14670   2.434   4.665   9.281 -1.9842  2.7297 -2.2844
  135SAPE  H11Y14671   2.583   4.715   9.382  2.4772  2.2303 -1.2976
  135SAPE  C31214672   2.566   4.790   9.177 -0.5147  0.1171  0.5639
  135SAPE  H12X14673   2.615   4.696   9.143  0.3428  0.2846  1.2842
  135SAPE  H12Y14674   2.638   4.873   9.195  1.5895 -1.3388 -0.7250
  135SAPE  C31314675   2.480   4.832   9.054  0.3860  0.5441  0.0829
  135SAPE  H13X14676   2.423   4.922   9.085 -0.2159  0.0949  0.2855
  135SAPE  H13Y14677   2.411   4.751   9.024  1.4894 -1.4507  2.5662
  135SAPE  C31414678   2.575   4.864   8.939 -0.0522  0.5758  0.2390
  135SAPE  H14X14679   2.652   4.785   8.927 -1.1104 -0.5942  0.9148
  135SAPE  H14Y14680   2.622   4.961   8.965 -1.1536  0.9198  1.0158
  135SAPE  C31514681   2.498   4.879   8.809  0.1277  0.2380  0.0354
  135SAPE  H15X14682   2.428   4.965   8.818 -0.7984 -0.2105 -2.2006
  135SAPE  H15Y14683   2.424   4.802   8.778 -0.2876  0.7124 -0.1750
  135SAPE  C31614684   2.591   4.918   8.694 -0.0186  0.1404 -0.0574
  135SAPE  H16X14685   2.627   5.020   8.719 -2.6228  1.1781 -0.2081
  135SAPE  H16Y14686   2.522   4.936   8.609 -0.0904 -1.1185 -0.2888
  135SAPE  C31714687   2.697   4.820   8.659 -0.6361 -0.0554  0.2254
  135SAPE  H17X14688   2.648   4.722   8.639  0.5050 -0.5972 -0.0540
  135SAPE  H17Y14689   2.775   4.816   8.738 -0.6296  1.4655  0.3314
  135SAPE  C31814690   2.762   4.874   8.530 -0.3683 -0.7940 -0.0903
  135SAPE  H18X14691   2.828   4.802   8.475 -0.8842  0.1025 -1.9612
  135SAPE  H18Y14692   2.845   4.945   8.551  0.6757 -1.7190 -0.9205
  135SAPE  H18Z14693   2.687   4.920   8.463 -2.9400 -2.5941  1.3478
  136SAPE     N14694   5.974   3.429  10.942 -0.5909  0.2879 -0.4054
  136SAPE   HN114695   6.011   3.394  11.033  1.3438 -0.3421 -1.3798
  136SAPE   HN214696   6.014   3.524  10.926  0.1712  0.2860  1.2579
  136SAPE   HN314697   5.871   3.433  10.955 -0.4634  0.1500  0.8033
  136SAPE   C1214698   6.010   3.332  10.841  0.2285  0.3638  0.3252
  136SAPE  H12A14699   5.936   3.355  10.760 -0.9622 -0.2703  1.2111
  136SAPE  H12B14700   5.989   3.231  10.882  0.6826  1.0303  2.2637
  136SAPE   C1114701   6.159   3.341  10.796  0.6574  0.8806 -0.2198
  136SAPE  H11A14702   6.178   3.257  10.726  2.2574 -0.0789  1.2945
  136SAPE  H11B14703   6.224   3.331  10.886  0.5358  1.4333 -0.0663
  136SAPE     P14704   6.322   3.522  10.707  0.5105 -0.3121  0.2702
  136SAPE   O1314705   6.312   3.661  10.664  0.9937  0.0902 -0.4642
  136SAPE   O1414706   6.404   3.491  10.824  0.0920  0.2131  0.0660
  136SAPE   O1214707   6.181   3.462  10.732  0.3857 -0.7235 -0.0900
  136SAPE   O1114708   6.390   3.436  10.592  0.1787 -0.0075  0.1975
  136SAPE    C114709   6.313   3.357  10.506 -0.1104 -0.4225  0.6465
  136SAPE    HA14710   6.352   3.253  10.498 -0.4503 -0.6999  2.2642
  136SAPE    HB14711   6.209   3.340  10.540  0.2702 -1.0568  1.5396
  136SAPE    C214712   6.304   3.431  10.370  0.3062 -0.9164  0.2102
  136SAPE    HS14713   6.227   3.510  10.366 -0.2397 -1.4943 -1.6644
  136SAPE   O2114714   6.271   3.345  10.265  0.0078 -0.4521 -0.2062
  136SAPE   C2114715   6.158   3.291  10.274 -0.4514  0.5149 -0.1278
  136SAPE   O2214716   6.068   3.316  10.348  0.1896  0.0041 -0.5075
  136SAPE   C2214717   6.136   3.208  10.144  0.1271  1.1487 -0.3565
  136SAPE   H2R14718   6.196   3.255  10.063  0.6461  0.7507 -0.2056
  136SAPE   H2S14719   6.175   3.107  10.167  0.4952  1.8487  2.4699
  136SAPE    C314720   6.439   3.506  10.323 -0.4117 -0.1965 -0.2004
  136SAPE    HX14721   6.510   3.422  10.310  0.7626  0.7021  0.1811
  136SAPE    HY14722   6.485   3.563  10.407  0.0807 -1.4985  0.4399
  136SAPE   O3114723   6.425   3.596  10.210  0.9042 -0.1146 -0.6584
  136SAPE   C3114724   6.539   3.643  10.168  0.0616  0.6229  0.0207
  136SAPE   O3214725   6.651   3.615  10.219 -0.2572 -0.4134  0.1463
  136SAPE   C3214726   6.519   3.731  10.048 -0.3628  0.3227 -0.7398
  136SAPE   H2X14727   6.564   3.828  10.077  0.4840 -0.7357  1.7398
  136SAPE   H2Y14728   6.411   3.739  10.023 -0.4683  1.9674  0.1424
  136SAPE   C2314729   5.994   3.218  10.090 -0.0907 -0.3039  0.0439
  136SAPE   H3R14730   5.982   3.325  10.063 -1.0439 -0.7253 -1.3261
  136SAPE   H3S14731   5.921   3.186  10.168 -0.9901  1.3055 -0.1120
  136SAPE   C2414732   5.970   3.145   9.958 -0.4385 -0.1201  0.9565
  136SAPE   H4R14733   6.043   3.183   9.884 -2.1066  0.5602 -0.4053
  136SAPE   H4S14734   5.871   3.174   9.916  0.1735 -1.1279 -1.3304
  136SAPE   C2514735   5.963   2.996   9.963 -0.9563 -0.3838  0.0394
  136SAPE   H5R14736   5.883   2.954  10.026  1.5887 -2.4760  2.1223
  136SAPE   C2614737   6.040   2.911   9.885 -0.0599 -0.5044 -0.0022
  136SAPE   H6R14738   6.018   2.804   9.897  0.7184 -0.8853 -1.5727
  136SAPE   C2714739   6.139   2.945   9.773  0.3031 -0.0188  0.4396
  136SAPE   H7R14740   6.242   2.936   9.815 -0.2889 -2.6181  1.5520
  136SAPE   H7S14741   6.136   3.053   9.745 -0.6106 -0.7981 -2.8759
  136SAPE   C2814742   6.126   2.852   9.652 -0.2834  0.3194 -0.8412
  136SAPE   H8R14743   6.150   2.745   9.670 -0.1384 -0.0058 -2.8133
  136SAPE   C2914744   6.091   2.890   9.529 -0.7921 -0.0309  0.3091
  136SAPE   H9R14745   6.090   2.808   9.456  0.6468  0.5304 -0.3694
  136SAPE  C21014746   6.042   3.025   9.481  0.7414  0.3829  0.3451
  136SAPE  H10R14747   6.123   3.067   9.417  1.6448  0.3157  1.4091
  136SAPE  H10S14748   6.044   3.106   9.558 -0.2266  2.3096 -1.5318
  136SAPE  C21114749   5.911   3.013   9.405  0.4034  0.0836 -0.0162
  136SAPE  H11R14750   5.829   3.037   9.474 -1.1876  0.0885 -1.8212
  136SAPE  C21214751   5.889   2.957   9.283 -0.1379  0.9880  0.0362
  136SAPE  H12R14752   5.787   2.960   9.242 -0.3164  1.1506  0.4794
  136SAPE  C21314753   5.991   2.883   9.201 -1.0157  0.4110 -0.6234
  136SAPE  H13R14754   6.006   2.778   9.234  2.4084  1.0016  0.1102
  136SAPE  H13S14755   6.091   2.927   9.221 -0.5873 -0.2699 -1.2102
  136SAPE  C21414756   5.959   2.877   9.050 -0.0661  0.3858  0.1602
  136SAPE  H14R14757   6.026   2.942   8.991 -0.7325  0.3454 -0.6629
  136SAPE  C21514758   5.870   2.802   8.985 -0.0445  0.5263 -0.0704
  136SAPE  H15R14759   5.878   2.811   8.875  2.2003  1.0489  0.0844
  136SAPE  C21614760   5.774   2.703   9.033 -0.6012  0.8871 -0.2158
  136SAPE  H16R14761   5.765   2.720   9.143 -1.1927  3.1758 -0.5710
  136SAPE  H16S14762   5.819   2.602   9.022  0.8057  1.3004  1.2692
  136SAPE  C21714763   5.638   2.707   8.969  0.2885 -0.3741  0.5488
  136SAPE  H17R14764   5.585   2.805   8.979  1.4158  0.5171 -1.5571
  136SAPE  H17S14765   5.571   2.628   9.011 -0.5414 -0.2297 -0.4551
  136SAPE  C21814766   5.634   2.687   8.816 -0.8018 -0.5606  0.1075
  136SAPE  H18R14767   5.689   2.595   8.788 -0.0316  0.2778 -1.2101
  136SAPE  H18S14768   5.696   2.764   8.766  0.4268 -1.6251 -0.0511
  136SAPE  C21914769   5.499   2.680   8.746  0.2636  0.4201 -0.6234
  136SAPE  H19R14770   5.446   2.777   8.749  2.1116  1.4790 -0.5086
  136SAPE  H19S14771   5.430   2.608   8.795  0.1558  0.7616 -0.2649
  136SAPE  C22014772   5.518   2.634   8.604 -0.4422  0.5286  0.3345
  136SAPE  H20R14773   5.578   2.541   8.593 -0.8400  0.2828  0.2292
  136SAPE  H20S14774   5.574   2.706   8.541  1.1495 -1.7458 -1.0157
  136SAPE  H20T14775   5.419   2.620   8.556 -1.5823 -1.6340  3.0306
  136SAPE   C3314776   6.583   3.671   9.927 -0.0236  0.0826  0.7617
  136SAPE   H3X14777   6.533   3.573   9.912 -1.2587  0.6980  0.6929
  136SAPE   H3Y14778   6.693   3.662   9.942 -0.0838 -3.1788 -0.1539
  136SAPE   C3414779   6.563   3.779   9.810 -0.3862  0.1231 -0.0672
  136SAPE   H4X14780   6.592   3.874   9.859  1.5903 -0.3788 -0.1747
  136SAPE   H4Y14781   6.454   3.783   9.793 -0.6381 -0.0088  1.3642
  136SAPE   C3514782   6.638   3.744   9.682 -0.1616  0.3290  0.3941
  136SAPE   H5X14783   6.744   3.736   9.716 -0.5778  0.0579  1.6698
  136SAPE   H5Y14784   6.626   3.817   9.599  1.4164 -0.0144 -0.1788
  136SAPE   C3614785   6.595   3.602   9.622  0.7014  0.7489  0.4070
  136SAPE   H6X14786   6.484   3.599   9.616  0.7740  0.5808 -1.0665
  136SAPE   H6Y14787   6.640   3.524   9.688  0.3802  0.4688  0.2979
  136SAPE   C3714788   6.653   3.596   9.477 -0.5734  0.4961  0.0807
  136SAPE   H7X14789   6.760   3.613   9.504 -0.3350 -1.3921  0.4805
  136SAPE   H7Y14790   6.608   3.677   9.417  2.5754  1.5780 -1.0471
  136SAPE   C3814791   6.637   3.465   9.407 -0.3084 -0.3912 -0.2557
  136SAPE   H8X14792   6.529   3.449   9.388 -0.6544 -0.0283  1.3035
  136SAPE   H8Y14793   6.680   3.389   9.475 -0.1454 -0.9630 -0.9833
  136SAPE   C3914794   6.713   3.458   9.277 -0.0689 -0.1728 -1.3754
  136SAPE   H9X14795   6.821   3.454   9.303  0.4572 -0.1697 -3.3908
  136SAPE   H9Y14796   6.694   3.553   9.223  0.9384 -0.1170 -1.6517
  136SAPE  C31014797   6.677   3.335   9.189  0.1615 -0.0213 -0.4579
  136SAPE  H10X14798   6.567   3.319   9.189 -0.0595  1.0538  1.9371
  136SAPE  H10Y14799   6.705   3.239   9.235  0.6321  0.1989 -0.2786
  136SAPE  C31114800   6.713   3.350   9.037 -0.4661  0.2419 -0.7643
  136SAPE  H11X14801   6.822   3.369   9.041 -0.9124  3.0538 -0.1246
  136SAPE  H11Y14802   6.666   3.444   8.999  1.7511  1.8129  0.1919
  136SAPE  C31214803   6.674   3.227   8.953  0.4896  0.6028 -0.2974
  136SAPE  H12X14804   6.566   3.206   8.968  0.9577 -3.0760 -1.0237
  136SAPE  H12Y14805   6.735   3.139   8.983 -0.9704 -1.1727 -2.2338
  136SAPE  C31314806   6.688   3.250   8.802 -0.4906  0.2709 -0.5989
  136SAPE  H13X14807   6.788   3.294   8.778  0.1746 -0.0583  1.3273
  136SAPE  H13Y14808   6.613   3.324   8.768 -1.2947 -0.8122 -1.2094
  136SAPE  C31414809   6.668   3.115   8.726 -0.2960 -0.1602 -0.0764
  136SAPE  H14X14810   6.749   3.041   8.742 -0.1566  0.3867  2.1031
  136SAPE  H14Y14811   6.658   3.139   8.618  1.7730 -1.4875 -0.6188
  136SAPE  C31514812   6.537   3.045   8.766 -0.2125 -0.0057 -0.3426
  136SAPE  H15X14813   6.455   3.120   8.763  1.3851  1.7903 -1.9180
  136SAPE  H15Y14814   6.547   3.014   8.872  1.4357  0.1158 -0.4368
  136SAPE  C31614815   6.504   2.923   8.675 -0.4799  0.4048 -0.3485
  136SAPE  H16X14816   6.587   2.852   8.696 -1.0433  0.2297  1.3905
  136SAPE  H16Y14817   6.518   2.960   8.571  1.9876 -0.6984 -0.4831
  136SAPE  C31714818   6.361   2.870   8.684  0.1810 -0.0702  0.8144
  136SAPE  H17X14819   6.342   2.773   8.634  1.2648 -1.0289  2.2008
  136SAPE  H17Y14820   6.300   2.932   8.614  0.0508 -0.6096  0.4476
  136SAPE  C31814821   6.289   2.879   8.820  0.0500  1.0531  0.2829
  136SAPE  H18X14822   6.325   2.805   8.894 -0.1056  2.5827  1.9479
  136SAPE  H18Y14823   6.186   2.843   8.804  0.5530 -1.3218  1.9716
  136SAPE  H18Z14824   6.298   2.975   8.875  2.2527  1.0203  0.0983
  137SAPE     N14825   4.196   0.467  10.737  0.0580 -0.4514 -0.0694
  137SAPE   HN114826   4.279   0.524  10.762  0.1963 -0.6921  0.0168
  137SAPE   HN214827   4.224   0.422  10.648 -1.7201 -0.2975 -0.7549
  137SAPE   HN314828   4.105   0.519  10.733  0.4713  0.6040  2.4717
  137SAPE   C1214829   4.172   0.378  10.847 -0.6154 -0.2671  0.1318
  137SAPE  H12A14830   4.113   0.291  10.811  0.1135 -0.8175  0.2537
  137SAPE  H12B14831   4.131   0.442  10.928  0.9183  0.9027  0.0397
  137SAPE   C1114832   4.303   0.329  10.902  0.5531 -0.1879 -0.2082
  137SAPE  H11A14833   4.345   0.276  10.814 -0.5588  1.2335 -1.6477
  137SAPE  H11B14834   4.279   0.265  10.990 -0.9480  0.7971  0.1372
  137SAPE     P14835   4.553   0.412  10.926  0.7501 -0.1749 -0.0129
  137SAPE   O1314836   4.636   0.531  10.970 -0.0990 -0.1486 -0.1037
  137SAPE   O1414837   4.573   0.287  10.993 -0.1459  0.2924  0.8053
  137SAPE   O1214838   4.392   0.438  10.933 -0.4734 -0.9042 -0.0851
  137SAPE   O1114839   4.584   0.393  10.771 -0.0544  0.1121 -0.2002
  137SAPE    C114840   4.570   0.512  10.698  0.0997  0.1290  0.4070
  137SAPE    HA14841   4.463   0.518  10.667  0.0191 -1.9466  0.1311
  137SAPE    HB14842   4.598   0.603  10.755 -0.5973  0.7547 -0.2267
  137SAPE    C214843   4.667   0.515  10.572  0.2063  0.0779 -0.0668
  137SAPE    HS14844   4.649   0.600  10.504  0.7565  0.3719  0.1511
  137SAPE   O2114845   4.648   0.393  10.494  0.3883 -0.3459  0.1376
  137SAPE   C2114846   4.536   0.396  10.425  0.1902  0.0979  0.9002
  137SAPE   O2214847   4.455   0.485  10.414 -0.0556  0.9877  0.0538
  137SAPE   C2214848   4.515   0.261  10.356  0.2505 -0.6185 -0.2761
  137SAPE   H2R14849   4.595   0.186  10.376 -0.1618 -1.1848 -0.7380
  137SAPE   H2S14850   4.421   0.222  10.400 -1.1312 -0.0266 -2.5505
  137SAPE    C314851   4.820   0.526  10.625 -0.1364  0.3125 -0.1394
  137SAPE    HX14852   4.830   0.464  10.716  2.7385  0.8095 -0.0464
  137SAPE    HY14853   4.839   0.627  10.668  0.9422 -1.1080  2.9764
  137SAPE   O3114854   4.905   0.485  10.522 -0.4631 -0.1435 -0.7743
  137SAPE   C3114855   4.974   0.574  10.453  0.1515 -0.1480 -0.1478
  137SAPE   O3214856   4.966   0.695  10.467 -0.4338 -0.8313 -0.2234
  137SAPE   C3214857   5.058   0.510  10.346  0.0970  0.4982  0.1761
  137SAPE   H2X14858   4.994   0.470  10.265  0.6039 -0.5914  0.2963
  137SAPE   H2Y14859   5.119   0.430  10.393  0.1428 -0.2458 -1.1004
  137SAPE   C2314860   4.494   0.286  10.204  0.0587  0.2611  0.1834
  137SAPE   H3R14861   4.398   0.338  10.182 -0.8758 -1.5272 -0.1724
  137SAPE   H3S14862   4.492   0.184  10.159 -0.2552 -0.9624  2.7577
  137SAPE   C2414863   4.600   0.372  10.138 -0.1569 -0.6738 -0.2585
  137SAPE   H4R14864   4.583   0.477  10.170  2.1772 -0.3661  0.0795
  137SAPE   H4S14865   4.577   0.364  10.029  1.0465  0.5127 -0.6151
  137SAPE   C2514866   4.751   0.338  10.177  0.4751 -0.3796 -0.6845
  137SAPE   H5R14867   4.775   0.328  10.284 -1.4380  0.7514 -0.0863
  137SAPE   C2614868   4.849   0.322  10.084  0.3326 -0.6326 -0.3453
  137SAPE   H6R14869   4.945   0.285  10.121 -0.6690 -1.0020  2.0595
  137SAPE   C2714870   4.837   0.329   9.931  0.1074 -0.2838 -0.2616
  137SAPE   H7R14871   4.888   0.413   9.879 -3.0926  1.1691 -1.3230
  137SAPE   H7S14872   4.731   0.345   9.903 -0.4760 -0.5765  1.6578
  137SAPE   C2814873   4.892   0.204   9.863  0.3184 -0.6292  0.1420
  137SAPE   H8R14874   5.000   0.197   9.881  0.4253  0.9505  0.2269
  137SAPE   C2914875   4.825   0.111   9.797  0.2311  0.2922  0.5257
  137SAPE   H9R14876   4.885   0.023   9.770  1.1960  0.9362  0.5337
  137SAPE  C21014877   4.676   0.105   9.769 -0.0752 -0.6708 -0.3178
  137SAPE  H10R14878   4.635   0.207   9.753 -0.6153 -0.7445  0.5871
  137SAPE  H10S14879   4.637   0.070   9.866 -2.5440  1.7933 -0.2938
  137SAPE  C21114880   4.645   0.017   9.656 -0.0488 -0.3187  0.1375
  137SAPE  H11R14881   4.629  -0.084   9.695 -1.5681  0.3907  1.5052
  137SAPE  C21214882   4.626   0.051   9.526  0.5307  1.3221  0.4092
  137SAPE  H12R14883   4.591  -0.030   9.460  3.1882 -1.1031  1.7046
  137SAPE  C21314884   4.642   0.191   9.482 -0.0689  0.1516 -0.3656
  137SAPE  H13R14885   4.711   0.245   9.551 -0.1499 -0.0740 -0.1034
  137SAPE  H13S14886   4.543   0.240   9.485 -0.8809 -1.4793  0.4044
  137SAPE  C21414887   4.705   0.206   9.344 -0.3672  0.0186 -0.0017
  137SAPE  H14R14888   4.814   0.208   9.330 -0.6108  1.0462 -2.3065
  137SAPE  C21514889   4.629   0.238   9.234  0.5501 -0.0287  1.0999
  137SAPE  H15R14890   4.672   0.245   9.133 -0.1519 -0.3390  0.7765
  137SAPE  C21614891   4.483   0.257   9.218 -0.5733  0.3341 -0.2635
  137SAPE  H16R14892   4.454   0.364   9.214  0.7212  0.7113  0.0396
  137SAPE  H16S14893   4.434   0.211   9.306 -0.4348  1.4799  0.4292
  137SAPE  C21714894   4.410   0.190   9.100  0.1642  0.4941 -0.0697
  137SAPE  H17R14895   4.301   0.187   9.124  0.0304  2.1515 -0.3015
  137SAPE  H17S14896   4.432   0.082   9.097  0.4662  0.4767  1.6858
  137SAPE  C21814897   4.422   0.252   8.957 -0.4686  0.3546 -0.7015
  137SAPE  H18R14898   4.520   0.229   8.910  0.4042  1.4226  0.5188
  137SAPE  H18S14899   4.414   0.363   8.961  0.9448  0.4955 -0.9831
  137SAPE  C21914900   4.321   0.197   8.856 -0.4470  0.5368 -0.1328
  137SAPE  H19R14901   4.226   0.214   8.911 -1.4840 -2.7709 -0.7280
  137SAPE  H19S14902   4.340   0.088   8.853  0.2167  0.5269  2.2961
  137SAPE  C22014903   4.330   0.257   8.717  0.4424  0.7413 -0.5707
  137SAPE  H20R14904   4.325   0.367   8.730 -1.8024  0.4562  1.7076
  137SAPE  H20S14905   4.241   0.220   8.662  1.6069 -1.0011 -1.3902
  137SAPE  H20T14906   4.425   0.232   8.665 -0.6573 -1.7792 -1.5717
  137SAPE   C3314907   5.148   0.607  10.265  0.2525  0.2355 -0.7093
  137SAPE   H3X14908   5.218   0.657  10.334 -1.2699 -0.7082  1.6654
  137SAPE   H3Y14909   5.078   0.678  10.216 -2.1947 -1.3783  0.2467
  137SAPE   C3414910   5.238   0.546  10.165 -0.1649 -1.0389 -0.3319
  137SAPE   H4X14911   5.201   0.454  10.115  0.6348 -2.2166  1.1558
  137SAPE   H4Y14912   5.321   0.503  10.225 -0.4712 -0.0296  0.8878
  137SAPE   C3514913   5.296   0.646  10.060 -0.5045  0.3753  0.1427
  137SAPE   H5X14914   5.315   0.744  10.110  2.2971 -0.6624  1.2943
  137SAPE   H5Y14915   5.225   0.660   9.976  2.1254  1.2751 -2.0690
  137SAPE   C3614916   5.430   0.581  10.012  0.3001 -0.0989 -0.5105
  137SAPE   H6X14917   5.403   0.475   9.993  0.9828 -0.4044  0.1996
  137SAPE   H6Y14918   5.501   0.580  10.097  1.7898  1.9316 -1.6359
  137SAPE   C3714919   5.507   0.648   9.896  0.8929 -0.1610 -0.8079
  137SAPE   H7X14920   5.610   0.608   9.885  0.4186 -1.6861  0.0380
  137SAPE   H7Y14921   5.513   0.753   9.931 -1.1876  0.3273 -1.7598
  137SAPE   C3814922   5.430   0.634   9.767 -0.4029  0.2714  0.0969
  137SAPE   H8X14923   5.328   0.671   9.789 -0.8707 -1.2631  0.5934
  137SAPE   H8Y14924   5.429   0.530   9.728 -1.2620 -0.1602  1.2174
  137SAPE   C3914925   5.500   0.722   9.658  0.5400 -0.0170 -0.2006
  137SAPE   H9X14926   5.606   0.690   9.646  0.7261  0.6390 -0.3453
  137SAPE   H9Y14927   5.502   0.829   9.686  0.0446  0.0901 -0.5693
  137SAPE  C31014928   5.428   0.713   9.525 -0.8744 -0.6290  0.9209
  137SAPE  H10X14929   5.319   0.734   9.536 -1.3446 -3.0346  1.6176
  137SAPE  H10Y14930   5.440   0.612   9.479  0.0119 -0.2412  0.2761
  137SAPE  C31114931   5.487   0.810   9.421 -0.8945  0.1066 -0.5120
  137SAPE  H11X14932   5.597   0.796   9.417 -1.0861 -2.8014  1.2567
  137SAPE  H11Y14933   5.464   0.914   9.450 -2.6961 -0.5456  0.5421
  137SAPE  C31214934   5.429   0.809   9.278  1.0277  0.1526 -0.7392
  137SAPE  H12X14935   5.330   0.857   9.288  1.7330  1.5897 -0.2461
  137SAPE  H12Y14936   5.421   0.700   9.261 -2.4301  0.3893 -1.2179
  137SAPE  C31314937   5.512   0.879   9.173  0.7914  0.4058 -0.0927
  137SAPE  H13X14938   5.615   0.839   9.171 -0.2259 -2.4439 -1.7334
  137SAPE  H13Y14939   5.520   0.987   9.200  1.7407  0.5709 -0.9769
  137SAPE  C31414940   5.453   0.860   9.036 -0.3563 -0.5440 -0.1214
  137SAPE  H14X14941   5.345   0.883   9.050 -0.7454 -3.8620  3.9761
  137SAPE  H14Y14942   5.454   0.752   9.012 -2.7552 -0.6853  0.1439
  137SAPE  C31514943   5.532   0.916   8.914  0.3719 -0.3092  0.2400
  137SAPE  H15X14944   5.640   0.892   8.926 -0.0173 -0.9295  3.1415
  137SAPE  H15Y14945   5.530   1.027   8.914 -0.3719 -0.3164 -0.4532
  137SAPE  C31614946   5.498   0.864   8.780 -0.1776  0.4642 -0.6314
  137SAPE  H16X14947   5.392   0.892   8.764 -1.2634 -2.9103 -0.1764
  137SAPE  H16Y14948   5.509   0.753   8.783 -1.0642  0.3928  0.4588
  137SAPE  C31714949   5.584   0.918   8.670 -0.7413  0.1855 -0.5625
  137SAPE  H17X14950   5.544   0.871   8.578  0.3418  1.2288 -1.6125
  137SAPE  H17Y14951   5.686   0.877   8.687 -0.8039 -0.6269 -1.9924
  137SAPE  C31814952   5.579   1.067   8.653  0.2366 -0.2164 -0.2039
  137SAPE  H18X14953   5.471   1.094   8.654  0.5001  1.1106 -2.0083
  137SAPE  H18Y14954   5.625   1.098   8.556  0.5070 -1.9860 -0.6749
  137SAPE  H18Z14955   5.625   1.128   8.734 -1.5400  1.9714 -0.7479
  138SAPE     N14956   1.603   1.674  10.306  0.2071  0.9851  0.4891
  138SAPE   HN114957   1.585   1.723  10.216 -0.7722 -2.2428 -1.2051
  138SAPE   HN214958   1.574   1.575  10.297  0.4021  0.6856  2.7202
  138SAPE   HN314959   1.549   1.722  10.381 -1.1272 -0.2252  0.3354
  138SAPE   C1214960   1.751   1.665  10.336  0.6213 -0.1374 -0.3203
  138SAPE  H12A14961   1.790   1.767  10.356 -1.9478  0.5505  1.6949
  138SAPE  H12B14962   1.799   1.612  10.251  0.2009 -2.3590  0.7471
  138SAPE   C1114963   1.770   1.571  10.454  0.2136 -0.4990  0.6364
  138SAPE  H11A14964   1.706   1.618  10.532  0.6380 -1.2381  1.4471
  138SAPE  H11B14965   1.879   1.587  10.470  0.9441 -0.3621 -3.3766
  138SAPE     P14966   1.803   1.314  10.515  0.1057  0.1768 -0.2401
  138SAPE   O1314967   1.919   1.369  10.593  0.2672  0.3462  0.1841
  138SAPE   O1414968   1.691   1.251  10.587  0.1151 -0.0495  0.4889
  138SAPE   O1214969   1.744   1.430  10.424 -0.1367 -0.2800  0.2525
  138SAPE   O1114970   1.851   1.213  10.413 -0.4052 -0.2081  0.8149
  138SAPE    C114971   1.954   1.242  10.322  0.3517 -0.2581  0.5863
  138SAPE    HA14972   2.036   1.302  10.369  0.2855  1.1947 -1.0664
  138SAPE    HB14973   1.996   1.144  10.292 -0.5302 -0.7491  0.9467
  138SAPE    C214974   1.913   1.300  10.180  0.4673 -0.1211 -0.1378
  138SAPE    HS14975   1.907   1.410  10.193  2.1589 -0.1366  1.2006
  138SAPE   O2114976   1.791   1.237  10.142 -0.3207 -0.0799 -0.3947
  138SAPE   C2114977   1.692   1.319  10.094  0.5781 -0.7013  0.3624
  138SAPE   O2214978   1.695   1.440  10.096 -0.0485 -0.2424  0.3022
  138SAPE   C2214979   1.585   1.233  10.032  0.4491  0.6554 -0.3102
  138SAPE   H2R14980   1.523   1.190  10.114  1.6865 -1.2859 -0.3195
  138SAPE   H2S14981   1.524   1.302   9.970 -0.7120  0.6818  0.8150
  138SAPE    C314982   2.025   1.260  10.079 -0.9246 -0.6104  0.4994
  138SAPE    HX14983   2.015   1.151  10.060  0.8553 -0.5382 -1.1963
  138SAPE    HY14984   2.128   1.268  10.121 -0.2928  1.7609 -1.2959
  138SAPE   O3114985   2.000   1.337   9.960 -0.6177  0.2112 -0.6212
  138SAPE   C3114986   2.043   1.455   9.973  0.3749 -0.3428 -0.0632
  138SAPE   O3214987   2.142   1.495  10.041  0.0506  0.4275  0.4364
  138SAPE   C3214988   1.940   1.559   9.922  0.0919  0.0405  0.5284
  138SAPE   H2X14989   1.882   1.587  10.012  1.6554  1.5402  1.1344
  138SAPE   H2Y14990   1.869   1.497   9.864 -0.9808 -0.7980  2.6339
  138SAPE   C2314991   1.621   1.102   9.958  0.7418 -0.0269  0.0520
  138SAPE   H3R14992   1.554   1.021   9.992  0.3107  0.3122  0.0197
  138SAPE   H3S14993   1.722   1.062   9.982  0.5683 -1.6471 -1.7365
  138SAPE   C2414994   1.619   1.118   9.802 -0.4325  0.4204 -1.1678
  138SAPE   H4R14995   1.517   1.124   9.759 -2.1472 -0.4645  2.3928
  138SAPE   H4S14996   1.642   1.015   9.768  0.8023 -0.0656  0.9519
  138SAPE   C2514997   1.712   1.228   9.745 -0.2845 -0.1033  0.2562
  138SAPE   H5R14998   1.702   1.326   9.795 -0.4007 -0.8123  1.6501
  138SAPE   C2614999   1.805   1.213   9.649  0.5802 -0.3281  0.2226
  138SAPE   H6R15000   1.858   1.306   9.621  1.4431  0.1206  3.0838
  138SAPE   C2715001   1.819   1.096   9.566  0.0118  0.0519  0.1063
  138SAPE   H7R15002   1.848   1.009   9.628  1.1082  0.5958  0.3672
  138SAPE   H7S15003   1.910   1.120   9.508 -0.8252 -0.2825 -1.4027
  138SAPE   C2815004   1.708   1.050   9.476  0.1303  1.2753  0.0720
  138SAPE   H8R15005   1.611   1.026   9.523  0.7823  1.9735  1.8689
  138SAPE   C2915006   1.739   1.014   9.350 -0.1462 -0.0685 -0.2441
  138SAPE   H9R15007   1.651   0.991   9.287 -0.5173  2.6766 -0.8653
  138SAPE  C21015008   1.862   1.023   9.265 -0.6764  0.3181  0.1371
  138SAPE  H10R15009   1.955   0.981   9.310 -0.7965  0.2111  0.2867
  138SAPE  H10S15010   1.893   1.130   9.258  3.1913 -0.5361  1.6837
  138SAPE  C21115011   1.848   0.955   9.130  0.6296 -0.0550 -0.6246
  138SAPE  H11R15012   1.818   0.849   9.123  3.7978 -1.0962 -0.0493
  138SAPE  C21215013   1.871   0.996   9.010 -0.3928  0.0561  0.4132
  138SAPE  H12R15014   1.848   0.931   8.924  0.4919  0.9684 -0.5479
  138SAPE  C21315015   1.918   1.131   8.962 -0.0699  0.5962  0.4735
  138SAPE  H13R15016   2.028   1.120   8.951 -0.1628  1.8002 -3.0193
  138SAPE  H13S15017   1.906   1.206   9.043  0.5194  0.3506  0.7994
  138SAPE  C21415018   1.867   1.172   8.822 -0.7333  0.1992  0.2394
  138SAPE  H14R15019   1.778   1.234   8.806 -0.2034  0.7712 -0.5998
  138SAPE  C21515020   1.913   1.126   8.701  0.4484 -0.6630 -0.1383
  138SAPE  H15R15021   1.856   1.156   8.611 -1.3364 -1.4897  0.6741
  138SAPE  C21615022   2.025   1.023   8.690  0.6462  0.5567  0.3934
  138SAPE  H16R15023   2.101   1.029   8.771  1.4668  1.4538 -0.4300
  138SAPE  H16S15024   2.085   1.058   8.604  1.7655  0.2065  1.0105
  138SAPE  C21715025   1.977   0.886   8.652 -0.1035 -0.8999  0.2598
  138SAPE  H17R15026   1.879   0.869   8.701 -0.6511  1.6044  0.1678
  138SAPE  H17S15027   2.043   0.815   8.706  0.0368 -0.9105  0.0750
  138SAPE  C21815028   1.975   0.851   8.500 -0.3256  1.0042 -0.6024
  138SAPE  H18R15029   2.059   0.904   8.450 -0.9712 -0.4715 -3.4964
  138SAPE  H18S15030   1.893   0.892   8.437  0.1088  1.8710 -0.6079
  138SAPE  C21915031   1.978   0.697   8.485  0.7684  0.1266  0.5009
  138SAPE  H19R15032   2.015   0.653   8.579  1.7107 -0.3101 -0.0579
  138SAPE  H19S15033   2.036   0.644   8.406  0.5196 -1.6719  1.4677
  138SAPE  C22015034   1.843   0.645   8.448  0.1003 -0.1320 -0.1073
  138SAPE  H20R15035   1.831   0.534   8.443 -0.9637 -0.0687  0.7621
  138SAPE  H20S15036   1.815   0.678   8.346  1.3410 -0.0391 -0.4380
  138SAPE  H20T15037   1.770   0.685   8.521 -0.1196 -2.2471  0.9188
  138SAPE   C3315038   1.988   1.694   9.850  0.1461  0.5224  0.0684
  138SAPE   H3X15039   2.061   1.747   9.914 -0.1466  1.6771 -0.5294
  138SAPE   H3Y15040   1.900   1.761   9.843  0.7857  1.2145 -2.2601
  138SAPE   C3415041   2.047   1.664   9.714 -0.2672  0.2702 -0.5579
  138SAPE   H4X15042   1.970   1.617   9.649 -0.6664  0.6028 -0.3261
  138SAPE   H4Y15043   2.125   1.587   9.733  1.4606  2.1846  0.5200
  138SAPE   C3515044   2.106   1.783   9.636  0.5964 -0.4506  0.8036
  138SAPE   H5X15045   2.200   1.822   9.681  0.5805  1.5093 -0.7464
  138SAPE   H5Y15046   2.029   1.863   9.639  0.3370 -0.7197  1.8673
  138SAPE   C3615047   2.121   1.746   9.487 -0.2087  0.6035  0.4064
  138SAPE   H6X15048   2.026   1.710   9.443 -0.5638  1.1247  0.7489
  138SAPE   H6Y15049   2.187   1.656   9.484  0.1134  0.8528 -0.2266
  138SAPE   C3715050   2.197   1.860   9.420 -0.2745 -0.6113 -0.5611
  138SAPE   H7X15051   2.289   1.874   9.480 -0.3492  1.3999 -0.8609
  138SAPE   H7Y15052   2.142   1.956   9.429  0.2151 -0.2883 -0.9782
  138SAPE   C3815053   2.215   1.830   9.274  0.2069 -0.1950 -0.2818
  138SAPE   H8X15054   2.129   1.784   9.221  0.0199 -3.6334  2.5878
  138SAPE   H8Y15055   2.291   1.751   9.261 -1.4690 -1.7782 -0.9406
  138SAPE   C3915056   2.258   1.959   9.201 -0.3374  0.0070  0.0807
  138SAPE   H9X15057   2.349   2.003   9.247  1.0852 -1.8386 -0.8396
  138SAPE   H9Y15058   2.176   2.034   9.210  0.8781  1.2117  1.7153
  138SAPE  C31015059   2.304   1.937   9.051  0.3933 -0.6843  0.2746
  138SAPE  H10X15060   2.228   1.873   9.001  0.2669 -2.4477  2.5889
  138SAPE  H10Y15061   2.406   1.892   9.045  1.8765  2.5707 -2.9256
  138SAPE  C31115062   2.323   2.072   8.984 -0.0847 -1.1135  0.6742
  138SAPE  H11X15063   2.405   2.134   9.026 -0.4843  0.5459 -0.8438
  138SAPE  H11Y15064   2.221   2.115   8.993  0.6015  1.2803 -1.5788
  138SAPE  C31215065   2.341   2.063   8.828  0.0275 -0.2291 -1.3174
  138SAPE  H12X15066   2.271   1.982   8.800 -0.1529 -1.5890  2.4060
  138SAPE  H12Y15067   2.446   2.027   8.817  1.4049  2.0761  2.2152
  138SAPE  C31315068   2.314   2.195   8.753  0.9354 -0.5084  0.0376
  138SAPE  H13X15069   2.221   2.230   8.803  0.2685  2.4120 -2.9019
  138SAPE  H13Y15070   2.277   2.165   8.653 -0.9548 -1.7382  1.0419
  138SAPE  C31415071   2.411   2.319   8.771  0.2453  0.8680 -0.5033
  138SAPE  H14X15072   2.394   2.347   8.877 -0.2108 -2.4444  0.4163
  138SAPE  H14Y15073   2.394   2.396   8.692  1.9596  2.9450  1.0332
  138SAPE  C31515074   2.560   2.277   8.761  0.4311 -0.0708 -0.5207
  138SAPE  H15X15075   2.580   2.221   8.667 -0.1656 -0.2938 -0.5241
  138SAPE  H15Y15076   2.575   2.196   8.836 -0.6686 -0.8394 -1.1059
  138SAPE  C31615077   2.647   2.399   8.791  0.6731  0.4222 -0.0882
  138SAPE  H16X15078   2.677   2.409   8.898  0.0437 -1.3038  0.2821
  138SAPE  H16Y15079   2.596   2.491   8.756  0.0062  0.5820  1.2418
  138SAPE  C31715080   2.778   2.396   8.706 -0.6625  0.6043 -0.0954
  138SAPE  H17X15081   2.814   2.500   8.694 -0.0141  0.2030 -2.0706
  138SAPE  H17Y15082   2.759   2.358   8.603 -0.5742  1.6476 -0.5059
  138SAPE  C31815083   2.889   2.313   8.783  0.7897  0.0748 -0.0517
  138SAPE  H18X15084   2.936   2.378   8.860  2.2010 -0.2873 -0.5950
  138SAPE  H18Y15085   2.971   2.297   8.711  0.6005  0.7147 -0.4172
  138SAPE  H18Z15086   2.854   2.212   8.812 -0.9421  0.6168 -0.1316
  139SAPE     N15087   0.400   5.373  10.622 -0.0850  0.1328 -0.0271
  139SAPE   HN115088   0.447   5.408  10.709  1.7597 -1.2766 -0.3858
  139SAPE   HN215089   0.303   5.411  10.622 -0.3116 -0.4350 -0.3168
  139SAPE   HN315090   0.399   5.269  10.626  1.3790  0.0921  0.0064
  139SAPE   C1215091   0.485   5.406  10.499  0.0657  1.4495 -0.7443
  139SAPE  H12A15092   0.490   5.517  10.501 -2.4185  1.6222  2.1625
  139SAPE  H12B15093   0.441   5.379  10.401 -1.2178  0.5899  0.0380
  139SAPE   C1115094   0.633   5.355  10.501  0.2489 -0.6178 -0.2993
  139SAPE  H11A15095   0.672   5.385  10.401 -2.6715 -3.1136 -2.3604
  139SAPE  H11B15096   0.632   5.244  10.508  0.3789 -0.5659  0.7176
  139SAPE     P15097   0.781   5.553  10.606  0.1336 -0.7667 -0.5851
  139SAPE   O1315098   0.684   5.664  10.615  0.1987 -0.0009 -0.0798
  139SAPE   O1415099   0.888   5.562  10.704 -0.2777  0.6661  0.1565
  139SAPE   O1215100   0.702   5.414  10.612 -0.1699  0.0470 -0.1024
  139SAPE   O1115101   0.841   5.552  10.455 -0.1827  0.4439 -0.0342
  139SAPE    C115102   0.845   5.681  10.393 -1.1150  0.7243  0.3355
  139SAPE    HA15103   0.856   5.762  10.468  0.9513 -0.5390  1.4868
  139SAPE    HB15104   0.940   5.690  10.336 -0.4110 -1.7868  0.9644
  139SAPE    C215105   0.742   5.700  10.276 -0.1413  0.1416 -0.0191
  139SAPE    HS15106   0.647   5.697  10.334  0.2791 -1.0904  0.6599
  139SAPE   O2115107   0.753   5.598  10.180  0.0424  0.2606  0.4538
  139SAPE   C2115108   0.643   5.544  10.152  0.9126  0.4513 -0.4680
  139SAPE   O2215109   0.530   5.583  10.186  0.1919 -0.5345 -0.8227
  139SAPE   C2215110   0.659   5.417  10.064  0.2754  0.1844 -0.1967
  139SAPE   H2R15111   0.694   5.451   9.965  0.9059 -0.0218 -0.0504
  139SAPE   H2S15112   0.743   5.354  10.099  0.7481  0.2945 -1.1046
  139SAPE    C315113   0.756   5.838  10.205  0.7680  0.2652 -0.8129
  139SAPE    HX15114   0.863   5.838  10.174  1.5627  0.4424  1.7006
  139SAPE    HY15115   0.741   5.923  10.276 -0.6638 -0.6950  0.0824
  139SAPE   O3115116   0.672   5.853  10.094 -0.1405  0.4516 -0.5840
  139SAPE   C3115117   0.554   5.916  10.104 -0.1892  0.3067  0.0408
  139SAPE   O3215118   0.494   5.926  10.210  0.1905 -0.0885 -0.2500
  139SAPE   C3215119   0.505   5.945   9.963 -0.5268 -0.3253 -0.3530
  139SAPE   H2X15120   0.591   5.977   9.901 -0.7958  0.0501 -0.5354
  139SAPE   H2Y15121   0.439   6.034   9.966 -0.5355 -0.3547  1.2977
  139SAPE   C2315122   0.535   5.319  10.044  0.1363 -0.3459  0.6258
  139SAPE   H3R15123   0.440   5.374  10.029 -0.2013 -1.6998 -3.7120
  139SAPE   H3S15124   0.540   5.250  10.131  3.1846  0.9235  1.6050
  139SAPE   C2415125   0.547   5.219   9.924 -0.3925  0.5735 -0.2412
  139SAPE   H4R15126   0.643   5.166   9.944 -0.0775  0.6842 -1.3949
  139SAPE   H4S15127   0.561   5.286   9.836  3.2438  0.6164  0.1935
  139SAPE   C2515128   0.441   5.112   9.907 -0.6399 -0.1210 -0.5689
  139SAPE   H5R15129   0.453   5.025   9.973  2.8110 -0.0462 -0.8952
  139SAPE   C2615130   0.351   5.112   9.810 -0.0657  0.0093 -0.1863
  139SAPE   H6R15131   0.292   5.021   9.789 -0.0589  0.1352 -0.7736
  139SAPE   C2715132   0.327   5.227   9.716 -0.5321  0.2700 -0.2245
  139SAPE   H7R15133   0.272   5.203   9.622 -0.6085  1.6108 -0.5452
  139SAPE   H7S15134   0.421   5.258   9.667 -1.0110 -0.4185 -1.6370
  139SAPE   C2815135   0.266   5.349   9.780 -0.2117  0.0175 -0.0494
  139SAPE   H8R15136   0.320   5.397   9.863 -3.1228  0.9152  1.4813
  139SAPE   C2915137   0.150   5.401   9.744  0.2486 -0.5241 -0.0821
  139SAPE   H9R15138   0.113   5.474   9.817  1.1138 -0.2446  0.0956
  139SAPE  C21015139   0.069   5.353   9.620  0.1774  0.0194 -0.1701
  139SAPE  H10R15140   0.083   5.244   9.605  3.3772  0.3913 -0.7001
  139SAPE  H10S15141   0.114   5.415   9.540  0.7233  3.7527  2.7716
  139SAPE  C21115142  -0.077   5.386   9.641  0.3851  0.1540  0.3221
  139SAPE  H11R15143  -0.128   5.327   9.718 -1.9852  3.6347  1.6712
  139SAPE  C21215144  -0.152   5.473   9.577  0.6625  0.1098  0.1132
  139SAPE  H12R15145  -0.259   5.489   9.598  0.7680  1.4432 -0.2279
  139SAPE  C21315146  -0.094   5.559   9.460  1.2489 -0.1230  0.0169
  139SAPE  H13R15147  -0.037   5.508   9.380 -1.2766 -1.0238 -1.3141
  139SAPE  H13S15148  -0.018   5.626   9.506  1.5568 -1.2544  1.2292
  139SAPE  C21415149  -0.193   5.658   9.394  0.0679 -0.3238  0.2238
  139SAPE  H14R15150  -0.298   5.660   9.429 -0.3664 -1.0471 -0.9630
  139SAPE  C21515151  -0.164   5.752   9.302  0.2626 -0.0557  0.0698
  139SAPE  H15R15152  -0.241   5.807   9.246  1.9188  0.7112 -1.5431
  139SAPE  C21615153  -0.032   5.783   9.241  0.5164 -0.0739  0.3871
  139SAPE  H16R15154   0.050   5.733   9.296  0.2485  0.3728  1.2107
  139SAPE  H16S15155  -0.025   5.893   9.244 -1.0113  0.2709 -3.3522
  139SAPE  C21715156  -0.025   5.748   9.092 -0.2003 -0.3484  0.3119
  139SAPE  H17R15157  -0.107   5.677   9.068  0.8824 -2.3957  2.2148
  139SAPE  H17S15158   0.067   5.693   9.061 -1.3139 -1.7074 -0.7029
  139SAPE  C21815159  -0.058   5.866   8.994  0.6465  0.3462 -0.0691
  139SAPE  H18R15160  -0.029   5.962   9.041  1.2117 -0.0310  0.3549
  139SAPE  H18S15161  -0.167   5.888   8.996 -0.1084 -2.7697 -1.2414
  139SAPE  C21915162  -0.011   5.852   8.850  0.5764 -0.7133 -0.4054
  139SAPE  H19R15163   0.094   5.816   8.849  0.7252 -0.3127  0.4102
  139SAPE  H19S15164  -0.027   5.951   8.802 -0.7715  0.2249  1.8174
  139SAPE  C22015165  -0.090   5.750   8.764 -0.0872 -0.1274 -0.7682
  139SAPE  H20R15166  -0.066   5.765   8.657 -0.8021  1.0335 -0.7798
  139SAPE  H20S15167  -0.196   5.778   8.785 -0.1086 -0.7895  0.0974
  139SAPE  H20T15168  -0.064   5.646   8.793 -0.5046 -0.1658 -0.5221
  139SAPE   C3315169   0.436   5.825   9.895 -0.4456  0.2453  0.1690
  139SAPE   H3X15170   0.363   5.772   9.960 -1.7166  1.6419 -0.0606
  139SAPE   H3Y15171   0.511   5.746   9.873 -1.1717 -0.9627  1.8407
  139SAPE   C3415172   0.373   5.855   9.760  0.5618 -0.6188  0.0970
  139SAPE   H4X15173   0.448   5.916   9.704 -1.0781  2.0434  0.6397
  139SAPE   H4Y15174   0.273   5.902   9.771  0.4447 -0.9547  0.4846
  139SAPE   C3515175   0.349   5.728   9.678  0.2735  0.3672 -0.4637
  139SAPE   H5X15176   0.286   5.653   9.731  2.0696 -0.3682  0.7140
  139SAPE   H5Y15177   0.444   5.675   9.653 -1.1781 -1.5194 -2.3288
  139SAPE   C3615178   0.292   5.761   9.538 -0.3231  0.2157  0.2788
  139SAPE   H6X15179   0.190   5.806   9.543 -0.6863 -0.4999 -0.4285
  139SAPE   H6Y15180   0.281   5.671   9.473  1.3278  2.1928 -2.9573
  139SAPE   C3715181   0.384   5.858   9.468  0.2841  0.4393  0.1357
  139SAPE   H7X15182   0.487   5.825   9.492  0.0476 -0.4376  0.0014
  139SAPE   H7Y15183   0.363   5.964   9.494 -1.7355  0.5090 -1.4804
  139SAPE   C3815184   0.348   5.848   9.317 -0.0544 -0.2300 -0.1103
  139SAPE   H8X15185   0.249   5.896   9.298  0.1652 -0.0310 -0.7881
  139SAPE   H8Y15186   0.334   5.742   9.289  1.3297 -0.6244  0.5869
  139SAPE   C3915187   0.451   5.915   9.217  0.4400  0.3496  0.5772
  139SAPE   H9X15188   0.545   5.870   9.256 -0.0113 -0.3664  0.8532
  139SAPE   H9Y15189   0.459   6.025   9.220 -1.5278  0.5647 -0.8444
  139SAPE  C31015190   0.447   5.867   9.067  0.1822  0.4040 -0.9316
  139SAPE  H10X15191   0.527   5.918   9.009 -0.8216  1.8404 -1.1109
  139SAPE  H10Y15192   0.347   5.889   9.025  0.0057  0.9572 -0.2279
  139SAPE  C31115193   0.497   5.719   9.063 -0.2365 -0.8010 -0.2541
  139SAPE  H11X15194   0.428   5.652   9.118  0.5453  0.2639  2.1437
  139SAPE  H11Y15195   0.600   5.703   9.102 -0.5938 -0.6753  0.7747
  139SAPE  C31215196   0.503   5.666   8.919 -0.4102 -0.3177 -0.0374
  139SAPE  H12X15197   0.495   5.556   8.934  1.1411 -0.4507 -0.0016
  139SAPE  H12Y15198   0.601   5.688   8.871 -0.4437  3.1719  1.2218
  139SAPE  C31315199   0.397   5.712   8.824  0.2751  0.6576  0.1758
  139SAPE  H13X15200   0.414   5.821   8.813  1.6059  0.4512  0.0156
  139SAPE  H13Y15201   0.291   5.701   8.854 -0.0069  1.6770 -0.4255
  139SAPE  C31415202   0.402   5.641   8.690  0.1511  0.3164 -0.5048
  139SAPE  H14X15203   0.479   5.561   8.695  2.1919  2.2226  0.0511
  139SAPE  H14Y15204   0.440   5.719   8.621  0.2378  1.1565  0.4566
  139SAPE  C31515205   0.273   5.580   8.648  0.3001 -0.6472 -0.4424
  139SAPE  H15X15206   0.190   5.654   8.642  0.7869 -0.0476  0.1925
  139SAPE  H15Y15207   0.247   5.493   8.712  0.4419 -0.5979 -0.3189
  139SAPE  C31615208   0.284   5.521   8.499 -0.3626  1.2237  0.2837
  139SAPE  H16X15209   0.364   5.571   8.442 -3.5286  2.2850 -3.6709
  139SAPE  H16Y15210   0.319   5.416   8.503  1.5929  1.7974 -0.6870
  139SAPE  C31715211   0.155   5.522   8.423 -0.2611 -0.6502  0.0554
  139SAPE  H17X15212   0.177   5.467   8.330  1.6217 -0.6027  0.4348
  139SAPE  H17Y15213   0.132   5.630   8.408  1.6173 -0.4012 -1.4955
  139SAPE  C31815214   0.041   5.456   8.506 -0.8802 -0.4933  0.6892
  139SAPE  H18X15215   0.066   5.352   8.534 -0.0332 -0.1044  1.4445
  139SAPE  H18Y15216  -0.052   5.455   8.445  0.0753 -2.8499 -0.8565
  139SAPE  H18Z15217   0.034   5.519   8.597  3.1629  0.8423  0.2973
  140SAPE     N15218   4.078   2.402  11.227  0.0241  0.0047  0.6529
  140SAPE   HN115219   4.132   2.457  11.297  0.6025 -1.0640  1.0781
  140SAPE   HN215220   3.974   2.415  11.226 -0.4825 -3.0740 -0.0067
  140SAPE   HN315221   4.089   2.300  11.245 -0.4520  0.0706  1.3632
  140SAPE   C1215222   4.132   2.427  11.091  0.2028  0.0448 -0.4762
  140SAPE  H12A15223   4.237   2.391  11.098 -0.5822 -2.0709  2.4351
  140SAPE  H12B15224   4.117   2.531  11.057  1.9779  0.3586 -0.4155
  140SAPE   C1115225   4.047   2.351  10.987  0.1580  0.4188 -0.8309
  140SAPE  H11A15226   4.108   2.354  10.894  1.1113 -1.8912 -0.3666
  140SAPE  H11B15227   3.949   2.400  10.973 -0.5446 -0.5386  0.5130
  140SAPE     P15228   3.984   2.102  10.930  0.7677  0.0465  0.3108
  140SAPE   O1315229   4.107   2.036  10.874 -0.1254 -0.1812 -0.2435
  140SAPE   O1415230   3.889   2.013  10.995  0.1699 -0.1980 -0.5725
  140SAPE   O1215231   4.018   2.219  11.027 -0.1054 -0.1921 -0.9137
  140SAPE   O1115232   3.902   2.173  10.818 -0.2139 -0.0297  0.0133
  140SAPE    C115233   3.872   2.108  10.692 -0.1194 -0.0531 -0.7284
  140SAPE    HA15234   3.853   2.001  10.713  2.3864 -0.1430  1.5598
  140SAPE    HB15235   3.780   2.151  10.645 -0.1695  0.3026 -0.3127
  140SAPE    C215236   3.980   2.137  10.578 -0.6393 -0.7291 -0.7856
  140SAPE    HS15237   4.084   2.121  10.613 -0.3613 -1.1146 -1.7470
  140SAPE   O2115238   3.956   2.271  10.539  0.2644 -0.4758 -0.0057
  140SAPE   C2115239   4.070   2.323  10.480 -0.4242  0.1830  1.1211
  140SAPE   O2215240   4.180   2.276  10.493  0.4361 -0.4864 -0.4640
  140SAPE   C2215241   4.033   2.450  10.409 -0.3212 -0.5467 -0.5544
  140SAPE   H2R15242   3.943   2.495  10.456  0.2497 -0.1230  0.1477
  140SAPE   H2S15243   4.116   2.521  10.428  1.0674 -2.0203 -0.8877
  140SAPE    C315244   3.958   2.040  10.456 -0.2431  0.4898  0.2863
  140SAPE    HX15245   3.857   2.062  10.413  0.2255  1.2146 -0.4778
  140SAPE    HY15246   3.967   1.937  10.496 -1.8099  0.1572 -0.1402
  140SAPE   O3115247   4.056   2.063  10.346 -0.2468 -0.0430  0.2197
  140SAPE   C3115248   4.174   2.014  10.367 -0.1728  0.2693  0.0452
  140SAPE   O3215249   4.219   1.951  10.460 -0.4938  0.2588  0.6723
  140SAPE   C3215250   4.269   2.045  10.249  0.3776  0.0457 -0.0988
  140SAPE   H2X15251   4.316   1.945  10.230  0.1094 -0.4963  1.9190
  140SAPE   H2Y15252   4.344   2.119  10.283  1.2366 -1.0802  0.5443
  140SAPE   C2315253   4.008   2.434  10.260  0.0206  0.0074  0.0900
  140SAPE   H3R15254   3.920   2.371  10.236 -1.9290  2.4719  0.3633
  140SAPE   H3S15255   4.091   2.380  10.210 -0.4970 -0.6148 -0.1076
  140SAPE   C2415256   3.991   2.566  10.187  0.2177 -0.0803 -0.3748
  140SAPE   H4R15257   3.989   2.540  10.079 -1.0570 -1.4687 -0.0556
  140SAPE   H4S15258   4.083   2.618  10.218  0.0518 -0.3703  0.6243
  140SAPE   C2515259   3.866   2.650  10.212  0.0142 -0.1162  0.7684
  140SAPE   H5R15260   3.837   2.676  10.315 -1.4970  3.0057 -0.3214
  140SAPE   C2615261   3.783   2.705  10.122  0.7669 -0.1790  0.0528
  140SAPE   H6R15262   3.697   2.762  10.161 -0.8382 -1.6576 -1.2038
  140SAPE   C2715263   3.790   2.695   9.975  0.0996 -0.0157 -0.2313
  140SAPE   H7R15264   3.685   2.702   9.939 -0.1176 -1.2644  0.1423
  140SAPE   H7S15265   3.829   2.600   9.932  0.4093 -0.0035  0.0153
  140SAPE   C2815266   3.889   2.793   9.923  0.4166 -0.7933  0.5026
  140SAPE   H8R15267   3.953   2.840   9.998 -1.6107 -1.5544  2.8568
  140SAPE   C2915268   3.904   2.830   9.791  1.3141 -0.0932 -0.3604
  140SAPE   H9R15269   3.991   2.890   9.762  0.6419  2.0771  1.7452
  140SAPE  C21015270   3.823   2.778   9.678 -0.4989 -0.0176  0.0341
  140SAPE  H10R15271   3.814   2.668   9.682  1.8255 -0.3372 -1.5517
  140SAPE  H10S15272   3.884   2.800   9.588  0.1025  0.4783  0.5476
  140SAPE  C21115273   3.687   2.853   9.678 -0.7288 -0.6533  0.3763
  140SAPE  H11R15274   3.667   2.910   9.769 -0.1685 -0.6482  0.4993
  140SAPE  C21215275   3.596   2.848   9.574  0.2007  0.1896 -0.4074
  140SAPE  H12R15276   3.506   2.909   9.592 -0.7801 -1.6169  1.1481
  140SAPE  C21315277   3.604   2.782   9.436 -0.3442  0.5322 -0.4290
  140SAPE  H13R15278   3.535   2.696   9.444  0.0343  0.2860  0.2664
  140SAPE  H13S15279   3.705   2.738   9.418 -1.3983 -1.6228 -1.4107
  140SAPE  C21415280   3.571   2.881   9.333 -0.0695 -0.1894 -0.7367
  140SAPE  H14R15281   3.649   2.951   9.299  2.1618 -1.0041  2.2442
  140SAPE  C21515282   3.443   2.907   9.303  0.7293  0.5377 -0.2268
  140SAPE  H15R15283   3.418   2.980   9.224  1.2706  0.5820 -0.3565
  140SAPE  C21615284   3.318   2.840   9.349  0.1046 -0.4328  0.2430
  140SAPE  H16R15285   3.346   2.766   9.427  1.0544  1.6487  1.9932
  140SAPE  H16S15286   3.284   2.772   9.269 -0.4973  2.1642 -1.8384
  140SAPE  C21715287   3.206   2.924   9.421 -0.5672  0.5360  0.3974
  140SAPE  H17R15288   3.221   2.924   9.532  1.5218  1.7587  0.1708
  140SAPE  H17S15289   3.110   2.869   9.414 -0.6591  0.7556 -0.0463
  140SAPE  C21815290   3.191   3.069   9.374  0.2803 -0.3639 -0.0929
  140SAPE  H18R15291   3.160   3.070   9.267 -2.6707 -2.0606  0.6243
  140SAPE  H18S15292   3.290   3.113   9.399  0.1889 -0.5830  0.6694
  140SAPE  C21915293   3.081   3.149   9.458 -0.6461  0.7405 -0.1222
  140SAPE  H19R15294   3.123   3.147   9.561  0.5632 -0.9748 -0.5988
  140SAPE  H19S15295   2.986   3.093   9.465 -0.2378 -0.2400 -1.7883
  140SAPE  C22015296   3.062   3.286   9.401  0.1714  0.5352  0.7278
  140SAPE  H20R15297   2.967   3.331   9.438 -0.3899  0.0904 -0.1428
  140SAPE  H20S15298   3.048   3.263   9.293  1.7996  1.9019  0.1803
  140SAPE  H20T15299   3.147   3.355   9.418 -0.0759  1.0077  0.1177
  140SAPE   C3315300   4.206   2.072  10.111 -0.4697  0.8501 -0.7182
  140SAPE   H3X15301   4.298   2.090  10.052 -0.6268 -0.0089 -1.2498
  140SAPE   H3Y15302   4.145   2.165  10.114  0.5170  1.5439  3.1870
  140SAPE   C3415303   4.131   1.950  10.059 -0.0700  0.6127 -0.2414
  140SAPE   H4X15304   4.043   1.941  10.125 -1.2291 -1.3552 -1.9225
  140SAPE   H4Y15305   4.188   1.856  10.080 -1.1551  0.2580  1.2959
  140SAPE   C3515306   4.095   1.976   9.908 -0.8294  0.6852  0.3766
  140SAPE   H5X15307   4.038   2.071   9.901  1.7383  2.4640  1.9288
  140SAPE   H5Y15308   4.034   1.890   9.874  3.3051 -2.4166 -0.0405
  140SAPE   C3615309   4.206   1.978   9.805  0.9031 -0.0929 -0.1793
  140SAPE   H6X15310   4.267   1.886   9.823 -0.8246 -1.8126 -2.4994
  140SAPE   H6Y15311   4.276   2.063   9.823 -1.2199  1.4062  1.4928
  140SAPE   C3715312   4.153   1.985   9.666 -0.4066  0.5586 -0.0561
  140SAPE   H7X15313   4.058   1.931   9.649 -1.0234  1.1262  1.4055
  140SAPE   H7Y15314   4.229   1.942   9.597 -0.1034 -2.5733  2.0466
  140SAPE   C3815315   4.122   2.119   9.609  0.0371 -0.3280  0.1380
  140SAPE   H8X15316   4.203   2.192   9.629 -0.7283  0.3604  0.8188
  140SAPE   H8Y15317   4.037   2.167   9.664 -0.0422 -1.6470  1.2199
  140SAPE   C3915318   4.088   2.126   9.456 -0.3644  0.4176 -0.6599
  140SAPE   H9X15319   4.078   2.227   9.411 -0.5435  1.0260  0.6678
  140SAPE   H9Y15320   3.997   2.063   9.444  0.1135 -0.4548  0.1220
  140SAPE  C31015321   4.189   2.044   9.362  0.6287  0.0025  0.4454
  140SAPE  H10X15322   4.171   1.935   9.372  0.1280  0.2898  4.5162
  140SAPE  H10Y15323   4.290   2.072   9.398  1.4243 -2.8149  0.6540
  140SAPE  C31115324   4.188   2.098   9.218  0.5333  0.5972 -0.2024
  140SAPE  H11X15325   4.184   2.209   9.216  0.9955  0.6431  0.6556
  140SAPE  H11Y15326   4.096   2.059   9.170  0.3165  0.4522  0.3204
  140SAPE  C31215327   4.318   2.051   9.142 -0.7848 -0.6238 -0.4789
  140SAPE  H12X15328   4.318   1.941   9.152  0.0968 -0.6394 -0.6030
  140SAPE  H12Y15329   4.399   2.103   9.197 -1.6995 -0.0389  0.3484
  140SAPE  C31315330   4.316   2.098   8.994 -0.0811  0.0937 -0.2568
  140SAPE  H13X15331   4.211   2.103   8.959 -0.5528 -0.2622  1.0490
  140SAPE  H13Y15332   4.377   2.025   8.937  0.4220 -0.5072  1.0273
  140SAPE  C31415333   4.394   2.232   8.982  0.6942 -0.3158  0.1666
  140SAPE  H14X15334   4.478   2.237   9.054  0.2402  1.2316  0.6190
  140SAPE  H14Y15335   4.336   2.318   9.020  0.1948 -0.8731  0.6858
  140SAPE  C31515336   4.442   2.263   8.842  0.2045  0.1442  0.4957
  140SAPE  H15X15337   4.493   2.175   8.798  0.3998  0.6147 -0.2324
  140SAPE  H15Y15338   4.522   2.340   8.843  1.9673 -1.6334  1.3092
  140SAPE  C31615339   4.321   2.300   8.756 -0.3932  0.3837  0.1196
  140SAPE  H16X15340   4.246   2.355   8.817 -1.4609  1.2040 -1.8324
  140SAPE  H16Y15341   4.280   2.202   8.724 -0.4045  0.3716  0.1701
  140SAPE  C31715342   4.363   2.365   8.625 -0.2293 -0.0210  0.1452
  140SAPE  H17X15343   4.431   2.297   8.570  1.1423  1.1309  0.3768
  140SAPE  H17Y15344   4.415   2.461   8.644  0.0724  0.2857 -2.0018
  140SAPE  C31815345   4.240   2.388   8.538  0.5197  0.1696  0.4283
  140SAPE  H18X15346   4.178   2.469   8.583 -0.8145 -0.3181 -0.4522
  140SAPE  H18Y15347   4.177   2.297   8.531  0.8821 -0.0021 -0.7644
  140SAPE  H18Z15348   4.285   2.411   8.439  2.4137  0.0231  1.2178
  141SAPE     N15349   4.886   4.158  10.858 -0.1315 -0.2088 -0.2924
  141SAPE   HN115350   4.825   4.188  10.780  0.1637 -0.6467 -0.6998
  141SAPE   HN215351   4.943   4.243  10.877 -0.9409  0.0574  1.0403
  141SAPE   HN315352   4.946   4.083  10.818  1.6271  1.4473 -0.8945
  141SAPE   C1215353   4.810   4.116  10.975 -0.5532 -0.2972  0.0696
  141SAPE  H12A15354   4.722   4.181  10.997  0.2310  0.6700  0.4532
  141SAPE  H12B15355   4.874   4.122  11.066 -1.7698 -0.2178  0.9537
  141SAPE   C1115356   4.766   3.966  10.970  0.5259 -0.3596  0.2799
  141SAPE  H11A15357   4.702   3.947  10.881  0.1561  0.5607  0.3417
  141SAPE  H11B15358   4.702   3.941  11.057  1.5698 -2.9264  0.4112
  141SAPE     P15359   4.942   3.820  10.847  0.3372 -0.0026 -0.1770
  141SAPE   O1315360   5.003   3.934  10.775 -0.2811 -1.0502 -0.2241
  141SAPE   O1415361   5.027   3.706  10.871  0.1156  0.5039 -0.2363
  141SAPE   O1215362   4.876   3.875  10.981  0.0887  0.2028  0.5928
  141SAPE   O1115363   4.821   3.772  10.762 -0.0568  0.2842  0.3819
  141SAPE    C115364   4.754   3.838  10.658  0.5413  0.6555  0.5369
  141SAPE    HA15365   4.652   3.871  10.686  1.2300  3.1664  0.3403
  141SAPE    HB15366   4.810   3.924  10.616 -0.8992  1.3292 -0.0822
  141SAPE    C215367   4.744   3.735  10.545 -0.0156 -0.6019 -0.0742
  141SAPE    HS15368   4.711   3.636  10.584  2.1018 -1.1209  0.5605
  141SAPE   O2115369   4.863   3.720  10.479  0.0920 -0.1186 -0.6488
  141SAPE   C2115370   4.875   3.630  10.391 -0.7463  0.0106 -0.1496
  141SAPE   O2215371   4.803   3.532  10.374  0.3260  0.2044 -0.2515
  141SAPE   C2215372   5.000   3.666  10.314 -0.4486 -0.7302 -0.6538
  141SAPE   H2R15373   4.993   3.772  10.282  0.3412 -0.7684 -0.9790
  141SAPE   H2S15374   5.095   3.661  10.371  0.0851  1.1512 -1.2996
  141SAPE    C315375   4.629   3.787  10.451  0.9771  0.2630  0.9347
  141SAPE    HX15376   4.540   3.819  10.509  0.4381  1.7990 -0.6518
  141SAPE    HY15377   4.607   3.705  10.380 -0.9756  2.6899 -1.4768
  141SAPE   O3115378   4.683   3.892  10.371  0.2647  0.2423  0.6969
  141SAPE   C3115379   4.602   3.917  10.260  0.2398  0.2986  0.1271
  141SAPE   O3215380   4.487   3.886  10.242  0.3353 -0.3355 -0.0437
  141SAPE   C3215381   4.706   3.979  10.155  0.7136  0.0484 -0.1230
  141SAPE   H2X15382   4.796   3.913  10.153  0.9391  0.3580 -2.2925
  141SAPE   H2Y15383   4.727   4.071  10.212 -0.9806  0.2166  0.2712
  141SAPE   C2315384   5.022   3.573  10.192  0.5002 -0.0327 -0.1751
  141SAPE   H3R15385   5.021   3.464  10.217 -0.1952 -0.5270 -2.1528
  141SAPE   H3S15386   5.122   3.607  10.156  1.5604 -1.6043  1.0711
  141SAPE   C2415387   4.930   3.608  10.074  0.2823  0.6251  0.7338
  141SAPE   H4R15388   4.930   3.718  10.053  0.2949  0.3501 -0.8532
  141SAPE   H4S15389   4.826   3.587  10.105 -0.2185 -0.0813 -1.2353
  141SAPE   C2515390   4.971   3.533   9.947  0.6696 -0.3697 -0.6529
  141SAPE   H5R15391   5.077   3.547   9.921  0.4362  1.8027 -0.6081
  141SAPE   C2615392   4.892   3.454   9.865 -0.5819 -0.7743 -0.2697
  141SAPE   H6R15393   4.950   3.394   9.794  0.6830  0.8028 -0.6063
  141SAPE   C2715394   4.746   3.416   9.883 -0.2060 -0.0444 -0.4072
  141SAPE   H7R15395   4.678   3.482   9.825  0.5568 -0.8912 -2.3403
  141SAPE   H7S15396   4.719   3.424   9.990  0.5722  0.2560 -0.2254
  141SAPE   C2815397   4.722   3.269   9.854  0.4906 -0.2553 -0.4149
  141SAPE   H8R15398   4.720   3.205   9.943  0.8854  1.1285  0.6101
  141SAPE   C2915399   4.696   3.202   9.738 -0.4011  0.1613  0.0641
  141SAPE   H9R15400   4.676   3.095   9.751 -1.3164  0.1109 -1.6100
  141SAPE  C21015401   4.694   3.259   9.594 -0.1493  0.2485 -0.2308
  141SAPE  H10R15402   4.685   3.369   9.601 -0.5414  0.2373 -0.5455
  141SAPE  H10S15403   4.601   3.222   9.547 -1.6774  0.7402  2.2217
  141SAPE  C21115404   4.816   3.211   9.524  0.0387  0.4376 -0.0047
  141SAPE  H11R15405   4.900   3.182   9.590 -2.1269 -0.5695  2.5075
  141SAPE  C21215406   4.823   3.188   9.385  0.2708  0.1848  0.1366
  141SAPE  H12R15407   4.916   3.141   9.349  0.3146 -0.1008  0.6125
  141SAPE  C21315408   4.710   3.211   9.283 -0.3452 -0.9407 -0.1632
  141SAPE  H13R15409   4.744   3.253   9.186 -1.9566  2.8600  0.7670
  141SAPE  H13S15410   4.644   3.292   9.321 -0.1021 -0.8432  0.0577
  141SAPE  C21415411   4.629   3.082   9.265 -0.0177  0.2504 -1.0200
  141SAPE  H14R15412   4.613   3.029   9.360  2.0230  4.9243  2.3356
  141SAPE  C21515413   4.595   3.022   9.158  0.0403 -0.9870  0.7450
  141SAPE  H15R15414   4.556   2.919   9.161  0.4051 -1.1046  2.0642
  141SAPE  C21615415   4.613   3.072   9.020 -0.5686  1.0633  1.2838
  141SAPE  H16R15416   4.647   3.177   9.033  1.2516  0.7486 -0.3443
  141SAPE  H16S15417   4.515   3.065   8.968  0.1043 -2.6962  0.2292
  141SAPE  C21715418   4.720   3.008   8.924 -0.3457  0.2725  0.1880
  141SAPE  H17R15419   4.699   2.899   8.914 -0.0764  0.2735 -0.3849
  141SAPE  H17S15420   4.822   3.009   8.969  0.3353 -1.5509 -1.1744
  141SAPE  C21815421   4.725   3.078   8.789 -0.1162 -0.9529  0.3228
  141SAPE  H18R15422   4.715   3.186   8.813 -4.9375 -0.8123 -1.0863
  141SAPE  H18S15423   4.637   3.058   8.723  0.3206  1.0926 -0.9553
  141SAPE  C21915424   4.853   3.055   8.702  0.0245 -0.1596 -0.8725
  141SAPE  H19R15425   4.933   3.125   8.734  2.6902 -3.4604  0.2185
  141SAPE  H19S15426   4.820   3.085   8.600 -2.4982 -0.6915 -0.2932
  141SAPE  C22015427   4.913   2.912   8.703  0.2493 -1.2529 -0.1678
  141SAPE  H20R15428   4.989   2.900   8.623 -0.8505  0.9896 -1.6596
  141SAPE  H20S15429   4.842   2.830   8.683 -2.2424  0.6399  0.4656
  141SAPE  H20T15430   4.963   2.892   8.800  1.9138  4.5664  0.5675
  141SAPE   C3315431   4.650   3.997  10.013  0.2042  0.2842 -0.1922
  141SAPE   H3X15432   4.624   4.102   9.987 -0.7486 -0.1094 -0.8932
  141SAPE   H3Y15433   4.549   3.951  10.014 -0.5496  1.8675  0.7921
  141SAPE   C3415434   4.738   3.932   9.913  0.1153 -0.1306  0.6310
  141SAPE   H4X15435   4.727   3.822   9.909 -0.3563 -0.1599  2.0617
  141SAPE   H4Y15436   4.844   3.963   9.926  0.4244  0.0018 -1.7236
  141SAPE   C3515437   4.684   3.972   9.770  0.7439 -0.2138  0.2388
  141SAPE   H5X15438   4.671   4.082   9.767 -0.9480 -0.3143  1.6990
  141SAPE   H5Y15439   4.578   3.941   9.753  0.7630  0.9229 -2.4197
  141SAPE   C3615440   4.771   3.924   9.659 -0.7106  0.2292 -0.5370
  141SAPE   H6X15441   4.789   3.816   9.679 -1.8084  0.5586  2.9591
  141SAPE   H6Y15442   4.869   3.975   9.669 -0.6010  0.2711 -1.6645
  141SAPE   C3715443   4.715   3.962   9.517 -0.1440  0.0479  0.4152
  141SAPE   H7X15444   4.717   4.073   9.512  1.9522 -0.0040 -2.2937
  141SAPE   H7Y15445   4.609   3.931   9.515 -0.5704  1.3893  1.0624
  141SAPE   C3815446   4.815   3.901   9.420  0.2480  0.0191  0.4296
  141SAPE   H8X15447   4.803   3.792   9.434  1.3585  0.2916  5.2476
  141SAPE   H8Y15448   4.923   3.914   9.438 -0.0785  0.5089  2.2651
  141SAPE   C3915449   4.795   3.955   9.277  0.1256 -0.1197  0.2758
  141SAPE   H9X15450   4.812   4.065   9.286 -0.9659  0.0245  0.8084
  141SAPE   H9Y15451   4.685   3.948   9.261 -0.3245  0.7729  2.6183
  141SAPE  C31015452   4.898   3.904   9.168 -0.5294  0.3801 -0.1867
  141SAPE  H10X15453   4.999   3.949   9.182 -0.9742  1.8576 -1.4926
  141SAPE  H10Y15454   4.871   3.943   9.067  0.5748  0.5834 -0.4149
  141SAPE  C31115455   4.894   3.744   9.160  0.8985  0.2519  0.7820
  141SAPE  H11X15456   4.912   3.698   9.260  0.8891 -1.3278  0.0757
  141SAPE  H11Y15457   4.971   3.706   9.090 -0.2126  0.3748 -0.5239
  141SAPE  C31215458   4.757   3.701   9.105  0.3892 -0.0912  0.1256
  141SAPE  H12X15459   4.731   3.761   9.015 -4.7807 -0.9515  0.7124
  141SAPE  H12Y15460   4.680   3.740   9.176 -0.2498  0.7112 -0.9860
  141SAPE  C31315461   4.737   3.547   9.079 -0.4603  0.7492  0.5582
  141SAPE  H13X15462   4.629   3.528   9.062 -0.4340  1.8496 -1.0980
  141SAPE  H13Y15463   4.757   3.490   9.171 -0.4584  0.8416  0.6153
  141SAPE  C31415464   4.814   3.495   8.957 -0.3706 -0.0911 -0.3225
  141SAPE  H14X15465   4.828   3.386   8.974  2.3914  0.1799 -0.4151
  141SAPE  H14Y15466   4.910   3.551   8.961 -0.7802  0.5679  2.6420
  141SAPE  C31515467   4.742   3.522   8.827 -0.0549 -0.0211 -0.2004
  141SAPE  H15X15468   4.739   3.632   8.810  0.1259 -0.1329 -0.9617
  141SAPE  H15Y15469   4.634   3.496   8.834 -0.5003  1.3450 -1.4749
  141SAPE  C31615470   4.803   3.461   8.699 -0.0215 -0.9041 -0.0704
  141SAPE  H16X15471   4.743   3.510   8.620 -2.1959 -0.0559  1.9590
  141SAPE  H16Y15472   4.778   3.353   8.698 -0.1999 -0.8584 -0.7949
  141SAPE  C31715473   4.952   3.478   8.699  0.3036  0.0846 -0.8791
  141SAPE  H17X15474   5.004   3.440   8.609  0.3587  0.3799 -0.9734
  141SAPE  H17Y15475   4.999   3.435   8.791  1.2402  1.5333 -0.6403
  141SAPE  C31815476   4.997   3.625   8.684 -0.1475 -0.5654 -0.1612
  141SAPE  H18X15477   4.966   3.676   8.590  0.9314  0.5354  0.0451
  141SAPE  H18Y15478   5.108   3.625   8.688 -0.1653 -0.6060  0.4408
  141SAPE  H18Z15479   4.967   3.698   8.762 -0.1476  0.1049 -0.7754
  142SAPE     N15480   5.192   2.752  10.793  0.0543 -0.4848 -1.4998
  142SAPE   HN115481   5.188   2.652  10.821  0.5012  0.4574  2.5082
  142SAPE   HN215482   5.104   2.775  10.742 -1.6489 -0.7640  1.1206
  142SAPE   HN315483   5.276   2.762  10.733  0.3735 -0.2972 -1.0245
  142SAPE   C1215484   5.202   2.838  10.920 -0.7993  0.0353 -0.3849
  142SAPE  H12A15485   5.222   2.941  10.884 -1.5089 -0.2946 -1.7997
  142SAPE  H12B15486   5.287   2.800  10.981 -0.8399  1.3398  0.5212
  142SAPE   C1115487   5.082   2.840  11.009  0.4653  0.3013 -0.0316
  142SAPE  H11A15488   5.077   2.923  11.082  1.6533 -1.1844  1.8601
  142SAPE  H11B15489   5.083   2.743  11.064 -1.9547 -0.6578 -1.5352
  142SAPE     P15490   4.873   2.976  10.922  0.1962 -0.5114  0.3062
  142SAPE   O1315491   4.776   2.982  11.033  0.6206  0.8591  0.5320
  142SAPE   O1415492   4.969   3.092  10.895  0.0396  0.1775  0.4516
  142SAPE   O1215493   4.953   2.842  10.941  0.1093  0.2778 -0.2829
  142SAPE   O1115494   4.807   2.956  10.788 -0.2698 -0.6571 -0.0924
  142SAPE    C115495   4.704   3.034  10.743  1.0036  0.2474  0.5377
  142SAPE    HA15496   4.608   2.987  10.771  1.9173 -2.1793 -0.0922
  142SAPE    HB15497   4.713   3.140  10.774  1.0263 -0.1374  1.8875
  142SAPE    C215498   4.709   3.036  10.588 -0.0710  0.2757  0.2052
  142SAPE    HS15499   4.625   3.101  10.557  0.2022  1.2356  1.3927
  142SAPE   O2115500   4.701   2.904  10.537 -0.0346  0.0162  0.2267
  142SAPE   C2115501   4.581   2.858  10.524 -0.6151 -0.0002  0.1238
  142SAPE   O2215502   4.477   2.923  10.548 -0.0923  0.4580  0.0375
  142SAPE   C2215503   4.573   2.723  10.453 -0.0574 -0.7288  0.9833
  142SAPE   H2R15504   4.497   2.661  10.505 -0.1796 -0.4727  1.1129
  142SAPE   H2S15505   4.535   2.740  10.350  0.1933 -0.4912  0.9288
  142SAPE    C315506   4.837   3.099  10.538 -0.3582  0.3984 -0.4141
  142SAPE    HX15507   4.932   3.058  10.577 -1.7842 -3.3398 -0.4446
  142SAPE    HY15508   4.830   3.204  10.574 -2.4055  0.2109 -0.1144
  142SAPE   O3115509   4.823   3.100  10.398  0.1282 -0.0097  0.3281
  142SAPE   C3115510   4.911   3.023  10.332 -0.4353  0.0356  0.3373
  142SAPE   O3215511   4.993   2.948  10.387  0.3337 -0.0080 -0.2205
  142SAPE   C3215512   4.883   3.032  10.182 -0.4976 -0.4680  0.2639
  142SAPE   H2X15513   4.857   3.133  10.144 -0.0220 -0.5882 -0.3990
  142SAPE   H2Y15514   4.790   2.972  10.165 -0.4553 -0.5436  0.2972
  142SAPE   C2315515   4.705   2.650  10.424  0.0653  0.4540 -0.3383
  142SAPE   H3R15516   4.745   2.622  10.524  1.3116  2.3741 -0.2383
  142SAPE   H3S15517   4.779   2.711  10.368 -0.0663  0.9631  0.0390
  142SAPE   C2415518   4.682   2.528  10.342  0.4231  0.4029  0.1091
  142SAPE   H4R15519   4.783   2.482  10.338 -0.5455 -1.8072 -3.3650
  142SAPE   H4S15520   4.664   2.545  10.233 -1.5379 -1.7495  0.0250
  142SAPE   C2515521   4.577   2.444  10.405 -0.7481  0.5313  0.3661
  142SAPE   H5R15522   4.609   2.407  10.504 -0.6782 -0.1592  0.0947
  142SAPE   C2615523   4.471   2.391  10.341 -0.5559 -0.0565 -0.2148
  142SAPE   H6R15524   4.399   2.329  10.398 -0.9335 -1.3880 -2.0243
  142SAPE   C2715525   4.444   2.412  10.194 -0.2319 -0.4275  0.2543
  142SAPE   H7R15526   4.388   2.325  10.153  0.3610  0.0130 -1.5738
  142SAPE   H7S15527   4.536   2.416  10.132 -0.3374  1.4853  0.1835
  142SAPE   C2815528   4.368   2.537  10.174 -1.1168 -0.1506  0.9847
  142SAPE   H8R15529   4.365   2.614  10.252  0.7184  1.3126 -0.3252
  142SAPE   C2915530   4.312   2.571  10.059  0.9355 -0.4832  0.2866
  142SAPE   H9R15531   4.271   2.673  10.055  1.1875 -0.3656  0.6514
  142SAPE  C21015532   4.320   2.482   9.930 -0.4345  0.6203  0.0227
  142SAPE  H10R15533   4.375   2.385   9.935  1.3031  1.5247 -0.6978
  142SAPE  H10S15534   4.376   2.545   9.858 -1.2993 -1.5422 -2.7383
  142SAPE  C21115535   4.177   2.459   9.885  0.1452  0.1399 -0.6477
  142SAPE  H11R15536   4.112   2.413   9.961  0.4836  1.6097  0.5853
  142SAPE  C21215537   4.121   2.493   9.769  0.4499 -0.1370  0.1497
  142SAPE  H12R15538   4.024   2.447   9.744  1.2755 -2.5337  1.1271
  142SAPE  C21315539   4.184   2.569   9.649 -0.1731 -0.1893  0.1640
  142SAPE  H13R15540   4.279   2.614   9.683  0.0730 -1.8475  1.8616
  142SAPE  H13S15541   4.122   2.659   9.630 -1.3058 -1.1874 -1.0560
  142SAPE  C21415542   4.206   2.480   9.529 -0.7764 -0.2558 -0.0828
  142SAPE  H14R15543   4.262   2.388   9.551  0.5888  0.9633  1.9089
  142SAPE  C21515544   4.176   2.511   9.396  0.8303  0.2636  0.2324
  142SAPE  H15R15545   4.188   2.438   9.314 -1.4817 -0.0725  0.1233
  142SAPE  C21615546   4.114   2.641   9.350 -0.1809  0.1115 -0.0375
  142SAPE  H16R15547   4.089   2.708   9.436 -2.9010 -0.3394 -0.4073
  142SAPE  H16S15548   4.018   2.632   9.296 -0.2393  3.1617 -0.6636
  142SAPE  C21715549   4.203   2.720   9.265  0.1312 -0.3752 -0.5570
  142SAPE  H17R15550   4.309   2.713   9.300  0.0390  1.2123  0.1393
  142SAPE  H17S15551   4.170   2.826   9.266  1.2209 -0.0061 -1.2416
  142SAPE  C21815552   4.190   2.684   9.117 -0.4835  0.3762  0.1345
  142SAPE  H18R15553   4.095   2.726   9.076 -0.7454 -0.0414  0.2998
  142SAPE  H18S15554   4.186   2.573   9.110 -1.9150  0.3456  0.9615
  142SAPE  C21915555   4.320   2.727   9.045  1.0663 -0.4427  0.8116
  142SAPE  H19R15556   4.415   2.702   9.098  1.4779  1.9673  1.3192
  142SAPE  H19S15557   4.306   2.837   9.054 -1.8811 -0.8538  2.2016
  142SAPE  C22015558   4.336   2.678   8.901 -0.3887 -0.2229  0.1988
  142SAPE  H20R15559   4.359   2.570   8.907  0.6906 -0.0922 -0.9999
  142SAPE  H20S15560   4.427   2.724   8.857  1.4323 -1.1663  2.7322
  142SAPE  H20T15561   4.246   2.686   8.836  0.7954  0.0165 -1.4972
  142SAPE   C3315562   5.000   2.964  10.097 -0.8493  0.0460  0.4793
  142SAPE   H3X15563   5.015   2.861  10.136 -2.1177  0.1011  1.1510
  142SAPE   H3Y15564   5.096   3.018  10.115  0.1564 -1.1232 -1.1256
  142SAPE   C3415565   4.971   2.969   9.945  0.0312  0.5881  0.4587
  142SAPE   H4X15566   4.958   3.078   9.924 -1.3704  0.1401 -1.2777
  142SAPE   H4Y15567   4.880   2.907   9.927  0.9432 -1.2467  1.8614
  142SAPE   C3515568   5.084   2.926   9.856 -0.0130  0.5235  0.0080
  142SAPE   H5X15569   5.113   2.821   9.880 -0.9315  1.0178  3.8701
  142SAPE   H5Y15570   5.176   2.987   9.865  0.0980  0.3543  0.0199
  142SAPE   C3615571   5.046   2.928   9.704  0.0617  0.4054 -0.2133
  142SAPE   H6X15572   5.007   3.031   9.691  0.0572  0.2747 -1.3822
  142SAPE   H6Y15573   4.964   2.857   9.680  0.8262 -0.1667 -1.2562
  142SAPE   C3715574   5.167   2.901   9.618 -0.6528 -0.5219  0.2056
  142SAPE   H7X15575   5.230   2.817   9.654 -0.6621  0.0386  1.5662
  142SAPE   H7Y15576   5.238   2.986   9.622 -0.4811 -0.4057 -2.9728
  142SAPE   C3815577   5.130   2.884   9.470  0.2995  0.1369 -0.0383
  142SAPE   H8X15578   5.053   2.954   9.430 -1.2388 -2.7779 -2.5271
  142SAPE   H8Y15579   5.084   2.784   9.459 -0.4499  0.4176  0.4581
  142SAPE   C3915580   5.250   2.891   9.378  0.0476 -1.3310 -0.4972
  142SAPE   H9X15581   5.339   2.845   9.427  0.0665 -1.5527 -0.7408
  142SAPE   H9Y15582   5.277   2.998   9.377 -0.6480 -1.1492 -2.0460
  142SAPE  C31015583   5.229   2.854   9.230 -0.3746 -0.8517 -0.2719
  142SAPE  H10X15584   5.122   2.874   9.207 -1.2121 -1.3543  2.7799
  142SAPE  H10Y15585   5.230   2.744   9.216 -2.7733 -0.5992 -3.6198
  142SAPE  C31115586   5.334   2.914   9.137 -0.0533  0.1190 -0.6201
  142SAPE  H11X15587   5.342   2.843   9.053 -1.1224 -0.9273  0.1312
  142SAPE  H11Y15588   5.432   2.911   9.189 -1.3543  4.0869  2.5936
  142SAPE  C31215589   5.311   3.060   9.077  0.0733  0.1038 -0.0966
  142SAPE  H12X15590   5.376   3.070   8.988 -0.0924 -1.8661 -0.4977
  142SAPE  H12Y15591   5.347   3.127   9.157  0.0143 -1.4790  1.2999
  142SAPE  C31315592   5.162   3.093   9.039 -0.4181  0.3067  0.2601
  142SAPE  H13X15593   5.114   2.998   9.004  2.9129 -1.4642  0.1242
  142SAPE  H13Y15594   5.173   3.152   8.946  2.1354 -0.2475  0.1376
  142SAPE  C31415595   5.089   3.181   9.132 -0.2122 -0.6061 -0.3382
  142SAPE  H14X15596   5.114   3.141   9.233 -0.3517 -0.5675 -0.2878
  142SAPE  H14Y15597   4.980   3.173   9.108 -0.1296  0.0970 -0.9650
  142SAPE  C31515598   5.131   3.330   9.117  0.5083 -0.4472  0.0134
  142SAPE  H15X15599   5.084   3.369   9.024  0.2770  0.4742  0.4961
  142SAPE  H15Y15600   5.241   3.348   9.112  0.5879 -0.8411  0.3484
  142SAPE  C31615601   5.069   3.431   9.215  0.2543  0.9108 -0.2195
  142SAPE  H16X15602   4.961   3.409   9.225  0.1752  0.1986 -2.2502
  142SAPE  H16Y15603   5.078   3.530   9.166 -2.0058  1.8049  0.9903
  142SAPE  C31715604   5.132   3.436   9.355 -0.2103  0.0772 -0.3721
  142SAPE  H17X15605   5.242   3.442   9.341 -0.2570 -1.6625 -1.9544
  142SAPE  H17Y15606   5.115   3.334   9.397  0.7714  1.0151  2.5817
  142SAPE  C31815607   5.076   3.541   9.448 -0.1302 -0.7996 -0.2024
  142SAPE  H18X15608   5.115   3.641   9.420 -0.4954 -1.2066 -2.3450
  142SAPE  H18Y15609   5.125   3.519   9.546  0.9274 -2.0484 -0.9784
  142SAPE  H18Z15610   4.965   3.533   9.444 -0.2623  0.2263  0.8181
  143SAPE     N15611   6.572   3.274  10.850 -0.5066  0.0256  0.2393
  143SAPE   HN115612   6.516   3.230  10.925  1.4535 -3.1304  0.0325
  143SAPE   HN215613   6.668   3.289  10.886  0.1847  0.4995 -1.6360
  143SAPE   HN315614   6.540   3.370  10.824 -0.4244 -0.1172 -0.4202
  143SAPE   C1215615   6.574   3.188  10.726  0.1225  0.2214 -0.0449
  143SAPE  H12A15616   6.667   3.214  10.671  1.4756 -1.1760  1.4508
  143SAPE  H12B15617   6.486   3.202  10.661  0.5360 -1.3877 -1.0172
  143SAPE   C1115618   6.573   3.039  10.764 -0.6729  0.5189 -0.2955
  143SAPE  H11A15619   6.670   3.020  10.815  0.3282  0.0058 -2.3062
  143SAPE  H11B15620   6.559   2.972  10.677  0.7008 -0.0180 -0.1347
  143SAPE     P15621   6.325   2.971  10.831 -0.2437  0.0293  0.0177
  143SAPE   O1315622   6.329   2.819  10.832 -0.1532  0.6026  0.0920
  143SAPE   O1415623   6.226   3.038  10.919  0.2214  0.3385 -0.1442
  143SAPE   O1215624   6.474   3.013  10.866 -0.4122  0.1329  0.7659
  143SAPE   O1115625   6.312   3.019  10.677 -0.3892  0.1109 -0.0047
  143SAPE    C115626   6.200   2.992  10.595 -0.1427 -0.4445  0.1227
  143SAPE    HA15627   6.117   2.937  10.645  0.9069 -1.2770  0.9878
  143SAPE    HB15628   6.145   3.080  10.555 -0.1814 -0.9210 -0.9201
  143SAPE    C215629   6.239   2.923  10.467 -0.3832 -0.3343  0.0856
  143SAPE    HS15630   6.276   2.822  10.494 -1.0798  0.0221  2.5645
  143SAPE   O2115631   6.340   3.001  10.404  0.4340  0.0651  0.4221
  143SAPE   C2115632   6.459   2.934  10.386 -0.2834  0.1876  0.0479
  143SAPE   O2215633   6.487   2.822  10.417 -0.3028 -0.7590  0.3313
  143SAPE   C2215634   6.568   3.026  10.316 -0.4251  0.2297 -1.1996
  143SAPE   H2R15635   6.611   3.093  10.393  1.2168 -1.0928 -0.9169
  143SAPE   H2S15636   6.654   2.960  10.291  1.0198  1.6173 -0.0290
  143SAPE    C315637   6.112   2.910  10.373  0.8368  0.5435  0.0282
  143SAPE    HX15638   6.092   3.013  10.336  1.4579  0.0852 -1.6640
  143SAPE    HY15639   6.029   2.868  10.432  1.3362 -0.2606  0.1662
  143SAPE   O3115640   6.138   2.826  10.259  0.0707  0.3254 -0.3827
  143SAPE   C3115641   6.119   2.693  10.283 -0.7222  0.6611 -0.2557
  143SAPE   O3215642   6.092   2.646  10.390  0.2088  0.0155  0.7982
  143SAPE   C3215643   6.141   2.609  10.154  0.1991  0.2973  0.2952
  143SAPE   H2X15644   6.188   2.510  10.173  1.6682  0.7464 -0.7677
  143SAPE   H2Y15645   6.211   2.670  10.092 -0.5367  1.0070  0.1504
  143SAPE   C2315646   6.514   3.112  10.202  0.0992  0.2547  0.4714
  143SAPE   H3R15647   6.450   3.189  10.251 -0.8569 -1.5639  2.2607
  143SAPE   H3S15648   6.440   3.054  10.143 -0.4995 -1.3041  2.5882
  143SAPE   C2415649   6.611   3.180  10.106  0.5855 -0.4757 -0.0625
  143SAPE   H4R15650   6.683   3.103  10.070 -0.5258 -0.5710 -2.2075
  143SAPE   H4S15651   6.672   3.249  10.169  0.3068 -0.4826  0.2184
  143SAPE   C2515652   6.542   3.254   9.997 -0.1016 -0.7199 -0.2842
  143SAPE   H5R15653   6.482   3.342  10.025 -0.9876 -0.1079 -3.5680
  143SAPE   C2615654   6.544   3.220   9.871  0.6674 -0.4066 -0.3983
  143SAPE   H6R15655   6.503   3.294   9.801 -1.2551 -0.9240  0.1356
  143SAPE   C2715656   6.602   3.100   9.803  0.5656 -0.4873  0.7491
  143SAPE   H7R15657   6.534   3.012   9.800 -0.0201 -0.1281 -3.7306
  143SAPE   H7S15658   6.690   3.061   9.860  0.3503 -1.3025  0.5426
  143SAPE   C2815659   6.635   3.134   9.658 -0.2156 -0.0429 -0.5208
  143SAPE   H8R15660   6.729   3.190   9.646  0.6093 -1.1127  0.6493
  143SAPE   C2915661   6.569   3.101   9.550  0.0296  0.2062 -0.3502
  143SAPE   H9R15662   6.609   3.146   9.457 -1.8287  0.5937 -1.0093
  143SAPE  C21015663   6.445   3.020   9.539  0.0601 -0.2170 -0.6074
  143SAPE  H10R15664   6.370   3.062   9.469 -1.3662  0.2269  1.1003
  143SAPE  H10S15665   6.399   3.032   9.640 -0.1523 -0.7605 -0.6365
  143SAPE  C21115666   6.476   2.880   9.527 -0.1191 -0.1834  0.0784
  143SAPE  H11R15667   6.499   2.828   9.621  1.7358  2.1348  1.0006
  143SAPE  C21215668   6.457   2.801   9.414 -0.0311 -0.0956 -0.1193
  143SAPE  H12R15669   6.475   2.693   9.417 -0.5689 -0.1665  0.9972
  143SAPE  C21315670   6.412   2.859   9.280  0.0836  0.4586 -0.5602
  143SAPE  H13R15671   6.320   2.918   9.299  1.8769  2.4371  2.9119
  143SAPE  H13S15672   6.367   2.781   9.213  0.5029  0.7701 -1.2097
  143SAPE  C21415673   6.517   2.945   9.202  1.1679 -0.1122  0.8232
  143SAPE  H14R15674   6.500   3.054   9.195 -1.1601 -0.3440  2.0090
  143SAPE  C21515675   6.613   2.891   9.127  0.7198 -1.2102  0.3616
  143SAPE  H15R15676   6.681   2.959   9.074  1.1256 -0.9302  1.2236
  143SAPE  C21615677   6.660   2.756   9.109  0.5811  0.0658  0.7119
  143SAPE  H16R15678   6.589   2.687   9.159 -2.7471  2.6431 -0.0469
  143SAPE  H16S15679   6.763   2.742   9.148  2.2812 -0.4693 -3.4718
  143SAPE  C21715680   6.631   2.719   8.961 -0.2453 -0.6754 -0.3757
  143SAPE  H17R15681   6.674   2.794   8.890 -1.6175 -0.3537 -0.8936
  143SAPE  H17S15682   6.522   2.715   8.944 -0.5131  1.3869  0.5335
  143SAPE  C21815683   6.693   2.581   8.928  0.2535 -0.6087 -0.1702
  143SAPE  H18R15684   6.656   2.506   9.002  1.4795 -1.2742 -0.1967
  143SAPE  H18S15685   6.803   2.586   8.943  0.6666 -1.2831 -2.5660
  143SAPE  C21915686   6.679   2.541   8.785 -0.0700  0.0282 -0.0369
  143SAPE  H19R15687   6.710   2.436   8.769 -2.6182 -1.0484  1.3232
  143SAPE  H19S15688   6.736   2.613   8.723 -2.0005 -0.4428 -2.5241
  143SAPE  C22015689   6.533   2.545   8.721 -0.0183  0.5069  0.3416
  143SAPE  H20R15690   6.478   2.451   8.744  2.4363 -0.9239  0.6358
  143SAPE  H20S15691   6.554   2.551   8.613  0.6031 -0.0310  0.4326
  143SAPE  H20T15692   6.479   2.638   8.750 -0.7606  0.0788  0.3634
  143SAPE   C3315693   6.009   2.585  10.078 -0.8434 -0.5092 -0.7827
  143SAPE   H3X15694   5.947   2.677  10.078 -1.1486 -0.6855  1.0210
  143SAPE   H3Y15695   5.967   2.494  10.126 -0.3240 -0.5763 -0.4463
  143SAPE   C3415696   6.045   2.551   9.938  0.4938 -0.1275  0.1633
  143SAPE   H4X15697   6.096   2.642   9.898  1.6788 -1.1527 -0.7320
  143SAPE   H4Y15698   5.953   2.535   9.878 -0.0368  0.6059  0.7685
  143SAPE   C3515699   6.131   2.419   9.922  0.0357  0.2960 -0.5244
  143SAPE   H5X15700   6.107   2.341   9.998 -0.2319  2.0942  1.3363
  143SAPE   H5Y15701   6.237   2.446   9.946  0.1448 -1.5384  1.3419
  143SAPE   C3615702   6.119   2.361   9.780  0.2227  0.2416 -0.1012
  143SAPE   H6X15703   6.021   2.311   9.763  1.1386 -0.9713 -2.2967
  143SAPE   H6Y15704   6.201   2.287   9.770  0.0974  0.1408 -0.4085
  143SAPE   C3715705   6.135   2.459   9.662  0.0701  0.0738 -0.4749
  143SAPE   H7X15706   6.231   2.512   9.677 -0.0533  0.3883 -0.7847
  143SAPE   H7Y15707   6.054   2.535   9.662 -0.6740 -0.7052  0.0181
  143SAPE   C3815708   6.129   2.390   9.527  0.2441 -0.1027  0.2899
  143SAPE   H8X15709   6.022   2.362   9.524  0.2693 -0.6631  2.6707
  143SAPE   H8Y15710   6.200   2.305   9.529 -1.0683 -1.2207  0.8305
  143SAPE   C3915711   6.171   2.476   9.411 -0.3989  0.4330  0.2177
  143SAPE   H9X15712   6.281   2.478   9.418 -0.4569  2.9588  2.1307
  143SAPE   H9Y15713   6.134   2.581   9.414  1.1961  1.0384 -0.2061
  143SAPE  C31015714   6.131   2.411   9.273  0.0390 -0.0317  0.1299
  143SAPE  H10X15715   6.020   2.400   9.267  0.2399 -2.2452 -0.8090
  143SAPE  H10Y15716   6.176   2.309   9.268 -0.8236 -0.3984 -0.2950
  143SAPE  C31115717   6.172   2.489   9.146  0.3417 -0.7020 -0.0043
  143SAPE  H11X15718   6.281   2.512   9.141 -0.3821  3.2236 -1.1303
  143SAPE  H11Y15719   6.130   2.591   9.158 -2.5215 -1.7351 -0.4133
  143SAPE  C31215720   6.128   2.429   9.015  1.0225 -0.1036  0.2469
  143SAPE  H12X15721   6.019   2.411   9.016  0.7033  1.6778  0.8718
  143SAPE  H12Y15722   6.173   2.328   9.007 -1.6193 -1.2338 -1.7557
  143SAPE  C31315723   6.166   2.514   8.895 -0.4878 -0.3424  0.5483
  143SAPE  H13X15724   6.273   2.540   8.889 -0.3279 -1.2622 -1.8227
  143SAPE  H13Y15725   6.114   2.610   8.911  1.9254  0.9748  0.9133
  143SAPE  C31415726   6.144   2.433   8.761  0.5867 -0.0943  0.3436
  143SAPE  H14X15727   6.044   2.386   8.749  1.4966 -2.0239 -0.1896
  143SAPE  H14Y15728   6.204   2.342   8.741  0.5123 -0.5076  1.8158
  143SAPE  C31515729   6.163   2.529   8.637 -0.0468  0.5924 -0.1495
  143SAPE  H15X15730   6.197   2.469   8.550 -0.8837 -0.4758  0.2354
  143SAPE  H15Y15731   6.243   2.603   8.658  0.6823  0.5691 -2.5692
  143SAPE  C31615732   6.037   2.605   8.613  0.4784  0.2625 -0.3784
  143SAPE  H16X15733   6.028   2.689   8.685  0.2033 -0.8553  0.9576
  143SAPE  H16Y15734   5.954   2.533   8.635  2.2396 -1.1603  2.2126
  143SAPE  C31715735   6.023   2.650   8.471 -0.2722 -0.1523  0.2370
  143SAPE  H17X15736   6.052   2.566   8.405  0.8445  1.9843 -2.1823
  143SAPE  H17Y15737   6.098   2.728   8.445  0.2585 -0.7789 -0.1198
  143SAPE  C31815738   5.879   2.696   8.447  0.6855  0.5027 -0.3225
  143SAPE  H18X15739   5.860   2.724   8.341  0.7280  0.9475 -0.2171
  143SAPE  H18Y15740   5.847   2.779   8.513  0.3919 -0.0395  0.2205
  143SAPE  H18Z15741   5.807   2.613   8.465  0.0943  0.6621 -1.7554
  144SAPE     N15742   2.034   0.296  11.248 -0.2606 -0.0510  0.4436
  144SAPE   HN115743   2.032   0.197  11.282  0.8537 -1.1204 -2.2870
  144SAPE   HN215744   2.051   0.360  11.328  2.6124  0.8741 -0.7768
  144SAPE   HN315745   1.940   0.307  11.206 -0.7255 -1.8763  0.8880
  144SAPE   C1215746   2.146   0.317  11.154 -0.2908  0.4863 -0.6136
  144SAPE  H12A15747   2.155   0.217  11.106  0.6047  0.7253 -0.9754
  144SAPE  H12B15748   2.234   0.349  11.214 -0.1333  0.6833 -0.9427
  144SAPE   C1115749   2.113   0.427  11.059 -0.7655  0.6224 -0.5330
  144SAPE  H11A15750   2.196   0.430  10.986 -0.5209  1.3000 -0.2332
  144SAPE  H11B15751   2.103   0.527  11.106 -2.8563  0.2463 -0.0463
  144SAPE     P15752   1.969   0.339  10.847 -0.7569 -0.1842 -0.1169
  144SAPE   O1315753   2.094   0.306  10.779 -0.0022 -0.4906 -0.0792
  144SAPE   O1415754   1.868   0.233  10.859 -0.7153 -0.0012 -0.0485
  144SAPE   O1215755   1.993   0.397  10.994 -0.0825  0.3201  0.6415
  144SAPE   O1115756   1.908   0.467  10.785 -0.1537  0.3344 -0.1451
  144SAPE    C115757   1.778   0.472  10.725  0.2816  0.5823  0.2832
  144SAPE    HA15758   1.715   0.387  10.758  0.3501  0.6722  0.6472
  144SAPE    HB15759   1.719   0.563  10.747  0.2359  0.0401  2.6096
  144SAPE    C215760   1.796   0.455  10.569  0.3545  1.1933  0.8215
  144SAPE    HS15761   1.695   0.467  10.524  0.8890 -0.3466 -0.9081
  144SAPE   O2115762   1.852   0.323  10.532 -0.6555 -0.0109 -0.5461
  144SAPE   C2115763   1.766   0.227  10.517  0.9081  0.4108 -0.1246
  144SAPE   O2215764   1.644   0.225  10.551  0.5189 -0.0538 -0.0062
  144SAPE   C2215765   1.832   0.114  10.440 -1.0291  0.0693  1.0008
  144SAPE   H2R15766   1.930   0.150  10.402 -1.7885  4.3478  2.5402
  144SAPE   H2S15767   1.846   0.041  10.522  0.1668 -0.1812  0.5998
  144SAPE    C315768   1.883   0.562  10.505  0.3910 -0.5841  0.0202
  144SAPE    HX15769   1.987   0.545  10.540  0.1679 -2.9085 -0.2749
  144SAPE    HY15770   1.850   0.665  10.533  2.8585  1.3381 -3.4008
  144SAPE   O3115771   1.867   0.559  10.359  0.4629  0.4122  0.0288
  144SAPE   C3115772   1.967   0.496  10.299  0.1609 -0.0589 -0.4243
  144SAPE   O3215773   2.071   0.463  10.351  0.1686  0.0881  0.1202
  144SAPE   C3215774   1.942   0.489  10.146  0.6866 -0.8118 -0.2403
  144SAPE   H2X15775   1.916   0.595  10.126 -2.4096 -0.9715  2.1829
  144SAPE   H2Y15776   1.850   0.427  10.139  0.1237 -0.0065 -0.1841
  144SAPE   C2315777   1.743   0.047  10.329  0.9078 -0.5000 -0.3409
  144SAPE   H3R15778   1.640   0.039  10.369  1.4642  0.1458  1.2918
  144SAPE   H3S15779   1.777  -0.058  10.317  1.5289 -0.7013  2.4647
  144SAPE   C2415780   1.737   0.124  10.198 -0.2317  0.1292  0.6417
  144SAPE   H4R15781   1.706   0.231  10.198 -1.6134 -0.2386 -0.4366
  144SAPE   H4S15782   1.660   0.077  10.134  0.6098  0.1685 -0.4249
  144SAPE   C2515783   1.865   0.104  10.131 -0.4095 -0.2701  0.0379
  144SAPE   H5R15784   1.941   0.161  10.188 -1.1959 -0.5603  1.4355
  144SAPE   C2615785   1.899   0.051  10.015  0.6521  0.6326 -0.1748
  144SAPE   H6R15786   2.004   0.055   9.981  0.6532  1.7464 -0.0628
  144SAPE   C2715787   1.805  -0.024   9.920 -0.3784  0.0958 -0.2034
  144SAPE   H7R15788   1.732  -0.081   9.983 -0.5611 -1.9860 -2.1482
  144SAPE   H7S15789   1.860  -0.099   9.859 -0.7455  0.8555 -1.4928
  144SAPE   C2815790   1.716   0.078   9.843 -0.4155  0.3379  0.4577
  144SAPE   H8R15791   1.729   0.181   9.877 -1.4287  0.3758  0.7720
  144SAPE   C2915792   1.638   0.052   9.732  0.5343  0.0535 -0.4755
  144SAPE   H9R15793   1.571   0.133   9.702  0.6062  0.5527  0.6760
  144SAPE  C21015794   1.623  -0.080   9.657 -0.0472 -0.6590  0.6354
  144SAPE  H10R15795   1.600  -0.162   9.729  0.2385  0.0656  1.5755
  144SAPE  H10S15796   1.725  -0.101   9.616 -0.1469  1.2251 -0.6856
  144SAPE  C21115797   1.510  -0.074   9.547 -0.7294 -0.2856  0.1220
  144SAPE  H11R15798   1.405  -0.048   9.571 -0.2452  0.2637  1.8078
  144SAPE  C21215799   1.542  -0.090   9.415  0.0366 -0.7594  0.6293
  144SAPE  H12R15800   1.464  -0.086   9.337  0.1620  1.3768  0.5629
  144SAPE  C21315801   1.681  -0.120   9.360  0.7178 -0.2203 -0.0809
  144SAPE  H13R15802   1.672  -0.215   9.301  0.9567 -0.4852  0.3067
  144SAPE  H13S15803   1.765  -0.144   9.427  0.5899  0.6509  0.4061
  144SAPE  C21415804   1.723  -0.011   9.270 -0.0569 -0.5335  0.2319
  144SAPE  H14R15805   1.776   0.073   9.317 -2.2217  1.7973 -1.2514
  144SAPE  C21515806   1.730  -0.016   9.135  0.2187 -0.2328  0.4228
  144SAPE  H15R15807   1.786   0.063   9.082  0.0854 -0.0602  0.5342
  144SAPE  C21615808   1.665  -0.124   9.041  0.4094 -0.5751  0.4864
  144SAPE  H16R15809   1.601  -0.200   9.090 -0.7098 -1.2809 -1.9664
  144SAPE  H16S15810   1.747  -0.162   8.977  0.0765  1.0350 -0.9612
  144SAPE  C21715811   1.577  -0.052   8.938 -0.3120 -0.3620 -1.1123
  144SAPE  H17R15812   1.633   0.016   8.870  2.2119 -0.6289  0.5422
  144SAPE  H17S15813   1.497   0.003   8.992 -0.5096 -1.9396  0.2697
  144SAPE  C21815814   1.525  -0.156   8.842 -0.2327  0.4027 -0.9789
  144SAPE  H18R15815   1.488  -0.234   8.911  1.7577 -0.1815 -0.5009
  144SAPE  H18S15816   1.607  -0.209   8.788  1.7770  2.1797  0.1533
  144SAPE  C21915817   1.407  -0.110   8.765  0.3536 -0.5655  0.9432
  144SAPE  H19R15818   1.427  -0.023   8.699 -1.8859 -1.4932 -1.1188
  144SAPE  H19S15819   1.328  -0.058   8.825  0.7735  0.6069  0.5120
  144SAPE  C22015820   1.335  -0.228   8.707  0.3167 -0.0645  0.4111
  144SAPE  H20R15821   1.236  -0.196   8.671  0.2497 -0.4053  0.2914
  144SAPE  H20S15822   1.321  -0.299   8.792  1.1359 -1.0515 -0.2520
  144SAPE  H20T15823   1.394  -0.276   8.626  0.2444  0.3600  0.1112
  144SAPE   C3315824   2.053   0.431  10.048 -0.0480 -0.3718 -0.4581
  144SAPE   H3X15825   2.108   0.337  10.073 -0.1708 -0.7803 -1.6838
  144SAPE   H3Y15826   2.132   0.509  10.052  0.1747 -0.5526 -1.1341
  144SAPE   C3415827   2.005   0.436   9.902  0.9547  0.2735  0.2427
  144SAPE   H4X15828   1.953   0.529   9.872 -1.1788 -1.0970 -0.6217
  144SAPE   H4Y15829   1.924   0.361   9.885 -1.3626  2.4890  0.8431
  144SAPE   C3515830   2.108   0.410   9.789 -0.0759  0.3319 -0.1683
  144SAPE   H5X15831   2.153   0.310   9.808  1.3510  0.7114 -1.3677
  144SAPE   H5Y15832   2.189   0.487   9.793 -1.8060  2.5279 -3.3518
  144SAPE   C3615833   2.035   0.394   9.650 -0.2395  0.2354 -0.5942
  144SAPE   H6X15834   2.011   0.494   9.607 -1.0197 -0.8364 -2.7618
  144SAPE   H6Y15835   1.937   0.345   9.667 -1.3045  1.6834 -2.2860
  144SAPE   C3715836   2.112   0.319   9.544 -0.7292  0.1248 -0.6459
  144SAPE   H7X15837   2.116   0.212   9.575  0.3174  0.5707  0.9067
  144SAPE   H7Y15838   2.220   0.342   9.535 -0.8460  0.9115 -0.1100
  144SAPE   C3815839   2.039   0.316   9.407  1.2115  0.6679 -0.3630
  144SAPE   H8X15840   1.997   0.415   9.381 -2.0848  0.0159  1.8145
  144SAPE   H8Y15841   1.957   0.242   9.416  2.0690 -0.4594 -1.3747
  144SAPE   C3915842   2.120   0.241   9.304 -0.5009 -0.1484 -0.0703
  144SAPE   H9X15843   2.142   0.140   9.344 -1.7982  0.1527  1.5118
  144SAPE   H9Y15844   2.219   0.289   9.287  0.5425 -2.2560 -0.2706
  144SAPE  C31015845   2.054   0.241   9.164  0.2600  0.7101 -0.0047
  144SAPE  H10X15846   2.052   0.343   9.121 -0.7274  0.8040  0.2471
  144SAPE  H10Y15847   1.946   0.219   9.176  0.1224  1.6101  0.4871
  144SAPE  C31115848   2.104   0.150   9.058 -0.5967  1.0916  0.6233
  144SAPE  H11X15849   2.061   0.049   9.079  0.7656  0.3325 -0.1316
  144SAPE  H11Y15850   2.214   0.149   9.071 -0.6544  0.9741  1.1659
  144SAPE  C31215851   2.060   0.182   8.911 -0.7785  0.3397  0.3244
  144SAPE  H12X15852   2.084   0.290   8.901 -0.0212  0.1653  0.2109
  144SAPE  H12Y15853   1.952   0.159   8.899 -0.1882 -2.0201 -1.1288
  144SAPE  C31315854   2.143   0.107   8.808  0.2580  0.9294 -0.1103
  144SAPE  H13X15855   2.144  -0.001   8.832  1.4124  1.0230  0.3115
  144SAPE  H13Y15856   2.243   0.156   8.809 -0.2972  2.0965  0.3879
  144SAPE  C31415857   2.068   0.106   8.675  0.8098 -0.4210 -0.0394
  144SAPE  H14X15858   2.146   0.084   8.598  0.7754  0.1204 -0.2386
  144SAPE  H14Y15859   2.035   0.210   8.653 -0.3104 -0.4558  1.3831
  144SAPE  C31515860   1.955  -0.003   8.659 -0.3206 -0.0390  0.5105
  144SAPE  H15X15861   1.877   0.011   8.737 -0.7255 -1.3269  0.3595
  144SAPE  H15Y15862   1.995  -0.104   8.681 -0.0870  0.3293  1.8458
  144SAPE  C31615863   1.884  -0.002   8.520  0.7264  0.6378  0.3201
  144SAPE  H16X15864   1.818  -0.090   8.504  1.9649  0.0973 -2.3477
  144SAPE  H16Y15865   1.955  -0.006   8.434 -0.7173  2.3423 -1.0307
  144SAPE  C31715866   1.784   0.117   8.481 -0.5731  1.2828  0.3845
  144SAPE  H17X15867   1.743   0.113   8.378 -0.5887  3.1580  0.2869
  144SAPE  H17Y15868   1.839   0.212   8.494  1.0898  0.7221 -2.0643
  144SAPE  C31815869   1.675   0.118   8.582 -0.0906  0.2092 -0.2664
  144SAPE  H18X15870   1.605   0.032   8.572  2.3495 -1.9063 -0.1935
  144SAPE  H18Y15871   1.612   0.206   8.555  0.3327  0.6495  0.1650
  144SAPE  H18Z15872   1.712   0.139   8.685  2.0360  0.0494 -0.9380
  145SAPE     N15873   5.492   2.174  11.168  0.3330  0.2964  0.5069
  145SAPE   HN115874   5.410   2.205  11.224  0.3275 -1.5507  1.5965
  145SAPE   HN215875   5.458   2.091  11.116  2.0088 -1.2040  1.6961
  145SAPE   HN315876   5.577   2.154  11.224  0.4418 -0.1876  0.1740
  145SAPE   C1215877   5.537   2.283  11.065  0.6012  0.2634 -0.2830
  145SAPE  H12A15878   5.448   2.320  11.008 -0.3612  0.4169  1.2655
  145SAPE  H12B15879   5.607   2.228  10.998  0.1041 -1.4176  0.5348
  145SAPE   C1115880   5.602   2.397  11.138  0.0824 -0.6149  0.5667
  145SAPE  H11A15881   5.540   2.445  11.217  0.1737 -1.9549  1.4705
  145SAPE  H11B15882   5.619   2.477  11.062 -2.3615  0.8222  1.4050
  145SAPE     P15883   5.859   2.350  11.143  0.3255  0.3622 -0.1510
  145SAPE   O1315884   5.943   2.470  11.174  0.1955 -0.3257  0.3132
  145SAPE   O1415885   5.920   2.216  11.167  0.0200 -0.1206 -0.2940
  145SAPE   O1215886   5.713   2.361  11.213  0.3668  0.0532 -0.4381
  145SAPE   O1115887   5.819   2.349  10.989 -0.5727 -0.9014  0.4130
  145SAPE    C115888   5.906   2.421  10.901  0.1063 -0.8581 -0.2158
  145SAPE    HA15889   5.884   2.530  10.906 -1.3284 -0.7768 -4.3582
  145SAPE    HB15890   6.015   2.415  10.921  0.4288  1.3853 -0.9971
  145SAPE    C215891   5.876   2.385  10.756 -0.9763 -0.2420 -0.5126
  145SAPE    HS15892   5.940   2.446  10.688  0.6332 -0.5090  0.6933
  145SAPE   O2115893   5.735   2.391  10.731 -0.4287  0.3978 -0.0973
  145SAPE   C2115894   5.702   2.519  10.735  0.2476  0.6458 -0.4376
  145SAPE   O2215895   5.779   2.609  10.697 -0.1866  0.5806 -0.3849
  145SAPE   C2215896   5.555   2.526  10.774 -0.1566 -0.2151  0.5766
  145SAPE   H2R15897   5.552   2.538  10.885 -2.1538 -0.7143  0.6265
  145SAPE   H2S15898   5.511   2.622  10.740 -1.3337 -0.7591  0.5108
  145SAPE    C315899   5.910   2.240  10.721 -0.0341  0.2176  0.0400
  145SAPE    HX15900   5.855   2.172  10.789 -1.0257  0.3789 -0.5844
  145SAPE    HY15901   6.020   2.224  10.729 -0.0545  0.0182 -0.0791
  145SAPE   O3115902   5.872   2.202  10.585  0.3722 -0.1698  0.1609
  145SAPE   C3115903   5.938   2.261  10.486 -0.5246  0.6074  0.5069
  145SAPE   O3215904   6.035   2.334  10.501  0.0564  0.5108  0.3147
  145SAPE   C3215905   5.868   2.230  10.351  0.0424  0.0270 -0.1818
  145SAPE   H2X15906   5.895   2.315  10.284  2.5862  0.0586  0.7570
  145SAPE   H2Y15907   5.759   2.222  10.370 -0.1968 -0.1298 -1.4859
  145SAPE   C2315908   5.461   2.415  10.705  0.7897 -0.0353  0.3663
  145SAPE   H3R15909   5.358   2.449  10.727  0.0295 -0.1456 -2.5822
  145SAPE   H3S15910   5.483   2.318  10.754  0.0904  0.3456  1.4557
  145SAPE   C2415911   5.469   2.402  10.556  0.6493  0.5499 -0.2918
  145SAPE   H4R15912   5.390   2.327  10.534  1.4250  0.4397 -3.1556
  145SAPE   H4S15913   5.567   2.360  10.524  1.4652  1.6317  0.6909
  145SAPE   C2515914   5.435   2.525  10.482  0.9946 -0.1899  0.2967
  145SAPE   H5R15915   5.509   2.607  10.474 -0.1405  0.7831 -0.4462
  145SAPE   C2615916   5.309   2.552  10.428 -0.0499  0.5531 -0.3383
  145SAPE   H6R15917   5.289   2.653  10.388 -2.2585  0.0092 -0.7291
  145SAPE   C2715918   5.186   2.463  10.427  0.3869 -0.2222  0.1866
  145SAPE   H7R15919   5.097   2.530  10.423  0.5366 -0.0625 -2.4780
  145SAPE   H7S15920   5.176   2.407  10.522 -0.6322  0.1969  0.3456
  145SAPE   C2815921   5.186   2.358  10.313  0.8088 -0.9755 -1.2339
  145SAPE   H8R15922   5.200   2.255  10.348  2.0746  0.1232  1.7850
  145SAPE   C2915923   5.142   2.395  10.191  0.7455  0.5039 -0.2931
  145SAPE   H9R15924   5.132   2.319  10.113 -0.3567  0.3076  0.0369
  145SAPE  C21015925   5.101   2.534  10.139  0.7840  0.7324  0.3336
  145SAPE  H10R15926   5.196   2.579  10.105  0.6098  1.9726  1.4136
  145SAPE  H10S15927   5.060   2.597  10.221 -1.7580 -1.8761  1.2710
  145SAPE  C21115928   4.996   2.516  10.026  0.2109 -0.1845 -1.0045
  145SAPE  H11R15929   4.893   2.512  10.063  1.0418 -1.8943  1.3385
  145SAPE  C21215930   5.018   2.509   9.895  0.0181  0.3649  0.6222
  145SAPE  H12R15931   4.930   2.508   9.829 -0.2048  0.3527  0.9154
  145SAPE  C21315932   5.148   2.507   9.812  0.6289  0.4611  0.2966
  145SAPE  H13R15933   5.236   2.540   9.871  0.7273  1.9137 -0.6224
  145SAPE  H13S15934   5.133   2.584   9.733 -1.1510  0.4737  0.6000
  145SAPE  C21415935   5.169   2.365   9.763 -0.2494 -0.7702  0.0548
  145SAPE  H14R15936   5.165   2.280   9.833  0.4039 -1.9611 -1.3126
  145SAPE  C21515937   5.209   2.331   9.637  0.0279  0.7294  0.4851
  145SAPE  H15R15938   5.209   2.223   9.614 -2.1679  0.7548  0.0903
  145SAPE  C21615939   5.221   2.431   9.526  0.0663 -1.0065 -0.7794
  145SAPE  H16R15940   5.296   2.510   9.545 -0.1605 -0.1798 -2.9967
  145SAPE  H16S15941   5.133   2.495   9.506  1.5289  1.1179 -0.7153
  145SAPE  C21715942   5.280   2.370   9.398  0.3873 -0.2237 -0.6250
  145SAPE  H17R15943   5.216   2.281   9.381 -0.8398  0.1691  1.4516
  145SAPE  H17S15944   5.386   2.341   9.410 -0.0433 -1.2072  1.1052
  145SAPE  C21815945   5.261   2.466   9.279  0.4393  0.2627 -0.4267
  145SAPE  H18R15946   5.291   2.572   9.294  1.1848  0.5102 -3.1164
  145SAPE  H18S15947   5.155   2.456   9.249  0.4650 -1.0796 -0.1036
  145SAPE  C21915948   5.342   2.421   9.158 -0.4148 -0.7619  0.2435
  145SAPE  H19R15949   5.323   2.313   9.144 -0.9216 -0.6618  0.1361
  145SAPE  H19S15950   5.450   2.423   9.185 -0.0368 -0.8333 -1.2111
  145SAPE  C22015951   5.307   2.503   9.033 -0.5533 -0.0318  0.3047
  145SAPE  H20R15952   5.196   2.503   9.023 -0.5739  0.6611  0.5217
  145SAPE  H20S15953   5.350   2.467   8.937 -1.2823  0.6106 -0.2784
  145SAPE  H20T15954   5.345   2.606   9.049  0.4429 -0.2640 -0.4963
  145SAPE   C3315955   5.906   2.099  10.289  0.2129  0.3426  0.4297
  145SAPE   H3X15956   5.844   2.023  10.341 -0.3583  1.3657  1.2686
  145SAPE   H3Y15957   6.016   2.084  10.294  0.1861  0.1733  0.5311
  145SAPE   C3415958   5.868   2.107  10.140  0.2041  0.6208  0.7932
  145SAPE   H4X15959   5.936   2.169  10.077 -2.7091  1.2605 -1.9554
  145SAPE   H4Y15960   5.764   2.145  10.135 -0.4556 -0.9327  1.8532
  145SAPE   C3515961   5.858   1.959  10.076  0.4160 -0.2717  0.4882
  145SAPE   H5X15962   5.789   1.897  10.138  2.5149 -4.5848 -1.0472
  145SAPE   H5Y15963   5.957   1.908  10.066  0.0207 -0.8454 -0.6593
  145SAPE   C3615964   5.791   1.970   9.943  0.8315 -0.7435  0.5214
  145SAPE   H6X15965   5.701   2.034   9.939 -0.4092 -2.3715  1.1817
  145SAPE   H6Y15966   5.757   1.867   9.917 -0.1389 -0.4171  0.4617
  145SAPE   C3715967   5.869   2.045   9.826 -0.1261  0.1548 -0.0974
  145SAPE   H7X15968   5.972   2.009   9.806 -0.1821 -0.8257  1.2031
  145SAPE   H7Y15969   5.884   2.150   9.860  1.6692  0.7073 -2.3635
  145SAPE   C3815970   5.781   2.032   9.698  0.4824  0.2671  0.0458
  145SAPE   H8X15971   5.687   2.089   9.707  0.6071  0.5258 -0.2607
  145SAPE   H8Y15972   5.748   1.928   9.675  2.2213 -0.3575  0.1784
  145SAPE   C3915973   5.842   2.095   9.565  0.0199 -0.1647  0.3077
  145SAPE   H9X15974   5.942   2.045   9.563  0.5501  0.9003 -0.5275
  145SAPE   H9Y15975   5.854   2.198   9.602  0.9725  0.2018 -0.9351
  145SAPE  C31015976   5.767   2.082   9.433 -0.2628  0.3736  0.1831
  145SAPE  H10X15977   5.657   2.099   9.435 -0.9975 -2.9314 -2.3257
  145SAPE  H10Y15978   5.770   1.973   9.411  0.2138  0.1491  1.3149
  145SAPE  C31115979   5.821   2.169   9.320  0.1380 -0.7729 -1.0549
  145SAPE  H11X15980   5.927   2.136   9.317 -0.0312 -1.9014  2.0885
  145SAPE  H11Y15981   5.819   2.274   9.355 -0.5001 -1.0808 -0.1323
  145SAPE  C31215982   5.739   2.145   9.192  0.1636  0.2495 -0.5003
  145SAPE  H12X15983   5.631   2.161   9.214  1.0998  2.3079  3.7023
  145SAPE  H12Y15984   5.756   2.044   9.151  1.4768 -0.3418  1.3567
  145SAPE  C31315985   5.787   2.254   9.093  0.1922 -0.0209 -0.4104
  145SAPE  H13X15986   5.883   2.216   9.051 -0.3360 -0.3802 -1.3161
  145SAPE  H13Y15987   5.795   2.350   9.149 -3.5983  0.1099  0.1334
  145SAPE  C31415988   5.699   2.262   8.967  0.1393  0.6297 -0.0773
  145SAPE  H14X15989   5.744   2.339   8.902  1.4870  1.2297  1.4840
  145SAPE  H14Y15990   5.592   2.288   8.984 -0.3141 -1.1022 -0.0555
  145SAPE  C31515991   5.719   2.130   8.880 -0.1407  1.0112 -0.2124
  145SAPE  H15X15992   5.667   2.048   8.932 -2.0764  0.9144 -2.1477
  145SAPE  H15Y15993   5.827   2.104   8.866  0.1570  1.7892  0.5895
  145SAPE  C31615994   5.664   2.145   8.736 -0.2318 -0.1322 -0.0146
  145SAPE  H16X15995   5.562   2.187   8.737 -0.4674 -0.6864 -0.2920
  145SAPE  H16Y15996   5.653   2.049   8.681  1.1723  0.4697 -1.4589
  145SAPE  C31715997   5.756   2.239   8.647  0.6611  0.8343 -0.6158
  145SAPE  H17X15998   5.859   2.197   8.654  0.1839 -0.2114  0.4258
  145SAPE  H17Y15999   5.753   2.343   8.684 -0.5841  0.8937 -0.8315
  145SAPE  C31816000   5.716   2.250   8.507 -0.4412  0.0309  0.9278
  145SAPE  H18X16001   5.794   2.303   8.449  0.8466 -2.8063 -0.1209
  145SAPE  H18Y16002   5.619   2.302   8.493 -0.8057 -0.8992 -0.1968
  145SAPE  H18Z16003   5.701   2.152   8.456 -1.6147 -0.2659  1.7921
  146SAPE     N16004   3.542   0.863  10.632 -0.3327  0.4262  0.1476
  146SAPE   HN116005   3.587   0.876  10.539  1.5439  0.7756  1.0465
  146SAPE   HN216006   3.506   0.767  10.647 -0.0487  0.1032 -1.1206
  146SAPE   HN316007   3.463   0.930  10.638  0.5318  1.3437  2.6125
  146SAPE   C1216008   3.646   0.911  10.727  0.7493  0.4784  0.1130
  146SAPE  H12A16009   3.732   0.842  10.722 -0.7993 -1.7507  2.1621
  146SAPE  H12B16010   3.600   0.907  10.828 -0.0978  0.3147 -0.2731
  146SAPE   C1116011   3.678   1.063  10.699  0.0403  0.2793  0.1350
  146SAPE  H11A16012   3.716   1.069  10.595 -0.4859 -2.7534 -0.3032
  146SAPE  H11B16013   3.772   1.089  10.754  0.2161 -0.1160  0.0208
  146SAPE     P16014   3.566   1.285  10.803  0.2404  0.1410 -0.2460
  146SAPE   O1316015   3.434   1.352  10.801 -0.6489  0.1105  0.5091
  146SAPE   O1416016   3.624   1.252  10.935 -0.3437 -0.2675  0.1556
  146SAPE   O1216017   3.560   1.148  10.721 -0.0980  0.7117 -0.3145
  146SAPE   O1116018   3.677   1.365  10.722 -0.1779  0.2833  0.5313
  146SAPE    C116019   3.631   1.454  10.615 -0.0641 -0.6097 -0.4813
  146SAPE    HA16020   3.546   1.517  10.649  0.2833 -1.3455  1.9313
  146SAPE    HB16021   3.712   1.523  10.585 -0.4302 -1.2410 -3.2967
  146SAPE    C216022   3.588   1.387  10.481  0.7171  0.5222 -0.1576
  146SAPE    HS16023   3.497   1.325  10.490  0.0580  1.5410  0.2865
  146SAPE   O2116024   3.695   1.303  10.445  0.0999 -0.0870  0.1745
  146SAPE   C2116025   3.681   1.224  10.342  0.0015  0.6047  0.1203
  146SAPE   O2216026   3.577   1.189  10.292  0.4285  0.3950  0.3746
  146SAPE   C2216027   3.823   1.183  10.304  0.0770 -0.3416 -0.4586
  146SAPE   H2R16028   3.893   1.269  10.304 -0.6751  0.2772 -0.4835
  146SAPE   H2S16029   3.848   1.114  10.388 -1.3014  0.0859  0.3346
  146SAPE    C316030   3.546   1.481  10.361  1.1253 -0.2589 -0.0447
  146SAPE    HX16031   3.482   1.557  10.411 -0.4992 -0.5598 -1.5871
  146SAPE    HY16032   3.491   1.428  10.281  1.0657  1.7168 -1.4020
  146SAPE   O3116033   3.663   1.549  10.301  0.0332  0.3124  0.0301
  146SAPE   C3116034   3.646   1.667  10.249  0.9835 -0.6869 -0.5328
  146SAPE   O3216035   3.536   1.727  10.235  0.4962  0.4467 -0.2965
  146SAPE   C3216036   3.781   1.726  10.217  0.9549 -0.5220 -1.1159
  146SAPE   H2X16037   3.852   1.677  10.287 -0.2338  1.4384  1.6585
  146SAPE   H2Y16038   3.767   1.834  10.236  0.8010 -0.9978  2.1716
  146SAPE   C2316039   3.831   1.097  10.173  0.3492 -0.1738 -0.2171
  146SAPE   H3R16040   3.735   1.060  10.133 -0.0619 -0.1537  0.7112
  146SAPE   H3S16041   3.896   1.007  10.181 -0.7834 -0.8974  1.5473
  146SAPE   C2416042   3.902   1.178  10.062 -0.1455  0.2767  0.0921
  146SAPE   H4R16043   3.868   1.283  10.050 -1.4303 -0.1675 -0.3841
  146SAPE   H4S16044   3.885   1.126   9.965 -1.6889  2.2675 -0.7609
  146SAPE   C2516045   4.046   1.201  10.085  0.2074  0.9473 -0.8170
  146SAPE   H5R16046   4.073   1.255  10.178 -3.0275  0.7686  0.3552
  146SAPE   C2616047   4.143   1.157  10.003 -0.3909  0.0435 -0.1851
  146SAPE   H6R16048   4.245   1.173  10.039  0.1680 -1.3690 -1.0574
  146SAPE   C2716049   4.123   1.074   9.881 -0.4710 -0.3936 -0.1595
  146SAPE   H7R16050   4.029   1.014   9.874  0.6337 -2.0301 -2.1010
  146SAPE   H7S16051   4.208   1.003   9.878  0.2050  0.3869  0.0469
  146SAPE   C2816052   4.116   1.169   9.763 -0.1699  0.0937 -0.7164
  146SAPE   H8R16053   4.043   1.249   9.781 -1.0966 -0.6545 -1.0291
  146SAPE   C2916054   4.186   1.157   9.644  0.3765  0.2664  0.6024
  146SAPE   H9R16055   4.195   1.232   9.565  2.2980 -0.6813 -0.1142
  146SAPE  C21016056   4.284   1.051   9.615  0.2009  0.3720 -0.3104
  146SAPE  H10R16057   4.233   0.991   9.536  0.1239 -1.0626  0.7856
  146SAPE  H10S16058   4.307   0.986   9.702  1.3527 -0.4525 -1.1930
  146SAPE  C21116059   4.417   1.112   9.576  0.0106 -0.6851  0.7306
  146SAPE  H11R16060   4.462   1.190   9.640 -2.0485  1.0129  0.2394
  146SAPE  C21216061   4.474   1.088   9.462 -0.6692  0.1500  0.5970
  146SAPE  H12R16062   4.559   1.151   9.430 -0.8777 -0.2584 -0.8309
  146SAPE  C21316063   4.435   0.987   9.355  0.3968 -0.1933  0.5498
  146SAPE  H13R16064   4.389   0.895   9.396  0.0302 -1.7002 -2.8817
  146SAPE  H13S16065   4.518   0.954   9.289 -1.9522 -1.4442 -1.9759
  146SAPE  C21416066   4.344   1.054   9.260 -0.1994  0.1420  0.6972
  146SAPE  H14R16067   4.361   1.163   9.249 -1.2900  0.1916 -0.7634
  146SAPE  C21516068   4.245   0.992   9.195  0.1474 -0.6816 -0.9230
  146SAPE  H15R16069   4.205   1.061   9.120  0.6080  0.0493 -0.5089
  146SAPE  C21616070   4.191   0.852   9.194  0.0226  0.2608 -0.5916
  146SAPE  H16R16071   4.080   0.846   9.195 -0.0979  1.8813  0.9308
  146SAPE  H16S16072   4.229   0.807   9.288 -1.8090  2.5657  1.3707
  146SAPE  C21716073   4.260   0.747   9.099 -0.6546  0.3230  0.4661
  146SAPE  H17R16074   4.209   0.649   9.112  0.4503 -0.3040  0.1712
  146SAPE  H17S16075   4.366   0.734   9.129 -0.6255 -0.5787  0.0282
  146SAPE  C21816076   4.255   0.781   8.956  0.1888  0.2746  0.3442
  146SAPE  H18R16077   4.299   0.873   8.912  1.4809  0.0520  1.1329
  146SAPE  H18S16078   4.149   0.802   8.932  0.3761  1.7060  0.6393
  146SAPE  C21916079   4.295   0.651   8.873  0.5486  0.5069 -0.0317
  146SAPE  H19R16080   4.214   0.578   8.891  0.9674  0.2391  0.7882
  146SAPE  H19S16081   4.384   0.601   8.916 -0.3945 -1.8869 -0.6935
  146SAPE  C22016082   4.298   0.676   8.719  0.5610 -0.2771 -0.6845
  146SAPE  H20R16083   4.316   0.588   8.653 -0.0290 -1.6704  0.9570
  146SAPE  H20S16084   4.387   0.743   8.719  2.0085 -2.1080  0.1111
  146SAPE  H20T16085   4.212   0.733   8.678  0.4830  0.3855  0.3617
  146SAPE   C3316086   3.812   1.709  10.071  0.0009  0.3068 -0.6730
  146SAPE   H3X16087   3.906   1.764  10.048 -0.1045  0.6231 -0.3495
  146SAPE   H3Y16088   3.737   1.743   9.997 -0.1301  2.2157  0.2844
  146SAPE   C3416089   3.843   1.564  10.031  0.1611  0.2139  0.2769
  146SAPE   H4X16090   3.751   1.509  10.001  1.6312 -3.2031  1.4180
  146SAPE   H4Y16091   3.890   1.512  10.118  0.2376  0.8333  0.6129
  146SAPE   C3516092   3.951   1.561   9.913  0.9526  0.6513 -0.1512
  146SAPE   H5X16093   3.983   1.455   9.898  0.5257  0.3068  1.2084
  146SAPE   H5Y16094   4.031   1.629   9.947 -0.7550  0.8160  4.1796
  146SAPE   C3616095   3.893   1.603   9.777 -0.4656 -0.2238 -0.5802
  146SAPE   H6X16096   3.837   1.698   9.776  0.0864  0.1121 -1.5765
  146SAPE   H6Y16097   3.816   1.536   9.733  0.4063 -0.4363 -1.8650
  146SAPE   C3716098   4.019   1.609   9.687 -0.1972  0.9781 -0.1121
  146SAPE   H7X16099   4.061   1.507   9.688  2.9458  2.1636  1.9934
  146SAPE   H7Y16100   4.099   1.679   9.719 -0.0480 -0.4766  2.9744
  146SAPE   C3816101   3.972   1.645   9.545  0.6610  0.4835 -0.5602
  146SAPE   H8X16102   3.933   1.748   9.555  1.2460  0.9750 -2.8390
  146SAPE   H8Y16103   3.891   1.574   9.514  0.1126  0.5056  0.7532
  146SAPE   C3916104   4.081   1.621   9.443 -0.4857  0.0153  0.4462
  146SAPE   H9X16105   4.111   1.514   9.449  2.3185  0.6480 -0.4699
  146SAPE   H9Y16106   4.171   1.687   9.447 -1.0498  0.9219 -1.0781
  146SAPE  C31016107   4.032   1.637   9.298  0.1078 -0.0588  0.0322
  146SAPE  H10X16108   3.959   1.721   9.293  1.4165  1.1213 -0.1007
  146SAPE  H10Y16109   3.984   1.542   9.266  0.5900 -0.7650  1.3346
  146SAPE  C31116110   4.150   1.653   9.205  0.9665  0.6665  0.0665
  146SAPE  H11X16111   4.232   1.581   9.225 -1.2939 -2.6430 -1.5244
  146SAPE  H11Y16112   4.191   1.755   9.220 -1.6810  1.6995  0.9739
  146SAPE  C31216113   4.111   1.649   9.053 -0.6888 -0.2860  0.9379
  146SAPE  H12X16114   4.027   1.719   9.034 -0.3978 -0.6061 -1.9029
  146SAPE  H12Y16115   4.070   1.553   9.015  1.5950  0.1611 -3.3033
  146SAPE  C31316116   4.232   1.678   8.959  0.8815  0.0767 -0.5632
  146SAPE  H13X16117   4.313   1.605   8.981  0.1574 -1.0058 -1.3784
  146SAPE  H13Y16118   4.278   1.778   8.973  1.5050 -0.3529  0.6187
  146SAPE  C31416119   4.190   1.657   8.811 -0.4123  0.0819 -0.1623
  146SAPE  H14X16120   4.141   1.558   8.803 -0.2168 -0.0412  0.1378
  146SAPE  H14Y16121   4.282   1.654   8.749  0.0133  0.9403  0.4004
  146SAPE  C31516122   4.092   1.763   8.756 -0.2407  0.1728 -0.1174
  146SAPE  H15X16123   4.117   1.859   8.807 -0.3702 -1.0664  2.4024
  146SAPE  H15Y16124   3.986   1.738   8.774  0.1548  0.1709  2.5998
  146SAPE  C31616125   4.112   1.807   8.616 -0.0566 -0.6870  0.0109
  146SAPE  H16X16126   4.216   1.823   8.582 -0.7435 -1.0588 -2.4234
  146SAPE  H16Y16127   4.078   1.913   8.616 -1.4986 -1.1193 -1.0077
  146SAPE  C31716128   4.032   1.738   8.501  0.3237 -0.9738  0.6684
  146SAPE  H17X16129   4.034   1.808   8.415 -0.7894 -1.0689  0.5472
  146SAPE  H17Y16130   3.925   1.715   8.523  0.6996 -1.9547  1.5646
  146SAPE  C31816131   4.096   1.618   8.461 -0.5390  0.1748  0.5447
  146SAPE  H18X16132   4.088   1.542   8.542  1.2723 -1.6344 -0.8497
  146SAPE  H18Y16133   4.205   1.635   8.442 -0.1984 -0.1486  2.0893
  146SAPE  H18Z16134   4.056   1.570   8.369  1.0560 -3.6721  1.6397
  147SAPE     N16135   1.495   4.338   6.184 -0.4671  0.1632 -0.1221
  147SAPE   HN116136   1.468   4.249   6.231  0.3708 -0.9657 -1.6942
  147SAPE   HN216137   1.451   4.326   6.091  0.4083 -1.9586 -0.3241
  147SAPE   HN316138   1.599   4.337   6.183 -0.4071  1.0366  1.4203
  147SAPE   C1216139   1.434   4.457   6.261  0.5555  1.0866  0.2749
  147SAPE  H12A16140   1.503   4.544   6.255  0.1221  1.4192  0.0384
  147SAPE  H12B16141   1.437   4.422   6.366 -1.0763  2.0443  0.6922
  147SAPE   C1116142   1.285   4.483   6.252  0.7041  0.1381  0.1372
  147SAPE  H11A16143   1.263   4.511   6.147  2.3148  0.5665 -0.1119
  147SAPE  H11B16144   1.264   4.567   6.322 -0.3572 -0.1504  0.1866
  147SAPE     P16145   1.052   4.390   6.313 -0.1011  0.2482  0.2763
  147SAPE   O1316146   0.995   4.469   6.196 -0.6221  0.5775  0.6006
  147SAPE   O1416147   0.979   4.265   6.347  0.1489 -0.2461  0.5437
  147SAPE   O1216148   1.205   4.365   6.294 -0.6820 -0.2011  0.6050
  147SAPE   O1116149   1.038   4.480   6.436 -0.4325 -0.9046  0.6879
  147SAPE    C116150   1.110   4.471   6.564 -0.0274 -0.3492 -0.5037
  147SAPE    HA16151   1.142   4.370   6.598  1.9094  0.9064  1.6883
  147SAPE    HB16152   1.209   4.522   6.560  0.0026 -0.3805 -0.1506
  147SAPE    C216153   1.052   4.542   6.687 -0.1772  0.1531 -0.1148
  147SAPE    HS16154   1.129   4.596   6.746 -1.3595  1.7927 -0.0059
  147SAPE   O2116155   0.969   4.445   6.760  0.0684 -0.2189  0.6829
  147SAPE   C2116156   1.039   4.363   6.829 -0.1671  0.4492 -0.5548
  147SAPE   O2216157   1.158   4.364   6.841  0.1615 -0.0390 -0.3591
  147SAPE   C2216158   0.951   4.242   6.869 -0.5482  0.0377  0.4437
  147SAPE   H2R16159   0.852   4.281   6.899 -1.1735 -1.5308  0.5006
  147SAPE   H2S16160   0.932   4.180   6.779  0.3661 -1.7302  1.4094
  147SAPE    C316161   0.962   4.663   6.642  0.9859  0.8057 -0.6162
  147SAPE    HX16162   0.866   4.615   6.613  1.8051 -1.1205 -0.2984
  147SAPE    HY16163   1.010   4.721   6.560  0.1604  0.8610 -1.0686
  147SAPE   O3116164   0.947   4.747   6.758 -0.2300  0.3478  0.1990
  147SAPE   C3116165   0.874   4.854   6.733  0.0236  0.0860 -0.4373
  147SAPE   O3216166   0.829   4.886   6.623  0.2409  0.2361 -0.1333
  147SAPE   C3216167   0.864   4.927   6.862  0.5131 -0.2057  0.1447
  147SAPE   H2X16168   0.869   4.856   6.947  0.4978 -2.6403 -1.7682
  147SAPE   H2Y16169   0.765   4.977   6.871  0.8500  0.4287  0.4159
  147SAPE   C2316170   1.013   4.156   6.981  0.3947 -0.2180  0.3461
  147SAPE   H3R16171   1.120   4.137   6.959 -0.0676 -2.9442  0.0604
  147SAPE   H3S16172   0.959   4.060   6.964 -0.1856 -0.2483  2.1482
  147SAPE   C2416173   0.980   4.207   7.120  0.6403  0.3648  0.7728
  147SAPE   H4R16174   1.010   4.120   7.182 -0.8913 -1.5391 -1.0409
  147SAPE   H4S16175   0.873   4.222   7.148  0.0102 -1.6140 -0.4370
  147SAPE   C2516176   1.058   4.330   7.146 -0.6288  0.1393 -0.3178
  147SAPE   H5R16177   1.049   4.412   7.074  1.7748 -1.7559 -3.0414
  147SAPE   C2616178   1.134   4.357   7.255  0.2793 -0.1066  0.3962
  147SAPE   H6R16179   1.195   4.448   7.256  0.2151 -0.0417  2.4354
  147SAPE   C2716180   1.147   4.275   7.375 -0.2356 -0.4725 -0.6048
  147SAPE   H7R16181   1.245   4.223   7.384 -0.7747 -1.6195 -1.1571
  147SAPE   H7S16182   1.079   4.187   7.368  0.8993 -1.2379 -2.7713
  147SAPE   C2816183   1.126   4.357   7.497 -0.7657  0.2945 -0.7420
  147SAPE   H8R16184   1.054   4.439   7.485 -1.5127 -0.4331 -1.4059
  147SAPE   C2916185   1.165   4.330   7.624  0.0700  0.1189  0.2666
  147SAPE   H9R16186   1.147   4.408   7.701  0.7164 -1.0910  1.7031
  147SAPE  C21016187   1.243   4.219   7.685  0.2456 -0.5392 -0.1549
  147SAPE  H10R16188   1.327   4.187   7.620  2.9294  1.3457  2.1149
  147SAPE  H10S16189   1.177   4.131   7.700 -1.2025  0.3429 -1.1155
  147SAPE  C21116190   1.311   4.259   7.811 -0.6294 -0.4487 -0.0098
  147SAPE  H11R16191   1.417   4.289   7.810 -0.6757  0.0458  2.3684
  147SAPE  C21216192   1.268   4.259   7.938  0.8863 -0.7171 -0.0787
  147SAPE  H12R16193   1.340   4.290   8.015  0.3414 -0.4484  0.3272
  147SAPE  C21316194   1.131   4.222   7.985 -0.7664 -0.1329 -0.4418
  147SAPE  H13R16195   1.067   4.202   7.896 -0.5487 -0.5156 -0.5140
  147SAPE  H13S16196   1.083   4.310   8.033 -0.1673  0.3153 -0.6523
  147SAPE  C21416197   1.122   4.097   8.064 -0.1874 -0.2850  0.1166
  147SAPE  H14R16198   1.056   4.021   8.020 -0.9832  1.4801 -1.9446
  147SAPE  C21516199   1.163   4.079   8.190  0.3743  0.4073  0.7992
  147SAPE  H15R16200   1.166   3.975   8.226 -3.8025 -0.0508  0.2232
  147SAPE  C21616201   1.242   4.174   8.275  0.3012  0.3465  0.2554
  147SAPE  H16R16202   1.263   4.276   8.238  6.1976  0.2180  2.2180
  147SAPE  H16S16203   1.350   4.150   8.279  0.1682 -0.2516  0.5421
  147SAPE  C21716204   1.183   4.161   8.415  0.0574 -0.0488  0.4167
  147SAPE  H17R16205   1.180   4.051   8.433  0.3775  0.0967  1.4291
  147SAPE  H17S16206   1.078   4.197   8.415  0.4392  1.1065  0.1153
  147SAPE  C21816207   1.245   4.239   8.537  0.8800  0.7793  0.0787
  147SAPE  H18R16208   1.230   4.344   8.503  0.1249  0.3369 -1.0128
  147SAPE  H18S16209   1.351   4.219   8.564  0.0958  0.0735  3.0540
  147SAPE  C21916210   1.170   4.233   8.670 -0.5944 -0.1153 -0.7513
  147SAPE  H19R16211   1.067   4.262   8.642 -0.5066  0.2734 -0.6692
  147SAPE  H19S16212   1.215   4.313   8.731 -1.3539 -0.8537  0.8289
  147SAPE  C22016213   1.185   4.095   8.737 -0.3926  0.2603  0.4812
  147SAPE  H20R16214   1.289   4.084   8.775  0.2804  1.6416 -0.8312
  147SAPE  H20S16215   1.174   4.009   8.668 -1.0956  1.3268 -0.7909
  147SAPE  H20T16216   1.114   4.083   8.821 -1.0495 -0.1061 -0.1188
  147SAPE   C3316217   0.973   5.039   6.859 -0.2962  0.3356 -0.5948
  147SAPE   H3X16218   0.959   5.101   6.768 -0.4942  0.6349 -0.3668
  147SAPE   H3Y16219   1.073   4.993   6.841 -0.1190  0.9118 -1.1249
  147SAPE   C3416220   0.981   5.130   6.982  0.0982  0.0057  0.0998
  147SAPE   H4X16221   1.061   5.203   6.958 -0.5200  0.2953 -1.1931
  147SAPE   H4Y16222   1.020   5.073   7.068 -0.4811 -0.3174  0.1511
  147SAPE   C3516223   0.844   5.197   7.018 -0.3598  0.1276  0.6657
  147SAPE   H5X16224   0.776   5.111   7.037  0.1228 -0.6625 -0.9706
  147SAPE   H5Y16225   0.811   5.249   6.925 -0.7879 -0.3295  0.5603
  147SAPE   C3616226   0.859   5.297   7.137  1.3820  0.8983  0.8400
  147SAPE   H6X16227   0.769   5.361   7.150  0.4907 -0.0179 -0.6145
  147SAPE   H6Y16228   0.941   5.368   7.110  0.8034  0.4225 -2.5901
  147SAPE   C3716229   0.899   5.244   7.278 -0.4331 -0.3212 -0.4654
  147SAPE   H7X16230   1.001   5.200   7.268  1.3719  2.7648  2.4615
  147SAPE   H7Y16231   0.834   5.168   7.327  1.8640 -2.9550 -1.1771
  147SAPE   C3816232   0.910   5.359   7.385  0.7612 -0.1855 -0.0922
  147SAPE   H8X16233   0.827   5.432   7.371  1.8293  0.9808 -0.5173
  147SAPE   H8Y16234   1.010   5.406   7.373  0.9795 -1.1723 -2.9432
  147SAPE   C3916235   0.899   5.306   7.535 -0.1405  0.7601 -0.4205
  147SAPE   H9X16236   0.985   5.243   7.566 -0.0829  0.7422 -0.6141
  147SAPE   H9Y16237   0.812   5.239   7.553 -0.3319  1.3954  1.2128
  147SAPE  C31016238   0.882   5.420   7.637 -0.5268  0.2128  0.0635
  147SAPE  H10X16239   0.790   5.480   7.620 -0.7106  0.2914  1.2385
  147SAPE  H10Y16240   0.961   5.499   7.631 -1.4792  1.1992  0.1409
  147SAPE  C31116241   0.868   5.356   7.779 -0.5247 -0.1885  0.5367
  147SAPE  H11X16242   0.972   5.333   7.811 -0.0227 -1.4003 -1.7814
  147SAPE  H11Y16243   0.827   5.254   7.768 -0.5731 -0.0410 -0.8049
  147SAPE  C31216244   0.790   5.433   7.883  0.2466 -0.5210 -0.9182
  147SAPE  H12X16245   0.740   5.362   7.951 -0.2030  1.5517  1.0427
  147SAPE  H12Y16246   0.714   5.503   7.842  0.2425  0.9245  1.3433
  147SAPE  C31316247   0.876   5.495   7.989  0.2151 -0.2416 -0.1575
  147SAPE  H13X16248   0.945   5.427   8.043 -0.2760 -1.3967 -0.9339
  147SAPE  H13Y16249   0.802   5.533   8.063  0.2446  0.9058 -0.6967
  147SAPE  C31416250   0.945   5.622   7.948  0.3439  0.4538  0.0556
  147SAPE  H14X16251   0.876   5.686   7.888  0.4541  0.2323 -0.3144
  147SAPE  H14Y16252   1.028   5.595   7.880 -1.5626 -0.9840 -1.8562
  147SAPE  C31516253   1.007   5.711   8.054  0.1886  0.0769 -0.2837
  147SAPE  H15X16254   1.072   5.665   8.132  2.4256  3.5544  0.1341
  147SAPE  H15Y16255   0.928   5.758   8.116 -0.7837 -0.8946 -0.7632
  147SAPE  C31616256   1.087   5.826   7.989  0.5685  0.6658 -0.5514
  147SAPE  H16X16257   1.019   5.889   7.928  0.0979 -0.5504 -1.3344
  147SAPE  H16Y16258   1.153   5.776   7.915  1.5596  2.1969 -0.7377
  147SAPE  C31716259   1.176   5.902   8.096 -0.0991 -0.5169  0.3523
  147SAPE  H17X16260   1.240   5.975   8.042  0.2788  0.4259  2.0050
  147SAPE  H17Y16261   1.240   5.832   8.154 -0.3391 -1.3460 -0.3680
  147SAPE  C31816262   1.093   5.992   8.193  0.5825 -0.0568  0.3546
  147SAPE  H18X16263   1.012   5.939   8.247 -1.7217  1.7548 -1.1585
  147SAPE  H18Y16264   1.042   6.066   8.128  0.5449 -1.2769 -1.0318
  147SAPE  H18Z16265   1.160   6.044   8.266  2.0464  0.7652 -1.4795
  148SAPE     N16266   2.264   4.396   6.283 -0.3699  0.2444 -0.3815
  148SAPE   HN116267   2.270   4.409   6.180 -0.2655  1.5801 -0.2216
  148SAPE   HN216268   2.301   4.302   6.308  1.5308  0.7791 -1.0785
  148SAPE   HN316269   2.164   4.394   6.312 -0.6873 -1.3198 -1.4369
  148SAPE   C1216270   2.333   4.497   6.368  0.1522  0.4046 -0.5405
  148SAPE  H12A16271   2.281   4.591   6.338 -2.1339 -2.0643 -5.3558
  148SAPE  H12B16272   2.438   4.499   6.330  0.0455 -1.3393 -0.9829
  148SAPE   C1116273   2.326   4.466   6.521 -0.8993 -0.0966  0.0888
  148SAPE  H11A16274   2.221   4.457   6.555 -1.5057  2.3367 -0.9311
  148SAPE  H11B16275   2.379   4.548   6.574 -0.6025 -0.6475  0.6542
  148SAPE     P16276   2.339   4.209   6.576  0.4315 -0.2080  0.1912
  148SAPE   O1316277   2.252   4.167   6.461 -0.1249 -0.4709 -0.2416
  148SAPE   O1416278   2.451   4.112   6.607 -0.4601 -0.3977  0.5851
  148SAPE   O1216279   2.401   4.352   6.540 -0.0568 -0.1578  0.3311
  148SAPE   O1116280   2.261   4.252   6.710 -0.1205  0.0122 -0.0837
  148SAPE    C116281   2.328   4.284   6.832  0.1678  0.1367  0.1095
  148SAPE    HA16282   2.376   4.194   6.875 -0.5097 -0.2245  0.1127
  148SAPE    HB16283   2.410   4.357   6.812  0.7527 -0.9206 -1.6594
  148SAPE    C216284   2.231   4.342   6.932  0.0426 -0.0538 -0.9359
  148SAPE    HS16285   2.265   4.443   6.964  0.7152 -1.2833  2.7934
  148SAPE   O2116286   2.230   4.251   7.047  0.0949  0.1678  0.4822
  148SAPE   C2116287   2.195   4.307   7.164 -0.0951 -0.0214  0.3818
  148SAPE   O2216288   2.168   4.421   7.184 -0.1032  0.2005 -0.0151
  148SAPE   C2216289   2.182   4.190   7.264 -0.0872 -0.8903  0.3236
  148SAPE   H2R16290   2.087   4.210   7.317 -2.5252 -0.7908 -3.6914
  148SAPE   H2S16291   2.166   4.090   7.217 -1.5645  0.2872 -1.8717
  148SAPE    C316292   2.091   4.364   6.875 -0.7954 -0.0671 -0.2202
  148SAPE    HX16293   2.054   4.264   6.843  1.1320 -0.2882 -1.9783
  148SAPE    HY16294   2.102   4.425   6.784  0.5985 -0.1329 -0.1116
  148SAPE   O3116295   1.996   4.432   6.968 -0.2365  0.7576 -0.2783
  148SAPE   C3116296   1.991   4.561   6.952 -0.1251 -0.6361  0.4484
  148SAPE   O3216297   2.044   4.628   6.861  0.3662  0.4782  0.4116
  148SAPE   C3216298   1.898   4.618   7.060  0.2105 -0.1534 -0.6926
  148SAPE   H2X16299   1.951   4.622   7.158  0.3939  0.0349 -0.7988
  148SAPE   H2Y16300   1.817   4.544   7.078  0.4402 -0.4704 -0.9505
  148SAPE   C2316301   2.309   4.190   7.360 -0.3158  0.4499  0.2411
  148SAPE   H3R16302   2.319   4.296   7.393 -1.4727  0.1494  1.6419
  148SAPE   H3S16303   2.400   4.151   7.310  0.3484  1.7201  0.3972
  148SAPE   C2416304   2.278   4.102   7.477  0.3839 -0.1334  0.6786
  148SAPE   H4R16305   2.255   4.000   7.441 -0.7047 -0.1249  1.3106
  148SAPE   H4S16306   2.192   4.151   7.528  1.4632  1.5127  0.9754
  148SAPE   C2516307   2.390   4.090   7.580  0.1902 -0.3197  0.1806
  148SAPE   H5R16308   2.478   4.044   7.534 -1.0343 -1.2383 -1.3108
  148SAPE   C2616309   2.381   4.121   7.713  0.1909  0.4645  0.3367
  148SAPE   H6R16310   2.473   4.101   7.770  0.1632 -0.3840  0.0874
  148SAPE   C2716311   2.262   4.174   7.791  0.4963 -0.8080 -0.5537
  148SAPE   H7R16312   2.199   4.101   7.847 -1.9560  1.5298 -0.0760
  148SAPE   H7S16313   2.183   4.216   7.725 -0.7717 -1.5101  0.4632
  148SAPE   C2816314   2.300   4.291   7.874 -0.0127  0.0434 -0.0258
  148SAPE   H8R16315   2.296   4.394   7.834  1.9370 -0.1709 -0.9167
  148SAPE   C2916316   2.356   4.283   7.992  0.4439  0.0381 -0.4657
  148SAPE   H9R16317   2.389   4.378   8.037  3.2506 -0.2234 -1.7769
  148SAPE  C21016318   2.370   4.172   8.093 -0.1986  0.0760  0.2341
  148SAPE  H10R16319   2.331   4.078   8.047 -0.9936 -0.1884  1.4122
  148SAPE  H10S16320   2.296   4.189   8.174  0.8027 -0.3650  1.2732
  148SAPE  C21116321   2.514   4.150   8.145  0.0945  0.2183  0.2809
  148SAPE  H11R16322   2.568   4.066   8.099  1.1711  0.9389  0.2025
  148SAPE  C21216323   2.580   4.212   8.244 -0.7013 -0.9858 -0.4871
  148SAPE  H12R16324   2.684   4.186   8.269 -0.5718 -0.0991 -0.0823
  148SAPE  C21316325   2.509   4.321   8.329 -0.4586  0.1017 -0.1834
  148SAPE  H13R16326   2.465   4.401   8.266 -1.4490  0.8371  1.3969
  148SAPE  H13S16327   2.590   4.373   8.384  3.1029 -2.2617 -2.7591
  148SAPE  C21416328   2.392   4.263   8.416  0.9200 -0.4630 -0.0612
  148SAPE  H14R16329   2.367   4.159   8.390  1.8810 -0.7790  0.2326
  148SAPE  C21516330   2.345   4.302   8.536 -0.0188 -0.3664 -0.7306
  148SAPE  H15R16331   2.256   4.251   8.576 -0.0677 -0.0405 -0.4194
  148SAPE  C21616332   2.400   4.413   8.625 -0.4167 -0.9290  0.3632
  148SAPE  H16R16333   2.341   4.505   8.608  0.7754 -0.6541 -3.2415
  148SAPE  H16S16334   2.507   4.433   8.604 -1.0214 -0.9041 -3.4249
  148SAPE  C21716335   2.387   4.365   8.766  0.3673 -0.5163 -0.5687
  148SAPE  H17R16336   2.455   4.281   8.792 -0.7461 -1.8211 -1.7174
  148SAPE  H17S16337   2.283   4.327   8.781 -0.3756  2.2465  2.4782
  148SAPE  C21816338   2.417   4.476   8.871 -0.0859 -0.1810 -0.4609
  148SAPE  H18R16339   2.366   4.570   8.843 -0.7094  0.1290  1.5334
  148SAPE  H18S16340   2.523   4.509   8.864  0.1355 -0.8080 -0.2249
  148SAPE  C21916341   2.369   4.450   9.018  0.6866 -0.3830 -0.0324
  148SAPE  H19R16342   2.258   4.450   9.006  0.7828  2.7760 -2.0268
  148SAPE  H19S16343   2.398   4.535   9.082 -3.2861  2.4721 -1.6253
  148SAPE  C22016344   2.412   4.316   9.079  0.1094  0.2104  0.7502
  148SAPE  H20R16345   2.523   4.317   9.083  0.1015  0.5130  0.9585
  148SAPE  H20S16346   2.382   4.226   9.022 -1.3468 -0.3971  2.3722
  148SAPE  H20T16347   2.378   4.298   9.183 -0.3645  0.6760  0.6785
  148SAPE   C3316348   1.841   4.754   7.008 -0.1692 -0.1812  0.3882
  148SAPE   H3X16349   1.796   4.742   6.906  0.1097 -0.6153  0.3168
  148SAPE   H3Y16350   1.929   4.821   6.996 -0.0657 -0.3648  0.1110
  148SAPE   C3416351   1.727   4.809   7.101  0.2957 -0.3362  0.6984
  148SAPE   H4X16352   1.636   4.747   7.107 -0.9590  1.5005  1.8734
  148SAPE   H4Y16353   1.705   4.900   7.041  2.9250 -0.6904 -0.9728
  148SAPE   C3516354   1.786   4.840   7.239  0.5521  0.0711 -0.4507
  148SAPE   H5X16355   1.877   4.903   7.224  0.6850 -0.3634 -1.6102
  148SAPE   H5Y16356   1.824   4.749   7.289 -1.3674 -1.9135 -2.3663
  148SAPE   C3616357   1.682   4.916   7.318 -0.9612  0.2008 -0.3655
  148SAPE   H6X16358   1.620   4.993   7.267 -2.2542  0.5834  1.6609
  148SAPE   H6Y16359   1.723   4.956   7.413 -0.6599 -0.7436 -0.0887
  148SAPE   C3716360   1.575   4.830   7.381  0.1839  0.6980  0.2026
  148SAPE   H7X16361   1.526   4.778   7.296 -0.8052 -0.5953  1.5105
  148SAPE   H7Y16362   1.505   4.899   7.432  0.7101  0.8668  0.7014
  148SAPE   C3816363   1.627   4.723   7.479 -0.4442 -0.7209  0.9752
  148SAPE   H8X16364   1.699   4.771   7.549 -0.2460 -0.3230  0.5066
  148SAPE   H8Y16365   1.702   4.664   7.422  0.3425 -0.3487  1.5997
  148SAPE   C3916366   1.517   4.636   7.548  0.7776 -0.0467 -0.1714
  148SAPE   H9X16367   1.563   4.538   7.570 -1.7607 -1.5514 -1.0900
  148SAPE   H9Y16368   1.432   4.614   7.479  0.0914 -0.2217  0.7050
  148SAPE  C31016369   1.449   4.698   7.672 -0.3050 -0.9074  0.2049
  148SAPE  H10X16370   1.397   4.795   7.652 -0.5643 -1.0767  0.0489
  148SAPE  H10Y16371   1.540   4.716   7.733 -0.2226 -2.6813  0.6432
  148SAPE  C31116372   1.354   4.614   7.749  0.2365  0.3702 -0.4619
  148SAPE  H11X16373   1.394   4.516   7.783 -0.5314 -0.0539 -0.7589
  148SAPE  H11Y16374   1.261   4.595   7.692  1.6232 -0.5450 -2.5280
  148SAPE  C31216375   1.299   4.691   7.881 -0.2955 -0.3508 -0.2640
  148SAPE  H12X16376   1.230   4.763   7.832  1.9183  0.5837 -2.2052
  148SAPE  H12Y16377   1.379   4.749   7.932 -2.5018 -0.2627  3.4450
  148SAPE  C31316378   1.238   4.602   7.988  0.6333 -0.0515  0.1979
  148SAPE  H13X16379   1.311   4.546   8.051 -1.9919 -2.6846  1.1579
  148SAPE  H13Y16380   1.192   4.516   7.935 -2.7042  0.9627  1.2479
  148SAPE  C31416381   1.138   4.671   8.080 -0.4141  0.0073  0.8380
  148SAPE  H14X16382   1.067   4.729   8.016  0.5956 -1.3384 -1.6392
  148SAPE  H14Y16383   1.194   4.740   8.146  0.9137  1.6679 -1.8494
  148SAPE  C31516384   1.055   4.582   8.170 -0.0063 -0.9368 -0.1348
  148SAPE  H15X16385   1.125   4.503   8.205  1.2811 -1.0307 -2.7069
  148SAPE  H15Y16386   0.981   4.518   8.117 -0.8786 -0.2712  0.2598
  148SAPE  C31616387   1.000   4.660   8.288 -0.6305  0.5096  0.6611
  148SAPE  H16X16388   0.927   4.736   8.252 -0.9488  1.0897  2.4655
  148SAPE  H16Y16389   1.084   4.712   8.339  0.2186  1.2480 -1.3819
  148SAPE  C31716390   0.945   4.565   8.395 -0.7883 -0.7380 -0.2369
  148SAPE  H17X16391   1.017   4.480   8.397  1.8106  1.3573  1.0250
  148SAPE  H17Y16392   0.855   4.513   8.356 -1.3506  0.2043 -0.2235
  148SAPE  C31816393   0.936   4.608   8.538 -0.2031  0.0848  0.4458
  148SAPE  H18X16394   0.834   4.608   8.581  0.2430  1.4318  1.5618
  148SAPE  H18Y16395   0.980   4.708   8.556 -1.3871  1.5100 -3.4464
  148SAPE  H18Z16396   0.979   4.527   8.601 -2.3691 -1.4471  0.0668
  149SAPE     N16397   0.415   3.011   6.467 -0.3864  1.0239  0.2881
  149SAPE   HN116398   0.314   2.992   6.481 -0.7833  2.1425 -0.8303
  149SAPE   HN216399   0.452   2.926   6.419  1.6307 -0.7151  4.4178
  149SAPE   HN316400   0.463   3.012   6.559  0.4682 -2.3627 -0.0196
  149SAPE   C1216401   0.434   3.142   6.386 -0.1504 -0.1675  0.5945
  149SAPE  H12A16402   0.504   3.119   6.303 -0.7443  1.2716 -0.3521
  149SAPE  H12B16403   0.471   3.217   6.458  0.9961  0.4133 -0.5723
  149SAPE   C1116404   0.292   3.194   6.327 -0.8587 -0.1475 -0.1672
  149SAPE  H11A16405   0.253   3.109   6.267 -1.7409  1.1248 -1.4513
  149SAPE  H11B16406   0.319   3.274   6.254 -1.6943  0.2985  0.0059
  149SAPE     P16407   0.209   3.373   6.505  0.2777 -0.1970 -0.1963
  149SAPE   O1316408   0.288   3.457   6.418 -0.3634 -0.7779  0.9571
  149SAPE   O1416409   0.074   3.424   6.555  0.5922 -0.4724 -0.1183
  149SAPE   O1216410   0.186   3.237   6.417 -0.2929  0.1013 -0.0121
  149SAPE   O1116411   0.306   3.321   6.622 -0.2605  0.2625 -0.4761
  149SAPE    C116412   0.275   3.219   6.711  0.1363 -0.5155  0.0995
  149SAPE    HA16413   0.230   3.131   6.661  1.8989  0.4643 -3.5412
  149SAPE    HB16414   0.370   3.185   6.758  1.1082  2.3032  0.3780
  149SAPE    C216415   0.188   3.272   6.826  0.4530  0.3754 -0.2826
  149SAPE    HS16416   0.093   3.303   6.775  0.2023 -0.2611 -0.2029
  149SAPE   O2116417   0.256   3.389   6.884  0.5553  0.0667  0.5937
  149SAPE   C2116418   0.175   3.466   6.956  1.0512  0.1768  0.0722
  149SAPE   O2216419   0.052   3.448   6.967 -0.6950 -0.2078 -0.1974
  149SAPE   C2216420   0.257   3.579   7.024 -1.0365  0.1226 -0.0183
  149SAPE   H2R16421   0.339   3.526   7.078 -0.7082 -1.0989 -1.6426
  149SAPE   H2S16422   0.295   3.636   6.937 -1.6393 -2.5524 -2.1604
  149SAPE    C316423   0.152   3.162   6.928  0.2861 -0.2189  0.2534
  149SAPE    HX16424   0.127   3.079   6.859 -2.6373  1.1438 -0.4678
  149SAPE    HY16425   0.063   3.203   6.981 -0.5212 -1.3384 -0.1923
  149SAPE   O3116426   0.255   3.141   7.021 -0.2094 -0.1946 -0.0533
  149SAPE   C3116427   0.324   3.030   7.011 -0.0592 -0.4252 -0.0260
  149SAPE   O3216428   0.294   2.936   6.939  0.8287  0.5278  0.0861
  149SAPE   C3216429   0.450   3.039   7.089 -0.4217 -0.4217  0.0148
  149SAPE   H2X16430   0.433   3.092   7.186 -1.1470 -5.2359  2.8215
  149SAPE   H2Y16431   0.520   3.108   7.036 -0.1456 -0.9254 -0.2812
  149SAPE   C2316432   0.171   3.665   7.114  0.3845  0.1846 -0.0997
  149SAPE   H3R16433   0.075   3.689   7.064 -0.0988  1.2344  1.2735
  149SAPE   H3S16434   0.221   3.763   7.129 -0.8474  1.0212 -1.2524
  149SAPE   C2416435   0.151   3.595   7.246  0.7763  0.4406  0.0937
  149SAPE   H4R16436   0.123   3.492   7.216 -0.2943  0.9655 -0.7806
  149SAPE   H4S16437   0.065   3.643   7.296  0.3640 -0.2299  0.0398
  149SAPE   C2516438   0.273   3.599   7.342  0.6343  0.3461  0.0327
  149SAPE   H5R16439   0.361   3.563   7.287 -1.0118  0.8315 -3.1616
  149SAPE   C2616440   0.285   3.636   7.472 -0.4723  0.2219  1.4567
  149SAPE   H6R16441   0.383   3.636   7.522  0.1083  0.9616  0.3640
  149SAPE   C2716442   0.160   3.677   7.547  0.1640 -0.6927 -0.0478
  149SAPE   H7R16443   0.078   3.713   7.481  2.6045  0.0056 -2.9845
  149SAPE   H7S16444   0.179   3.775   7.596  1.1191  0.4066 -2.4076
  149SAPE   C2816445   0.120   3.575   7.653  0.6779  0.7518  0.5696
  149SAPE   H8R16446   0.047   3.503   7.614  0.3755  0.4129  1.7316
  149SAPE   C2916447   0.175   3.546   7.776  0.1491 -0.2078 -0.1811
  149SAPE   H9R16448   0.139   3.458   7.832 -0.9588  1.2248  1.4614
  149SAPE  C21016449   0.293   3.631   7.833  0.1438  0.0366  0.3884
  149SAPE  H10R16450   0.360   3.659   7.749  0.5527  0.0552  0.7186
  149SAPE  H10S16451   0.355   3.566   7.898 -0.8528 -2.4908 -1.0422
  149SAPE  C21116452   0.252   3.764   7.905 -0.4691  0.8323 -0.4209
  149SAPE  H11R16453   0.213   3.849   7.847  2.0804  1.8687 -0.7769
  149SAPE  C21216454   0.255   3.772   8.044  0.0387  0.4120 -0.2556
  149SAPE  H12R16455   0.222   3.865   8.092  3.2023  2.0493 -0.9844
  149SAPE  C21316456   0.299   3.664   8.141  0.3929  0.4212 -0.7464
  149SAPE  H13R16457   0.409   3.648   8.146  0.3926  0.3967 -0.8276
  149SAPE  H13S16458   0.254   3.565   8.122 -1.2050  0.3948  2.4516
  149SAPE  C21416459   0.251   3.696   8.280  0.8180 -0.6916  0.0862
  149SAPE  H14R16460   0.320   3.758   8.340  0.6203  0.7075 -1.0761
  149SAPE  C21516461   0.133   3.650   8.334 -0.0783 -0.4379  0.3228
  149SAPE  H15R16462   0.120   3.680   8.439  0.9102  0.3966  0.2283
  149SAPE  C21616463   0.021   3.579   8.264  0.9812  0.4018  0.2782
  149SAPE  H16R16464  -0.039   3.518   8.335  0.4272 -0.5243 -0.9650
  149SAPE  H16S16465   0.073   3.508   8.197  4.7046  2.9015  0.1509
  149SAPE  C21716466  -0.057   3.679   8.179  0.2765 -0.2254  0.7387
  149SAPE  H17R16467  -0.138   3.620   8.130  1.7109 -1.0281 -0.7604
  149SAPE  H17S16468   0.005   3.717   8.095 -1.5897  0.5690 -0.3311
  149SAPE  C21816469  -0.116   3.787   8.269  0.4000 -0.2160 -0.0475
  149SAPE  H18R16470  -0.043   3.870   8.287 -0.4204  0.5604 -0.2260
  149SAPE  H18S16471  -0.165   3.765   8.366 -3.3226  1.5368 -1.3582
  149SAPE  C21916472  -0.226   3.859   8.189  0.0157 -0.1473 -0.4360
  149SAPE  H19R16473  -0.277   3.927   8.261 -2.1811 -1.8621 -0.2585
  149SAPE  H19S16474  -0.297   3.780   8.156 -0.2568  0.1387 -0.5486
  149SAPE  C22016475  -0.189   3.934   8.065 -0.1893  0.7241 -0.0473
  149SAPE  H20R16476  -0.277   3.982   8.019 -1.1536  0.6774  1.6547
  149SAPE  H20S16477  -0.140   3.867   7.991 -0.8974  0.2829 -0.1267
  149SAPE  H20T16478  -0.117   4.012   8.096  0.3587 -0.6734  2.5901
  149SAPE   C3316479   0.511   2.900   7.097  0.6170  0.2706  0.0097
  149SAPE   H3X16480   0.523   2.856   6.996 -0.4804  0.4135 -0.1959
  149SAPE   H3Y16481   0.450   2.831   7.160  0.8121  2.7775  3.2176
  149SAPE   C3416482   0.650   2.900   7.172  0.4559  0.6551 -0.1944
  149SAPE   H4X16483   0.709   2.973   7.113 -0.8123 -0.1726 -2.6588
  149SAPE   H4Y16484   0.693   2.798   7.159  1.5577  1.1920 -0.9126
  149SAPE   C3516485   0.667   2.936   7.316  0.1056 -0.3320 -0.3889
  149SAPE   H5X16486   0.595   2.878   7.378  2.3091 -2.6080  0.1662
  149SAPE   H5Y16487   0.651   3.044   7.338 -0.5221 -0.2055 -1.4345
  149SAPE   C3616488   0.802   2.893   7.378  0.0196  0.1020 -0.5377
  149SAPE   H6X16489   0.883   2.940   7.318  1.4188 -0.3482  0.9309
  149SAPE   H6Y16490   0.813   2.784   7.362  0.0664  0.0756 -0.3306
  149SAPE   C3716491   0.816   2.927   7.528 -0.1915 -0.7481  0.4409
  149SAPE   H7X16492   0.735   2.881   7.589 -0.0244 -1.5390  0.0793
  149SAPE   H7Y16493   0.813   3.038   7.533  1.1196 -0.3919 -3.4381
  149SAPE   C3816494   0.949   2.887   7.596 -0.1501  0.5145 -0.5843
  149SAPE   H8X16495   1.030   2.951   7.555  1.7635 -0.2511  1.7802
  149SAPE   H8Y16496   0.966   2.780   7.574 -1.5515  0.3012 -0.7033
  149SAPE   C3916497   0.946   2.889   7.753  0.1559  0.0972  0.1667
  149SAPE   H9X16498   1.047   2.864   7.792  0.1363 -0.5302 -0.1802
  149SAPE   H9Y16499   0.873   2.810   7.779 -1.0412  0.5867 -1.5577
  149SAPE  C31016500   0.903   3.016   7.826  0.1895 -0.9887  0.0645
  149SAPE  H10X16501   0.796   3.039   7.808  0.2121  0.1101  1.2070
  149SAPE  H10Y16502   0.956   3.106   7.790  0.0083 -0.0664  1.9716
  149SAPE  C31116503   0.931   3.009   7.974  1.2329  0.5147 -0.4379
  149SAPE  H11X16504   0.894   3.104   8.020 -2.7850 -1.2281  0.2788
  149SAPE  H11Y16505   1.041   3.010   7.991  1.6813  0.8444 -2.9950
  149SAPE  C31216506   0.863   2.894   8.043  0.1121 -0.6840  0.0180
  149SAPE  H12X16507   0.911   2.795   8.027  0.6170 -0.3338 -0.7028
  149SAPE  H12Y16508   0.775   2.886   7.976  1.0147  1.9054 -1.6260
  149SAPE  C31316509   0.844   2.906   8.193  0.8340  0.5774 -0.5229
  149SAPE  H13X16510   0.765   2.834   8.222  0.0068  1.6342 -0.0945
  149SAPE  H13Y16511   0.817   3.008   8.229 -1.5051 -1.2464  3.4557
  149SAPE  C31416512   0.972   2.865   8.258  0.1481  0.3567 -0.4095
  149SAPE  H14X16513   1.057   2.933   8.235  1.3123 -0.3300  1.5505
  149SAPE  H14Y16514   0.996   2.762   8.224 -2.7971  0.2135 -2.3786
  149SAPE  C31516515   0.969   2.857   8.412 -0.0217  0.2378 -0.1193
  149SAPE  H15X16516   0.891   2.788   8.450  1.4224 -0.5740  1.4740
  149SAPE  H15Y16517   0.941   2.961   8.440 -1.6246 -0.1584 -0.1739
  149SAPE  C31616518   1.104   2.809   8.479 -0.3224  0.2950  0.9807
  149SAPE  H16X16519   1.178   2.887   8.452  0.0154 -0.5494 -0.6706
  149SAPE  H16Y16520   1.130   2.712   8.432  1.3699  1.3675 -0.4327
  149SAPE  C31716521   1.100   2.783   8.633  0.0025 -0.2880  0.1352
  149SAPE  H17X16522   1.078   2.676   8.653 -0.6575 -0.6484 -2.1641
  149SAPE  H17Y16523   1.022   2.851   8.674  1.0012 -0.4408  2.4234
  149SAPE  C31816524   1.239   2.794   8.704 -0.3105  0.6635  0.4224
  149SAPE  H18X16525   1.277   2.894   8.675  0.3081  0.0509 -0.9554
  149SAPE  H18Y16526   1.316   2.724   8.667  0.4687  1.8550 -0.2762
  149SAPE  H18Z16527   1.225   2.791   8.814  0.2239  2.1610  0.5601
  150SAPE     N16528   6.246   4.669   5.894  0.0290 -0.1025  0.1929
  150SAPE   HN116529   6.177   4.723   5.839  0.5342 -1.1646 -1.5525
  150SAPE   HN216530   6.325   4.646   5.830  0.3596 -0.5614  0.7645
  150SAPE   HN316531   6.196   4.579   5.907  0.9298 -0.6046  0.2515
  150SAPE   C1216532   6.291   4.711   6.037 -0.1454 -0.1754 -0.0001
  150SAPE  H12A16533   6.377   4.780   6.023 -1.3082  0.9331 -2.2328
  150SAPE  H12B16534   6.327   4.619   6.088 -1.1375  0.4341  1.9262
  150SAPE   C1116535   6.175   4.763   6.114  0.7891 -0.2801 -0.6626
  150SAPE  H11A16536   6.126   4.848   6.063 -0.4813  0.1686  1.2109
  150SAPE  H11B16537   6.225   4.794   6.209  1.3053  0.3348 -1.1288
  150SAPE     P16538   5.994   4.640   6.255  0.1212 -0.2274  0.3302
  150SAPE   O1316539   5.900   4.748   6.273 -0.0220  0.8025  0.2997
  150SAPE   O1416540   5.937   4.506   6.238 -0.2653 -0.5928 -0.0790
  150SAPE   O1216541   6.075   4.659   6.122 -0.3751 -0.1598  0.2644
  150SAPE   O1116542   6.101   4.640   6.366  0.2661  0.3341  0.1162
  150SAPE    C116543   6.169   4.522   6.405  0.6021  0.7749 -0.1143
  150SAPE    HA16544   6.107   4.440   6.447  3.7912 -2.1347 -0.6780
  150SAPE    HB16545   6.213   4.472   6.316  0.1660 -1.0468  0.6349
  150SAPE    C216546   6.260   4.535   6.534 -0.0777  0.4715 -0.1850
  150SAPE    HS16547   6.312   4.438   6.550 -1.4414 -0.7680 -2.6926
  150SAPE   O2116548   6.178   4.582   6.641 -0.0823  0.2377 -0.1910
  150SAPE   C2116549   6.114   4.497   6.719 -0.7780  0.0456 -0.0502
  150SAPE   O2216550   6.110   4.375   6.702  0.2397 -0.0046  0.0002
  150SAPE   C2216551   6.035   4.563   6.837 -0.8048  0.0847  0.5374
  150SAPE   H2R16552   5.954   4.631   6.804 -1.6537 -0.9479  0.4412
  150SAPE   H2S16553   5.985   4.474   6.881 -1.2720  0.6410  1.1412
  150SAPE    C316554   6.365   4.648   6.507 -0.3108 -0.3851  0.0928
  150SAPE    HX16555   6.304   4.734   6.472  0.3565  0.2536  0.4876
  150SAPE    HY16556   6.424   4.619   6.417  0.5048  2.4556 -0.3992
  150SAPE   O3116557   6.459   4.670   6.613  0.3143 -0.0302 -1.2011
  150SAPE   C3116558   6.422   4.747   6.716 -0.1405  0.7042  0.7524
  150SAPE   O3216559   6.324   4.815   6.719  0.6493 -0.1907  0.3779
  150SAPE   C3216560   6.529   4.728   6.833 -0.0252 -0.3101  0.1977
  150SAPE   H2X16561   6.604   4.808   6.816  0.1981 -0.9921 -2.3214
  150SAPE   H2Y16562   6.585   4.633   6.825  2.4111  0.9250  1.2813
  150SAPE   C2316563   6.137   4.619   6.941  0.5802  0.5699  0.1225
  150SAPE   H3R16564   6.208   4.688   6.891  0.2889  1.6346  1.1390
  150SAPE   H3S16565   6.195   4.533   6.980 -0.8431 -0.0514  0.9658
  150SAPE   C2416566   6.076   4.690   7.069 -0.1098  0.7495  0.1498
  150SAPE   H4R16567   6.003   4.770   7.045  0.3370  2.0044  2.6515
  150SAPE   H4S16568   6.164   4.738   7.118 -0.5599  0.7946  0.9365
  150SAPE   C2516569   6.019   4.588   7.165 -0.2759  0.0545 -0.5436
  150SAPE   H5R16570   5.943   4.528   7.112 -0.6651 -0.2894  0.3958
  150SAPE   C2616571   6.060   4.558   7.296 -0.0737 -0.1780  0.0837
  150SAPE   H6R16572   6.006   4.476   7.346  1.0387 -0.1428  1.3977
  150SAPE   C2716573   6.171   4.619   7.383 -0.3155 -0.3598 -0.2767
  150SAPE   H7R16574   6.250   4.675   7.327 -1.7527  2.4523  0.3245
  150SAPE   H7S16575   6.219   4.530   7.429 -0.3191 -0.6085 -0.7482
  150SAPE   C2816576   6.113   4.709   7.487 -0.2132  0.5890 -0.2262
  150SAPE   H8R16577   6.091   4.808   7.446 -0.0728  0.7347  0.0459
  150SAPE   C2916578   6.108   4.682   7.622  0.2704  0.3368  0.3168
  150SAPE   H9R16579   6.050   4.749   7.687 -1.6108 -1.0473  0.1209
  150SAPE  C21016580   6.149   4.555   7.690 -0.3470  0.4626 -0.1400
  150SAPE  H10R16581   6.197   4.476   7.628  0.9386  0.6590  0.5635
  150SAPE  H10S16582   6.065   4.510   7.748  1.7787  0.4359  3.2219
  150SAPE  C21116583   6.257   4.586   7.787 -0.0792  0.2480 -0.7105
  150SAPE  H11R16584   6.359   4.600   7.746  1.0005 -0.3846  1.6006
  150SAPE  C21216585   6.239   4.610   7.918  0.5759  0.3502  0.3956
  150SAPE  H12R16586   6.320   4.659   7.975  1.0070  0.1026 -0.0019
  150SAPE  C21316587   6.103   4.596   7.985  0.2379  0.8787  0.2359
  150SAPE  H13R16588   6.025   4.651   7.929  0.4281 -0.2473 -1.1981
  150SAPE  H13S16589   6.102   4.650   8.082 -2.6925  0.9252  0.2639
  150SAPE  C21416590   6.063   4.452   8.012 -0.6142  0.0741 -0.4005
  150SAPE  H14R16591   6.071   4.375   7.934  0.8965  0.4546 -0.6482
  150SAPE  C21516592   6.040   4.401   8.131 -0.2457 -0.3860 -0.5010
  150SAPE  H15R16593   6.027   4.292   8.134  2.8154 -0.8112  1.6253
  150SAPE  C21616594   6.022   4.462   8.269  0.4962  1.1469  0.9786
  150SAPE  H16R16595   6.043   4.571   8.282  0.8024  1.1858  0.2118
  150SAPE  H16S16596   6.094   4.419   8.341  0.4278  1.3015  1.1398
  150SAPE  C21716597   5.874   4.436   8.317 -0.3386 -0.0335  0.2068
  150SAPE  H17R16598   5.800   4.471   8.243 -1.7382 -3.0615  0.0095
  150SAPE  H17S16599   5.864   4.493   8.411 -0.4786  0.2311  0.0325
  150SAPE  C21816600   5.841   4.285   8.350  0.0283 -0.7400 -0.4090
  150SAPE  H18R16601   5.916   4.244   8.422 -0.1799  0.1163  0.3185
  150SAPE  H18S16602   5.840   4.228   8.255 -2.0114  1.2220 -1.6253
  150SAPE  C21916603   5.711   4.285   8.428  0.3221 -0.4170  0.0732
  150SAPE  H19R16604   5.625   4.326   8.370  0.4595  5.2015  3.0951
  150SAPE  H19S16605   5.723   4.355   8.514 -1.7471  0.0131  0.0716
  150SAPE  C22016606   5.687   4.148   8.483  0.2101 -0.3770 -0.3777
  150SAPE  H20R16607   5.671   4.071   8.404  2.7101 -1.6981  0.3213
  150SAPE  H20S16608   5.598   4.154   8.549  0.8940 -1.0211  0.6222
  150SAPE  H20T16609   5.769   4.123   8.553 -0.3535 -0.4678  0.2656
  150SAPE   C3316610   6.476   4.749   6.979 -0.1999  0.2918  0.2455
  150SAPE   H3X16611   6.394   4.677   7.003  2.5846 -2.8848  0.9744
  150SAPE   H3Y16612   6.428   4.848   6.994 -1.8306 -0.5178  0.6289
  150SAPE   C3416613   6.584   4.733   7.080 -0.4431  0.0543 -0.0727
  150SAPE   H4X16614   6.662   4.812   7.080 -0.9583  0.6023  1.4473
  150SAPE   H4Y16615   6.639   4.636   7.077  2.5207  1.6486 -0.9120
  150SAPE   C3516616   6.515   4.730   7.222 -0.1157 -0.0054 -0.6540
  150SAPE   H5X16617   6.453   4.642   7.248 -0.6404  1.3450  3.4833
  150SAPE   H5Y16618   6.454   4.823   7.224 -1.0046 -0.5881 -0.1207
  150SAPE   C3616619   6.612   4.752   7.347 -0.2838  0.3764  0.1039
  150SAPE   H6X16620   6.699   4.817   7.324 -0.9662  0.3736 -3.0013
  150SAPE   H6Y16621   6.656   4.653   7.369 -0.1628  0.5537  0.6858
  150SAPE   C3716622   6.542   4.803   7.471  0.4497  0.8749  0.1780
  150SAPE   H7X16623   6.449   4.743   7.476  0.2453  1.2810  1.3389
  150SAPE   H7Y16624   6.514   4.908   7.451 -1.0832  0.4372 -0.0573
  150SAPE   C3816625   6.622   4.786   7.595  0.5954  0.0146 -0.5793
  150SAPE   H8X16626   6.716   4.845   7.594 -0.6283  2.0706 -1.8725
  150SAPE   H8Y16627   6.637   4.678   7.619 -1.1181 -0.4449 -1.4046
  150SAPE   C3916628   6.549   4.843   7.725 -0.0255 -0.1572 -0.4492
  150SAPE   H9X16629   6.463   4.781   7.758 -0.0192  0.3161  0.4829
  150SAPE   H9Y16630   6.502   4.937   7.689  0.3835 -0.3313 -1.4772
  150SAPE  C31016631   6.633   4.878   7.850  0.1528  0.3934  0.1540
  150SAPE  H10X16632   6.718   4.939   7.812 -1.0492  2.1238  0.0969
  150SAPE  H10Y16633   6.682   4.792   7.899  0.1266  0.9937  1.2593
  150SAPE  C31116634   6.543   4.948   7.948  0.0730  0.1039 -0.0449
  150SAPE  H11X16635   6.442   4.901   7.941 -0.2086  0.9306 -1.7888
  150SAPE  H11Y16636   6.516   5.049   7.912 -0.3917  0.5149  1.3694
  150SAPE  C31216637   6.610   4.955   8.089 -0.3973  0.0418  0.0237
  150SAPE  H12X16638   6.707   5.007   8.077 -0.9749  1.6735  1.9129
  150SAPE  H12Y16639   6.628   4.851   8.121  0.5817 -0.0321 -0.7275
  150SAPE  C31316640   6.518   5.024   8.196  0.5584  0.0804 -0.7194
  150SAPE  H13X16641   6.414   4.984   8.192  0.0795  0.6806  2.7211
  150SAPE  H13Y16642   6.524   5.131   8.167  0.7580  0.0315 -0.8547
  150SAPE  C31416643   6.570   5.011   8.345 -0.1977 -0.0058  0.9212
  150SAPE  H14X16644   6.503   5.075   8.407  0.1020  1.2494 -0.0103
  150SAPE  H14Y16645   6.667   5.062   8.360 -0.0930  0.7576 -1.8927
  150SAPE  C31516646   6.568   4.878   8.410 -0.2110  0.1565  0.1287
  150SAPE  H15X16647   6.588   4.897   8.518 -3.7408  1.3337  0.6951
  150SAPE  H15Y16648   6.647   4.810   8.370  0.8998  1.1080  0.6445
  150SAPE  C31616649   6.433   4.793   8.401  0.0815 -0.3708  0.1145
  150SAPE  H16X16650   6.417   4.775   8.292 -0.1061 -1.2675  0.2875
  150SAPE  H16Y16651   6.355   4.864   8.436 -0.7804 -1.7833  1.1726
  150SAPE  C31716652   6.436   4.658   8.479  0.1323 -0.4822  0.7636
  150SAPE  H17X16653   6.519   4.600   8.433 -0.1050  0.7949 -1.3947
  150SAPE  H17Y16654   6.336   4.612   8.464  0.4925 -0.7405 -1.0055
  150SAPE  C31816655   6.470   4.673   8.629 -0.1338  0.1760 -0.1640
  150SAPE  H18X16656   6.397   4.734   8.687 -0.9330 -1.6515  0.8358
  150SAPE  H18Y16657   6.568   4.726   8.631  0.6294 -1.1868  1.1858
  150SAPE  H18Z16658   6.486   4.570   8.668 -1.3057 -0.1251 -0.4565
  151SAPE     N16659   1.096   2.620   6.213 -0.3871 -0.6828 -0.1439
  151SAPE   HN116660   1.062   2.633   6.310 -0.7787 -1.6751 -0.1363
  151SAPE   HN216661   1.104   2.713   6.168  2.5835 -0.7296  0.0928
  151SAPE   HN316662   1.027   2.569   6.153  1.3651 -0.7525 -2.2490
  151SAPE   C1216663   1.222   2.547   6.244 -0.0195  0.1499  0.1994
  151SAPE  H12A16664   1.292   2.593   6.317  2.0510 -3.3517  0.6616
  151SAPE  H12B16665   1.283   2.544   6.151 -2.0150  4.5128 -1.4955
  151SAPE   C1116666   1.189   2.401   6.288  0.4138  0.1605 -0.0841
  151SAPE  H11A16667   1.135   2.410   6.384  0.0290 -0.6760 -0.2196
  151SAPE  H11B16668   1.286   2.347   6.290  0.8793  0.8551 -2.0493
  151SAPE     P16669   1.053   2.196   6.169  0.0588 -0.1724  0.1757
  151SAPE   O1316670   0.938   2.215   6.074 -0.3122  0.0709 -0.1660
  151SAPE   O1416671   1.171   2.124   6.115 -0.2216 -0.4861  0.0666
  151SAPE   O1216672   1.100   2.344   6.194  0.1930 -0.5585  0.3195
  151SAPE   O1116673   1.008   2.139   6.308  0.4061  0.0789 -0.1073
  151SAPE    C116674   0.912   2.206   6.386 -0.1319 -0.3123  0.6199
  151SAPE    HA16675   0.913   2.316   6.367 -2.6054 -0.3978 -0.4333
  151SAPE    HB16676   0.807   2.170   6.380 -0.4387  0.3388  1.7792
  151SAPE    C216677   0.945   2.205   6.535  0.3961  0.4783 -0.1201
  151SAPE    HS16678   1.018   2.285   6.560 -0.5199  1.4977 -0.6452
  151SAPE   O2116679   0.986   2.072   6.577 -0.0989  0.3913 -0.9531
  151SAPE   C2116680   1.116   2.046   6.566 -1.2273 -0.8772 -0.0409
  151SAPE   O2216681   1.198   2.129   6.523  0.0070 -0.2722 -0.0345
  151SAPE   C2216682   1.150   1.902   6.625  0.3174  0.1638 -0.8069
  151SAPE   H2R16683   1.122   1.832   6.543 -0.5459 -1.3099  0.6791
  151SAPE   H2S16684   1.259   1.891   6.643  0.2255  0.2722 -0.1567
  151SAPE    C316685   0.815   2.238   6.614  0.2919 -0.7216 -0.3207
  151SAPE    HX16686   0.735   2.162   6.602  0.1265 -0.7834  1.0080
  151SAPE    HY16687   0.794   2.342   6.580  0.5158 -0.0025  1.5915
  151SAPE   O3116688   0.846   2.258   6.757 -0.4422 -0.2404  0.1376
  151SAPE   C3116689   0.735   2.264   6.835 -0.6154 -0.2791 -0.5075
  151SAPE   O3216690   0.619   2.234   6.809  0.2007  0.1563  0.2768
  151SAPE   C3216691   0.772   2.300   6.979 -0.4408 -0.2195  1.1379
  151SAPE   H2X16692   0.862   2.365   6.967 -0.1480 -0.5250  1.6440
  151SAPE   H2Y16693   0.810   2.206   7.025  0.4670 -0.9619 -0.9650
  151SAPE   C2316694   1.067   1.867   6.752 -0.2065 -0.5572  0.2444
  151SAPE   H3R16695   0.962   1.882   6.720  0.3495 -1.1708 -2.0293
  151SAPE   H3S16696   1.091   1.941   6.831 -2.7228  0.8417 -0.2052
  151SAPE   C2416697   1.085   1.724   6.818 -0.0337 -0.2355 -0.3469
  151SAPE   H4R16698   1.078   1.650   6.735 -0.2418 -0.3981 -0.1832
  151SAPE   H4S16699   1.011   1.690   6.894 -1.3515  1.1362 -0.9435
  151SAPE   C2516700   1.220   1.711   6.874 -0.8174  0.5666  0.3508
  151SAPE   H5R16701   1.301   1.705   6.799 -2.0192  0.3174 -0.9634
  151SAPE   C2616702   1.268   1.702   7.006 -0.5073 -0.3075  0.4149
  151SAPE   H6R16703   1.376   1.686   7.019 -0.4008 -1.0591 -1.1820
  151SAPE   C2716704   1.169   1.700   7.125 -0.3585  0.1609 -0.5224
  151SAPE   H7R16705   1.190   1.611   7.188 -0.7845  0.3158 -0.1550
  151SAPE   H7S16706   1.062   1.685   7.099 -1.1360  3.0153  0.6577
  151SAPE   C2816707   1.171   1.824   7.216 -0.3797 -0.7732 -0.4350
  151SAPE   H8R16708   1.170   1.920   7.164  1.3347  0.4472  1.5922
  151SAPE   C2916709   1.175   1.817   7.352 -0.0154  0.3466 -0.1057
  151SAPE   H9R16710   1.161   1.907   7.413 -2.6324 -1.0532  1.5546
  151SAPE  C21016711   1.186   1.699   7.447  0.1753  0.0478 -0.1350
  151SAPE  H10R16712   1.229   1.612   7.393  4.3516  1.0961  1.1298
  151SAPE  H10S16713   1.083   1.670   7.476  0.6573 -0.4443  1.1200
  151SAPE  C21116714   1.263   1.735   7.570 -0.0273  0.7051  0.0378
  151SAPE  H11R16715   1.310   1.833   7.556 -0.2506  0.5181 -2.4348
  151SAPE  C21216716   1.284   1.662   7.678 -0.3885  0.2712 -0.0849
  151SAPE  H12R16717   1.345   1.704   7.759  0.1505 -2.2765  0.9398
  151SAPE  C21316718   1.236   1.523   7.711 -0.1866 -0.7274 -0.3736
  151SAPE  H13R16719   1.180   1.476   7.628  0.1849 -0.7691 -0.6017
  151SAPE  H13S16720   1.158   1.520   7.790 -1.0529 -1.5080 -1.2374
  151SAPE  C21416721   1.353   1.427   7.750  0.3858 -0.5134 -0.0909
  151SAPE  H14R16722   1.393   1.368   7.666  0.7149 -1.7969  0.9327
  151SAPE  C21516723   1.394   1.398   7.879  0.1426 -0.1450  1.0949
  151SAPE  H15R16724   1.484   1.334   7.889 -1.1818 -2.3322 -0.1945
  151SAPE  C21616725   1.342   1.460   8.007 -0.0015 -0.2338  0.3387
  151SAPE  H16R16726   1.239   1.498   7.992 -0.0048 -0.2381  0.3512
  151SAPE  H16S16727   1.408   1.545   8.037  1.5101 -1.0832 -0.4317
  151SAPE  C21716728   1.345   1.379   8.139 -0.7099  0.8660 -0.2413
  151SAPE  H17R16729   1.304   1.439   8.223  1.1219  1.9629 -0.0860
  151SAPE  H17S16730   1.448   1.363   8.177 -0.9445  0.3488  0.1901
  151SAPE  C21816731   1.276   1.241   8.123  0.3347 -0.9057 -0.0486
  151SAPE  H18R16732   1.308   1.177   8.208  2.0896  0.0583  0.0673
  151SAPE  H18S16733   1.323   1.202   8.029 -0.3630  0.3660 -0.9532
  151SAPE  C21916734   1.128   1.249   8.124  1.2410  0.0822  0.3419
  151SAPE  H19R16735   1.092   1.307   8.037  2.7119 -0.2373 -0.5007
  151SAPE  H19S16736   1.095   1.293   8.221  0.8696 -0.8010  0.6314
  151SAPE  C22016737   1.063   1.111   8.109  0.2490  0.7650  0.4452
  151SAPE  H20R16738   0.954   1.132   8.108  0.4945  2.1251 -0.1326
  151SAPE  H20S16739   1.099   1.052   8.022 -1.9733 -0.3019  0.1688
  151SAPE  H20T16740   1.082   1.044   8.195 -3.7906 -2.8724 -1.1133
  151SAPE   C3316741   0.670   2.371   7.069  0.1201  0.6212  0.3357
  151SAPE   H3X16742   0.618   2.291   7.125 -0.5075 -0.5203 -1.7705
  151SAPE   H3Y16743   0.587   2.411   7.007 -1.0667 -1.8950  0.1777
  151SAPE   C3416744   0.738   2.473   7.154 -0.0968 -0.3216 -0.6899
  151SAPE   H4X16745   0.665   2.552   7.179  1.4037  1.3540 -1.3428
  151SAPE   H4Y16746   0.811   2.527   7.090  1.8988 -2.2879 -0.2187
  151SAPE   C3516747   0.813   2.418   7.277  0.1172 -1.2425  0.1952
  151SAPE   H5X16748   0.876   2.498   7.320  0.7782 -1.5036 -0.2769
  151SAPE   H5Y16749   0.872   2.329   7.246 -0.4203 -2.2645  1.9780
  151SAPE   C3616750   0.723   2.350   7.384  0.4678  0.0685  0.6003
  151SAPE   H6X16751   0.667   2.266   7.337  1.1421 -0.5995  0.9602
  151SAPE   H6Y16752   0.639   2.419   7.407  0.4153 -0.2546  1.4268
  151SAPE   C3716753   0.791   2.305   7.510 -1.2041 -0.2751 -0.5292
  151SAPE   H7X16754   0.880   2.242   7.493 -0.8889 -0.4493  1.5079
  151SAPE   H7Y16755   0.732   2.229   7.567 -1.1814 -0.4680 -0.7614
  151SAPE   C3816756   0.837   2.424   7.601  0.0222  0.3884  0.7362
  151SAPE   H8X16757   0.751   2.495   7.600  1.2367  2.0884  3.5763
  151SAPE   H8Y16758   0.915   2.489   7.556 -0.3629 -0.4476 -1.2393
  151SAPE   C3916759   0.880   2.393   7.742  0.3252  0.6646  0.2796
  151SAPE   H9X16760   0.949   2.477   7.767 -1.4798  3.0081 -1.9687
  151SAPE   H9Y16761   0.944   2.302   7.741  3.1333  2.4177  2.7307
  151SAPE  C31016762   0.766   2.391   7.837 -0.1808  0.2668  0.1875
  151SAPE  H10X16763   0.693   2.324   7.789  1.2043 -0.9318 -0.3199
  151SAPE  H10Y16764   0.715   2.489   7.845 -0.9141 -0.2041  1.6355
  151SAPE  C31116765   0.806   2.348   7.980  0.6858 -0.1035  0.0447
  151SAPE  H11X16766   0.882   2.425   8.007 -0.5881  1.8480 -1.6612
  151SAPE  H11Y16767   0.848   2.245   7.971 -0.0594 -0.3841 -0.2926
  151SAPE  C31216768   0.694   2.367   8.084 -0.2612  0.4930 -0.1908
  151SAPE  H12X16769   0.723   2.314   8.177  0.8075  1.6471  0.1574
  151SAPE  H12Y16770   0.604   2.314   8.045  0.0193 -0.6298  0.6475
  151SAPE  C31316771   0.661   2.516   8.109  0.1869  0.3910  0.0122
  151SAPE  H13X16772   0.592   2.557   8.032 -1.6123  1.9431  2.3357
  151SAPE  H13Y16773   0.745   2.589   8.110 -1.2718  2.2905  4.3392
  151SAPE  C31416774   0.575   2.534   8.235  0.2589  0.1359 -0.0598
  151SAPE  H14X16775   0.505   2.448   8.247  1.0448 -0.8120 -1.9044
  151SAPE  H14Y16776   0.520   2.630   8.230 -0.9721 -0.4240  1.7322
  151SAPE  C31516777   0.668   2.539   8.358  0.0317  0.3238 -0.6510
  151SAPE  H15X16778   0.732   2.630   8.367 -0.3397  0.3547  3.8501
  151SAPE  H15Y16779   0.731   2.447   8.357 -1.7025 -0.9394  0.4995
  151SAPE  C31616780   0.592   2.547   8.485  0.9691  0.1795 -1.0616
  151SAPE  H16X16781   0.518   2.465   8.495  0.8767  0.0610 -2.4303
  151SAPE  H16Y16782   0.526   2.635   8.480 -0.1596 -0.4778  1.2496
  151SAPE  C31716783   0.673   2.569   8.609 -0.2680  0.8476 -0.4850
  151SAPE  H17X16784   0.605   2.576   8.697  0.8775  2.5047  0.3081
  151SAPE  H17Y16785   0.724   2.668   8.604  0.4461  0.4918 -0.2451
  151SAPE  C31816786   0.774   2.455   8.641  0.4815 -1.0482  0.3108
  151SAPE  H18X16787   0.715   2.361   8.644 -0.6664 -0.3396  0.7155
  151SAPE  H18Y16788   0.831   2.473   8.735  0.6192 -0.4472  0.1168
  151SAPE  H18Z16789   0.846   2.450   8.556  1.7056 -2.5219  1.3754
  152SAPE     N16790   5.498   5.609   6.440 -0.5130 -0.5183  0.2011
  152SAPE   HN116791   5.578   5.581   6.501  0.1652 -0.6445 -0.7264
  152SAPE   HN216792   5.414   5.579   6.492 -1.1068  0.8621  0.0774
  152SAPE   HN316793   5.500   5.555   6.350 -1.2842 -0.1003 -0.0687
  152SAPE   C1216794   5.505   5.761   6.421  0.4050 -0.2119 -0.4991
  152SAPE  H12A16795   5.486   5.797   6.524 -1.3188 -1.8437 -0.1972
  152SAPE  H12B16796   5.418   5.786   6.356 -0.4532 -1.4568  0.1285
  152SAPE   C1116797   5.642   5.810   6.380  0.8650  0.1681 -0.1880
  152SAPE  H11A16798   5.720   5.770   6.448 -0.3153  1.1100  1.7995
  152SAPE  H11B16799   5.651   5.921   6.386  3.1525 -0.0263  3.8525
  152SAPE     P16800   5.812   5.801   6.186 -0.0072  0.1960  0.0284
  152SAPE   O1316801   5.917   5.725   6.259 -0.0806  0.2942  0.1728
  152SAPE   O1416802   5.805   5.780   6.038 -0.1119 -0.1828 -0.2792
  152SAPE   O1216803   5.675   5.760   6.251 -0.1539  0.7078 -0.6858
  152SAPE   O1116804   5.807   5.956   6.227  0.3409 -0.3930  0.3735
  152SAPE    C116805   5.922   6.037   6.219 -0.3594 -0.1219  0.0201
  152SAPE    HA16806   5.991   6.009   6.137  0.6984 -0.2276  0.9266
  152SAPE    HB16807   5.888   6.140   6.191  0.1426 -0.3266 -1.4476
  152SAPE    C216808   6.004   6.060   6.348  0.4407  0.2748 -0.0026
  152SAPE    HS16809   6.030   5.961   6.392  3.2886  1.7986  2.1280
  152SAPE   O2116810   5.935   6.148   6.441 -0.2810 -0.3934 -0.4198
  152SAPE   C2116811   5.897   6.097   6.559  1.1729 -0.7406 -0.6705
  152SAPE   O2216812   5.880   5.979   6.582 -0.1726  0.1056 -0.2079
  152SAPE   C2216813   5.868   6.209   6.662 -0.1283  0.1175  0.3301
  152SAPE   H2R16814   5.961   6.192   6.721  0.0182  1.4456  0.5071
  152SAPE   H2S16815   5.855   6.305   6.607 -1.9705  0.0344  0.5792
  152SAPE    C316816   6.148   6.128   6.324  0.0242 -0.1809 -0.1121
  152SAPE    HX16817   6.132   6.238   6.314  0.1593 -0.1805 -0.3404
  152SAPE    HY16818   6.180   6.077   6.231 -2.2620 -1.6864 -0.1305
  152SAPE   O3116819   6.235   6.096   6.433 -0.0477  0.1076  0.3749
  152SAPE   C3116820   6.365   6.103   6.418 -0.2812  0.2224 -0.3535
  152SAPE   O3216821   6.431   6.127   6.318  0.7274 -0.2681  0.0964
  152SAPE   C3216822   6.434   6.071   6.545  0.2859  0.2804  0.0493
  152SAPE   H2X16823   6.476   5.969   6.535 -3.8420 -1.6976  0.8436
  152SAPE   H2Y16824   6.365   6.067   6.632  1.7119  0.6859  1.2301
  152SAPE   C2316825   5.745   6.187   6.755  0.0975 -0.3663 -0.3319
  152SAPE   H3R16826   5.692   6.100   6.711 -0.5146  0.5322 -1.4154
  152SAPE   H3S16827   5.680   6.277   6.756  0.2425 -0.2323 -1.5928
  152SAPE   C2416828   5.791   6.150   6.897 -0.3856 -0.3825 -0.2302
  152SAPE   H4R16829   5.868   6.070   6.886 -0.4871 -0.7356  1.3807
  152SAPE   H4S16830   5.707   6.113   6.959 -0.1513  1.9450  1.5964
  152SAPE   C2516831   5.863   6.266   6.970  0.9435 -0.0569  0.4313
  152SAPE   H5R16832   5.972   6.279   6.958  1.0613 -1.8764 -0.9107
  152SAPE   C2616833   5.805   6.350   7.060 -0.1970 -0.0709 -0.0878
  152SAPE   H6R16834   5.870   6.432   7.096 -0.6605 -0.6542  2.2397
  152SAPE   C2716835   5.667   6.347   7.114 -0.1355  0.6887 -0.1099
  152SAPE   H7R16836   5.647   6.249   7.164  0.8506  0.9446  0.8462
  152SAPE   H7S16837   5.601   6.344   7.025  0.2157  1.1216 -0.3862
  152SAPE   C2816838   5.632   6.466   7.200  0.2014  0.1863  0.0251
  152SAPE   H8R16839   5.548   6.526   7.162  0.2746  1.3223  1.5449
  152SAPE   C2916840   5.676   6.503   7.324  0.3020  0.3188  0.4836
  152SAPE   H9R16841   5.655   6.603   7.363  1.7152 -0.0963  2.4905
  152SAPE  C21016842   5.783   6.426   7.401 -0.2312 -0.4846 -0.4239
  152SAPE  H10R16843   5.818   6.326   7.366  1.9198  0.0874 -0.0464
  152SAPE  H10S16844   5.763   6.416   7.510  4.1466  1.8479  0.7975
  152SAPE  C21116845   5.923   6.497   7.403 -0.2669  0.8175  0.2579
  152SAPE  H11R16846   5.970   6.511   7.305  1.9873  0.5918  1.2470
  152SAPE  C21216847   5.985   6.563   7.503 -0.4311  0.3604  0.6680
  152SAPE  H12R16848   6.080   6.617   7.488 -1.4548  2.2962  0.8919
  152SAPE  C21316849   5.942   6.570   7.647  0.4157  0.4344  0.6900
  152SAPE  H13R16850   5.832   6.555   7.658  0.2791  0.8782 -0.0046
  152SAPE  H13S16851   5.964   6.675   7.675 -2.0050  1.7637 -1.8490
  152SAPE  C21416852   6.001   6.479   7.746 -0.1910 -0.0476  0.0218
  152SAPE  H14R16853   5.974   6.375   7.725  0.2873  0.0646 -1.2793
  152SAPE  C21516854   6.058   6.511   7.859  0.2763 -0.7623  0.0028
  152SAPE  H15R16855   6.128   6.444   7.911  0.0353 -2.3915 -1.6643
  152SAPE  C21616856   6.077   6.651   7.910  0.3155 -0.0928  0.1278
  152SAPE  H16R16857   6.040   6.730   7.842 -0.1814 -0.4196  0.0036
  152SAPE  H16S16858   6.185   6.674   7.916  0.9526 -2.6681  0.0161
  152SAPE  C21716859   5.995   6.678   8.040  0.5364  0.4294 -0.7679
  152SAPE  H17R16860   6.017   6.776   8.087  1.7112  1.2357 -2.8555
  152SAPE  H17S16861   6.012   6.598   8.115  0.6292  0.6098 -0.5983
  152SAPE  C21816862   5.839   6.683   8.010  0.3901 -0.0168  0.1696
  152SAPE  H18R16863   5.801   6.582   7.986 -0.2508  0.1788  0.3292
  152SAPE  H18S16864   5.823   6.756   7.927  1.8000  0.5180  0.3495
  152SAPE  C21916865   5.773   6.736   8.143 -0.0531  0.0864  0.7297
  152SAPE  H19R16866   5.685   6.800   8.120 -0.7144 -1.2554 -0.6479
  152SAPE  H19S16867   5.842   6.801   8.200  0.9519 -0.5476  0.2526
  152SAPE  C22016868   5.729   6.628   8.247 -0.6524  0.9272 -0.1182
  152SAPE  H20R16869   5.819   6.572   8.278 -0.6840 -0.3365 -2.1239
  152SAPE  H20S16870   5.660   6.550   8.206  0.2397 -0.7606  1.4339
  152SAPE  H20T16871   5.686   6.673   8.339  1.3530  0.5186  1.0691
  152SAPE   C3316872   6.533   6.182   6.583 -0.0335  0.2210  0.8743
  152SAPE   H3X16873   6.489   6.283   6.565 -0.8408 -0.6070 -2.5971
  152SAPE   H3Y16874   6.622   6.174   6.517 -0.5562 -0.7463  0.2698
  152SAPE   C3416875   6.570   6.172   6.728 -0.9495  0.5262  0.3758
  152SAPE   H4X16876   6.621   6.074   6.732 -2.7144 -0.3940  1.1251
  152SAPE   H4Y16877   6.486   6.164   6.800 -0.9798 -0.9660  0.2059
  152SAPE   C3516878   6.649   6.295   6.764 -0.5501  0.6206  0.5867
  152SAPE   H5X16879   6.590   6.387   6.745  0.9034  1.6411  0.8560
  152SAPE   H5Y16880   6.741   6.308   6.703 -1.1905 -1.3611 -0.9181
  152SAPE   C3616881   6.680   6.301   6.919  0.5801 -0.1756  0.3615
  152SAPE   H6X16882   6.722   6.199   6.932 -1.3087 -1.2064 -0.9867
  152SAPE   H6Y16883   6.579   6.313   6.964 -0.1669  1.1432 -1.5122
  152SAPE   C3716884   6.780   6.400   6.956  0.2077  0.2890 -0.0130
  152SAPE   H7X16885   6.744   6.504   6.941 -0.4380 -0.0481 -0.9231
  152SAPE   H7Y16886   6.859   6.391   6.878  0.3176  0.7683  0.0460
  152SAPE   C3816887   6.832   6.366   7.095  0.1497  0.3488  0.0803
  152SAPE   H8X16888   6.925   6.428   7.094 -0.1422  0.7885 -1.3758
  152SAPE   H8Y16889   6.856   6.260   7.116  0.8895  0.8218  1.8460
  152SAPE   C3916890   6.745   6.421   7.209 -0.0277 -0.0090  0.1016
  152SAPE   H9X16891   6.643   6.378   7.210 -0.4615  0.8843  2.6196
  152SAPE   H9Y16892   6.735   6.530   7.190  2.0387  0.6295  2.1672
  152SAPE  C31016893   6.803   6.387   7.349  0.1552 -0.4679  0.3131
  152SAPE  H10X16894   6.913   6.388   7.338  0.0379  0.5872 -0.9376
  152SAPE  H10Y16895   6.767   6.283   7.370  3.4022 -1.2433  2.8427
  152SAPE  C31116896   6.759   6.492   7.452 -0.6531  0.1123 -0.8833
  152SAPE  H11X16897   6.650   6.474   7.445 -0.5200 -0.1501 -2.6469
  152SAPE  H11Y16898   6.774   6.598   7.421 -0.9742  0.0385 -1.3007
  152SAPE  C31216899   6.810   6.471   7.599  0.1856  0.1414 -0.1794
  152SAPE  H12X16900   6.779   6.372   7.637  0.3259 -0.2403 -1.0384
  152SAPE  H12Y16901   6.751   6.542   7.661  1.2615  0.3585  0.6132
  152SAPE  C31316902   6.957   6.502   7.612 -0.8828 -0.2155 -0.2237
  152SAPE  H13X16903   6.989   6.607   7.592 -0.5864 -0.8193 -3.5389
  152SAPE  H13Y16904   7.000   6.444   7.527 -0.8473  2.2722 -2.0213
  152SAPE  C31416905   7.025   6.445   7.744  0.6404  0.1386 -0.2852
  152SAPE  H14X16906   7.131   6.478   7.741  0.2708  1.3800 -0.4071
  152SAPE  H14Y16907   7.010   6.336   7.758  1.6310  0.1997  1.5335
  152SAPE  C31516908   6.954   6.504   7.868 -0.1937  0.4106 -0.0723
  152SAPE  H15X16909   6.850   6.465   7.872  0.1665 -0.5554  0.1264
  152SAPE  H15Y16910   6.949   6.615   7.860  1.9419  0.4513 -1.8377
  152SAPE  C31616911   7.027   6.460   7.993 -0.0361  0.0000 -0.6154
  152SAPE  H16X16912   7.128   6.506   8.000  1.0905 -2.5432  2.1303
  152SAPE  H16Y16913   7.036   6.349   7.990 -1.9918 -0.1752 -2.4254
  152SAPE  C31716914   6.954   6.513   8.115 -0.1141  0.1860  0.0198
  152SAPE  H17X16915   6.858   6.458   8.109  0.0110  0.0467 -0.7442
  152SAPE  H17Y16916   6.933   6.620   8.094  0.1285  0.4594  1.0754
  152SAPE  C31816917   7.024   6.502   8.250  0.2168  1.7084  0.1815
  152SAPE  H18X16918   7.121   6.556   8.254 -0.1153  2.2224  2.9819
  152SAPE  H18Y16919   7.036   6.395   8.278  0.8170  1.4936 -0.8453
  152SAPE  H18Z16920   6.958   6.551   8.325  0.5403  1.9024  0.3396
  153SAPE     N16921   0.494   1.316   6.319  0.5464 -0.7388 -0.1198
  153SAPE   HN116922   0.450   1.404   6.286  0.3770 -0.8973 -0.3194
  153SAPE   HN216923   0.588   1.340   6.356 -0.0945 -0.5542  1.4721
  153SAPE   HN316924   0.512   1.254   6.238 -0.3195 -1.0331 -0.1025
  153SAPE   C1216925   0.429   1.255   6.439  0.5696  0.4318 -0.8936
  153SAPE  H12A16926   0.450   1.320   6.526  0.9189  0.7826 -1.2338
  153SAPE  H12B16927   0.485   1.160   6.457  1.5756  1.1210 -0.2944
  153SAPE   C1116928   0.283   1.225   6.415 -0.5048 -0.3711  0.0331
  153SAPE  H11A16929   0.221   1.317   6.411 -0.0572  0.0103  1.2223
  153SAPE  H11B16930   0.248   1.176   6.509  1.1005 -2.1520 -0.2330
  153SAPE     P16931   0.179   1.002   6.313  0.5040  0.8247 -0.2138
  153SAPE   O1316932   0.053   1.015   6.387 -0.0046 -0.0885 -0.8169
  153SAPE   O1416933   0.160   0.953   6.170  0.0424  0.2709  0.0583
  153SAPE   O1216934   0.253   1.145   6.299  0.6021 -0.1730 -0.2984
  153SAPE   O1116935   0.292   0.927   6.382  0.1194  0.2330 -0.6183
  153SAPE    C116936   0.428   0.918   6.333  0.5908  0.1207 -0.8526
  153SAPE    HA16937   0.429   0.836   6.258 -2.5486 -1.0439  0.2331
  153SAPE    HB16938   0.460   1.007   6.275 -1.5807  0.7930 -1.0994
  153SAPE    C216939   0.527   0.875   6.447 -0.0912  0.1584  0.3031
  153SAPE    HS16940   0.517   0.765   6.456 -1.5725  0.3889  2.0632
  153SAPE   O2116941   0.482   0.928   6.571 -0.0524 -0.0173  0.0726
  153SAPE   C2116942   0.415   0.857   6.650 -0.5621  0.4260  0.3931
  153SAPE   O2216943   0.382   0.739   6.628 -0.0195  0.7042 -0.0165
  153SAPE   C2216944   0.380   0.951   6.763 -0.5695 -0.1632 -0.9860
  153SAPE   H2R16945   0.468   1.011   6.794  1.3259 -2.6016 -1.3018
  153SAPE   H2S16946   0.300   1.023   6.738 -0.6895  1.0695  2.4301
  153SAPE    C316947   0.671   0.924   6.428 -0.5084 -0.4563  0.1817
  153SAPE    HX16948   0.676   1.027   6.469  1.6794 -0.0490 -0.9280
  153SAPE    HY16949   0.702   0.945   6.323  0.9816  2.7842  1.1525
  153SAPE   O3116950   0.765   0.826   6.485  0.6974  0.5741  0.2255
  153SAPE   C3116951   0.790   0.854   6.617 -0.8376  0.7933  0.3532
  153SAPE   O3216952   0.745   0.947   6.682 -0.2054 -0.1410  0.1599
  153SAPE   C3216953   0.879   0.746   6.670 -0.1487  0.0025  0.0582
  153SAPE   H2X16954   0.941   0.704   6.588  2.0663  0.6252  1.3418
  153SAPE   H2Y16955   0.817   0.661   6.705 -0.7004 -0.1061 -1.1268
  153SAPE   C2316956   0.333   0.878   6.894  0.2210  0.9614 -0.3725
  153SAPE   H3R16957   0.254   0.809   6.858 -0.7401  1.6704  0.3566
  153SAPE   H3S16958   0.295   0.956   6.963 -1.3708 -0.6720  0.6863
  153SAPE   C2416959   0.441   0.787   6.957  0.5918 -0.3595  0.2606
  153SAPE   H4R16960   0.524   0.838   7.011  1.5576  1.3098 -2.5960
  153SAPE   H4S16961   0.489   0.727   6.877  1.0437 -0.1967  0.4044
  153SAPE   C2516962   0.386   0.674   7.049 -0.1379  0.0870 -0.4242
  153SAPE   H5R16963   0.344   0.586   6.998  0.8733 -1.2999  1.0610
  153SAPE   C2616964   0.370   0.690   7.182  0.5915 -0.2452  0.1639
  153SAPE   H6R16965   0.338   0.600   7.236 -0.4178  1.0147  1.7492
  153SAPE   C2716966   0.402   0.808   7.272  0.9499  0.3558  0.0904
  153SAPE   H7R16967   0.309   0.847   7.320  1.0141  1.1372 -0.3964
  153SAPE   H7S16968   0.433   0.894   7.209  0.4093  2.0028  1.9853
  153SAPE   C2816969   0.512   0.775   7.374  0.3456 -0.1348  0.9863
  153SAPE   H8R16970   0.609   0.820   7.350  0.7571 -2.2906 -1.9543
  153SAPE   C2916971   0.499   0.704   7.488 -0.3173  0.4593  0.0356
  153SAPE   H9R16972   0.585   0.692   7.556 -1.9727 -2.3658  1.8198
  153SAPE  C21016973   0.370   0.633   7.531  0.1223 -0.4261 -0.1137
  153SAPE  H10R16974   0.384   0.523   7.517 -1.7088 -0.8421  0.8802
  153SAPE  H10S16975   0.281   0.667   7.474 -0.7796  1.4025  2.2005
  153SAPE  C21116976   0.346   0.665   7.680  0.9830  0.2452  0.2963
  153SAPE  H11R16977   0.278   0.749   7.704 -1.3105 -2.2498  3.4874
  153SAPE  C21216978   0.411   0.599   7.777 -0.1501 -0.6674 -0.2197
  153SAPE  H12R16979   0.406   0.636   7.881 -1.6191  1.1507 -0.8963
  153SAPE  C21316980   0.508   0.485   7.757  0.0369  0.4174  0.2137
  153SAPE  H13R16981   0.605   0.527   7.791 -0.3083  0.7398  0.7958
  153SAPE  H13S16982   0.518   0.461   7.649 -0.5828 -0.9296  0.4316
  153SAPE  C21416983   0.466   0.353   7.818 -0.2335  0.4934  0.1077
  153SAPE  H14R16984   0.383   0.295   7.775  0.9243 -1.0126 -0.2036
  153SAPE  C21516985   0.531   0.291   7.918 -0.2948 -0.2276 -0.1094
  153SAPE  H15R16986   0.488   0.201   7.964  0.7323 -0.5283  0.3003
  153SAPE  C21616987   0.654   0.348   7.982  0.4208  0.0695  0.2549
  153SAPE  H16R16988   0.667   0.458   7.974 -2.2705  0.4827  0.6043
  153SAPE  H16S16989   0.745   0.314   7.927 -0.8822 -0.3618 -1.7310
  153SAPE  C21716990   0.676   0.317   8.134 -0.9518  0.5373 -0.7322
  153SAPE  H17R16991   0.607   0.363   8.207 -1.0420  0.2299 -0.6190
  153SAPE  H17S16992   0.772   0.371   8.148 -0.9911  0.9862 -2.0164
  153SAPE  C21816993   0.700   0.172   8.188 -0.5216  0.1714 -0.1007
  153SAPE  H18R16994   0.740   0.103   8.111 -0.0388 -2.6662  2.5174
  153SAPE  H18S16995   0.599   0.133   8.211 -0.5372  1.6372  2.7249
  153SAPE  C21916996   0.784   0.152   8.307 -0.2080  0.3146 -0.0624
  153SAPE  H19R16997   0.894   0.159   8.291 -0.4566  1.1516 -1.5819
  153SAPE  H19S16998   0.760   0.045   8.327  0.6482  0.0721 -0.2790
  153SAPE  C22016999   0.758   0.238   8.428  1.2951 -0.1991 -0.1892
  153SAPE  H20R17000   0.650   0.259   8.435  1.0178 -1.5840  0.0417
  153SAPE  H20S17001   0.813   0.334   8.434  0.9682 -0.0522  0.4660
  153SAPE  H20T17002   0.784   0.192   8.526 -2.5307 -4.5622 -0.8977
  153SAPE   C3317003   0.976   0.797   6.773  0.1275  0.1994 -0.5314
  153SAPE   H3X17004   0.922   0.832   6.863  1.0028  0.7843 -0.2218
  153SAPE   H3Y17005   1.041   0.881   6.742 -0.3150  1.1651  1.0537
  153SAPE   C3417006   1.075   0.689   6.829  0.0202  0.2326  0.5999
  153SAPE   H4X17007   1.126   0.736   6.915 -2.0775 -0.8079  2.5341
  153SAPE   H4Y17008   1.148   0.663   6.750  0.1132 -1.3149  1.1687
  153SAPE   C3517009   1.010   0.558   6.871  0.2640  0.6837  0.1682
  153SAPE   H5X17010   1.085   0.486   6.910  0.5802  0.5468 -0.6687
  153SAPE   H5Y17011   0.957   0.504   6.790  0.0066  0.1958  0.6523
  153SAPE   C3617012   0.914   0.583   6.996 -0.5473 -0.2751 -0.2246
  153SAPE   H6X17013   0.871   0.483   7.020  0.7858 -0.7225  0.4515
  153SAPE   H6Y17014   0.827   0.644   6.964 -0.1249 -1.2175 -3.5171
  153SAPE   C3717015   0.985   0.621   7.123 -0.4565 -0.1585 -0.2117
  153SAPE   H7X17016   1.049   0.709   7.105  0.7504 -1.1088 -0.7008
  153SAPE   H7Y17017   1.060   0.542   7.146  1.2819  1.3502 -0.5042
  153SAPE   C3817018   0.896   0.638   7.249 -0.0959 -0.3800 -0.3859
  153SAPE   H8X17019   0.821   0.557   7.263  0.1332 -0.3628  1.0947
  153SAPE   H8Y17020   0.830   0.726   7.238 -1.9868 -1.7014 -0.1491
  153SAPE   C3917021   0.982   0.653   7.373  0.4572 -0.1105  0.0101
  153SAPE   H9X17022   1.041   0.747   7.371 -2.4393  1.8299  0.4226
  153SAPE   H9Y17023   1.060   0.574   7.384  3.4835  2.8697  2.2030
  153SAPE  C31017024   0.902   0.656   7.504  0.1920  0.4534  0.6994
  153SAPE  H10X17025   0.849   0.562   7.527 -0.6990  0.3169 -1.6058
  153SAPE  H10Y17026   0.822   0.732   7.496 -0.3980 -0.3439 -2.0018
  153SAPE  C31117027   0.992   0.684   7.629 -0.3130  0.5205  0.2541
  153SAPE  H11X17028   1.032   0.788   7.618 -0.3085  0.8627  2.8953
  153SAPE  H11Y17029   1.074   0.609   7.624 -1.5109 -0.9961  2.1612
  153SAPE  C31217030   0.925   0.651   7.765 -0.4717 -0.5281 -0.3342
  153SAPE  H12X17031   0.867   0.562   7.733 -0.4832  0.2608 -2.6974
  153SAPE  H12Y17032   0.855   0.734   7.784 -0.3376 -0.4093 -0.3578
  153SAPE  C31317033   1.022   0.615   7.874  0.0238  0.0531 -0.3127
  153SAPE  H13X17034   1.082   0.708   7.891  0.4304 -0.1284 -0.7256
  153SAPE  H13Y17035   1.091   0.536   7.837 -0.3676  0.1236 -1.2098
  153SAPE  C31417036   0.959   0.571   8.011 -0.6342  0.3620  0.4016
  153SAPE  H14X17037   1.037   0.549   8.087 -0.5734 -0.0452  0.2198
  153SAPE  H14Y17038   0.902   0.477   8.002  1.3639 -1.2164  2.9345
  153SAPE  C31517039   0.879   0.680   8.083  0.6442  0.0288  0.0181
  153SAPE  H15X17040   0.772   0.650   8.086  0.4159  0.7593 -0.5831
  153SAPE  H15Y17041   0.875   0.775   8.027  0.4220  0.5172  0.8445
  153SAPE  C31617042   0.947   0.717   8.216  0.2848 -0.3489  0.4815
  153SAPE  H16X17043   0.903   0.812   8.255  0.4253 -0.3485  0.6391
  153SAPE  H16Y17044   1.056   0.729   8.199  0.2325  0.4601  0.6929
  153SAPE  C31717045   0.923   0.621   8.334 -0.4810  0.5731 -0.2020
  153SAPE  H17X17046   0.944   0.515   8.307 -0.4622  0.4960  0.1084
  153SAPE  H17Y17047   0.815   0.621   8.360 -0.6685 -3.0182 -0.4342
  153SAPE  C31817048   1.011   0.651   8.454 -0.9709  0.3364 -0.3219
  153SAPE  H18X17049   0.982   0.574   8.529 -0.2695 -0.6917 -1.0907
  153SAPE  H18Y17050   1.001   0.753   8.497  2.7900  1.0388 -0.7935
  153SAPE  H18Z17051   1.116   0.628   8.426 -0.3850 -0.9531  2.5472
  154SAPE     N17052   5.837   6.835   5.691  0.9148  0.0947  0.5444
  154SAPE   HN117053   5.904   6.814   5.614  3.5721  1.0904  2.4098
  154SAPE   HN217054   5.749   6.782   5.676  0.1402  2.0253 -2.5124
  154SAPE   HN317055   5.837   6.939   5.693  1.6091  0.0980  0.6941
  154SAPE   C1217056   5.906   6.793   5.824 -0.9735 -0.2531  0.8774
  154SAPE  H12A17057   5.849   6.848   5.902  0.3613  1.7779  0.5048
  154SAPE  H12B17058   6.012   6.823   5.810 -1.5101  1.1815 -0.5422
  154SAPE   C1117059   5.894   6.639   5.855  0.6191  0.2037 -0.0601
  154SAPE  H11A17060   5.938   6.619   5.955 -1.5999  1.4213  1.2161
  154SAPE  H11B17061   5.962   6.597   5.778  1.7859  0.2290  0.9260
  154SAPE     P17062   5.667   6.570   5.959  0.3789 -0.2909  0.4671
  154SAPE   O1317063   5.600   6.704   5.966  0.3632  0.3856 -0.1666
  154SAPE   O1417064   5.581   6.451   5.951 -0.3853 -0.4708 -0.5944
  154SAPE   O1217065   5.759   6.585   5.838 -0.4985 -0.1388  0.4377
  154SAPE   O1117066   5.765   6.554   6.079  0.0798 -0.4227  0.0244
  154SAPE    C117067   5.785   6.440   6.159 -0.4779  0.2720  0.8095
  154SAPE    HA17068   5.699   6.370   6.150 -0.1546 -0.1284  0.8231
  154SAPE    HB17069   5.861   6.379   6.105 -0.3565 -0.2280  1.5369
  154SAPE    C217070   5.831   6.466   6.309  0.1579  1.2312 -0.4493
  154SAPE    HS17071   5.870   6.367   6.340 -0.8125  1.3776  1.4525
  154SAPE   O2117072   5.718   6.508   6.388 -0.8580  0.2836 -0.4054
  154SAPE   C2117073   5.637   6.413   6.423 -0.2735  0.2706 -0.1930
  154SAPE   O2217074   5.645   6.295   6.396 -0.7513  0.3327 -0.4004
  154SAPE   C2217075   5.530   6.465   6.520 -0.5672 -0.9583 -0.1092
  154SAPE   H2R17076   5.458   6.520   6.456  2.9739  1.6581 -2.1713
  154SAPE   H2S17077   5.494   6.381   6.583 -0.0413  0.4700  2.2319
  154SAPE    C317078   5.958   6.559   6.321 -0.2983 -0.2143 -0.0789
  154SAPE    HX17079   5.948   6.652   6.261  0.8706 -0.9648 -1.4985
  154SAPE    HY17080   6.046   6.514   6.270  0.2676 -0.1412  0.8114
  154SAPE   O3117081   5.980   6.584   6.458  0.0892  0.4419 -0.0131
  154SAPE   C3117082   5.964   6.715   6.501  0.4536 -0.0377  0.1497
  154SAPE   O3217083   5.935   6.811   6.434 -0.1624  0.2749  0.4472
  154SAPE   C3217084   5.982   6.740   6.653 -0.5942  0.1474 -0.1033
  154SAPE   H2X17085   6.009   6.846   6.672 -0.5115 -0.0978  1.1997
  154SAPE   H2Y17086   6.076   6.693   6.690 -0.4465  1.7681  1.7155
  154SAPE   C2317087   5.589   6.569   6.620  0.5353 -0.0884 -0.6782
  154SAPE   H3R17088   5.663   6.634   6.568 -0.2397 -1.0327 -3.0752
  154SAPE   H3S17089   5.644   6.510   6.697  0.9793  0.8342 -0.2644
  154SAPE   C2417090   5.483   6.665   6.689 -0.2873  0.9726  0.3202
  154SAPE   H4R17091   5.422   6.707   6.606  0.0236  0.2920 -0.2720
  154SAPE   H4S17092   5.541   6.751   6.728  0.2555  0.9790 -0.4645
  154SAPE   C2517093   5.394   6.613   6.794 -0.8022  0.2161 -0.5290
  154SAPE   H5R17094   5.316   6.549   6.750 -1.1667 -0.7668  1.4405
  154SAPE   C2617095   5.401   6.646   6.923  0.6526  0.2994 -0.9365
  154SAPE   H6R17096   5.319   6.608   6.986  1.7921 -0.3420  0.2085
  154SAPE   C2717097   5.497   6.734   7.001 -0.0141 -0.4171  0.9092
  154SAPE   H7R17098   5.596   6.695   6.970  1.2818  4.7068 -2.7879
  154SAPE   H7S17099   5.478   6.712   7.108 -1.1490  1.2890  1.0998
  154SAPE   C2817100   5.494   6.886   6.973 -0.0380  0.5859 -0.0909
  154SAPE   H8R17101   5.534   6.926   6.879 -2.8053  2.1812 -0.6944
  154SAPE   C2917102   5.427   6.968   7.050 -0.1519 -0.1194  0.3941
  154SAPE   H9R17103   5.446   7.076   7.038 -0.7145  0.0177  0.6931
  154SAPE  C21017104   5.339   6.956   7.172 -0.0001  0.1673  0.6865
  154SAPE  H10R17105   5.345   7.045   7.237 -4.1187  1.6378 -0.6567
  154SAPE  H10S17106   5.369   6.870   7.236  0.2270  0.7731  1.4066
  154SAPE  C21117107   5.192   6.925   7.138 -0.2892  0.0120  0.2346
  154SAPE  H11R17108   5.159   6.972   7.044  2.0293 -1.4474 -1.4044
  154SAPE  C21217109   5.111   6.855   7.211  0.1670 -0.3362  0.2204
  154SAPE  H12R17110   5.007   6.853   7.175  0.2824  1.5321 -0.2995
  154SAPE  C21317111   5.144   6.784   7.333  0.0169 -0.1213  0.3819
  154SAPE  H13R17112   5.053   6.750   7.388  0.9981  2.0873  3.6413
  154SAPE  H13S17113   5.194   6.858   7.399  0.5779  2.7386 -2.9610
  154SAPE  C21417114   5.235   6.663   7.324 -0.0909 -0.6502 -0.2834
  154SAPE  H14R17115   5.291   6.666   7.230  0.4054  0.6969  0.0263
  154SAPE  C21517116   5.254   6.558   7.407 -0.2169 -0.3369  0.0301
  154SAPE  H15R17117   5.321   6.479   7.370 -1.8401 -0.8308 -2.0377
  154SAPE  C21617118   5.187   6.532   7.537  0.2421 -0.4430  0.3757
  154SAPE  H16R17119   5.122   6.442   7.525  1.9376 -1.3388 -4.3074
  154SAPE  H16S17120   5.118   6.615   7.562 -1.7551 -1.9072  0.0112
  154SAPE  C21717121   5.294   6.509   7.644 -0.5088  0.2590 -0.3478
  154SAPE  H17R17122   5.368   6.430   7.620 -0.5949 -0.4794  1.6177
  154SAPE  H17S17123   5.236   6.456   7.723 -0.1665 -2.3230 -1.7295
  154SAPE  C21817124   5.370   6.630   7.698  0.2084  0.7594 -0.0576
  154SAPE  H18R17125   5.312   6.681   7.779 -1.1633 -0.5255 -0.1725
  154SAPE  H18S17126   5.389   6.706   7.619  0.2375  0.9108  0.0944
  154SAPE  C21917127   5.511   6.605   7.750  0.1176 -0.0145  0.0021
  154SAPE  H19R17128   5.559   6.703   7.772  1.3107 -0.9887  2.0196
  154SAPE  H19S17129   5.570   6.554   7.672  0.3027 -1.5181  1.0763
  154SAPE  C22017130   5.512   6.514   7.876 -0.3396  0.1031  0.8884
  154SAPE  H20R17131   5.471   6.413   7.854 -1.3952  1.2009 -2.8711
  154SAPE  H20S17132   5.457   6.568   7.957 -1.1830 -0.2319  0.5504
  154SAPE  H20T17133   5.620   6.502   7.897 -0.5915 -1.3584  1.4561
  154SAPE   C3317134   5.876   6.673   6.740 -0.0062 -0.6578 -0.5797
  154SAPE   H3X17135   5.882   6.566   6.710  1.1785 -0.1639 -2.1808
  154SAPE   H3Y17136   5.774   6.714   6.722 -0.2576 -1.0248 -0.0437
  154SAPE   C3417137   5.885   6.675   6.887 -0.0226 -0.4322 -0.6152
  154SAPE   H4X17138   5.965   6.608   6.925 -1.6116 -0.9263  2.1232
  154SAPE   H4Y17139   5.796   6.624   6.928  1.2725 -1.4445  1.0767
  154SAPE   C3517140   5.897   6.810   6.946 -0.2323  0.2643 -0.7641
  154SAPE   H5X17141   5.819   6.880   6.910 -0.9847 -0.3851 -0.4037
  154SAPE   H5Y17142   6.001   6.841   6.922  2.0175 -2.4596  3.9247
  154SAPE   C3617143   5.883   6.805   7.103 -0.3504 -0.5311 -0.4555
  154SAPE   H6X17144   5.943   6.718   7.137  0.1067  0.7545  2.3813
  154SAPE   H6Y17145   5.777   6.783   7.125 -0.4483 -1.6134 -1.8788
  154SAPE   C3717146   5.941   6.923   7.171  0.2533  0.1688 -0.7936
  154SAPE   H7X17147   5.886   7.017   7.149  3.2770  2.3133  0.0423
  154SAPE   H7Y17148   6.049   6.940   7.151  0.7805 -1.2528  0.6328
  154SAPE   C3817149   5.946   6.904   7.327 -0.4678  0.6064 -0.1920
  154SAPE   H8X17150   6.002   6.991   7.365 -1.0493  0.7529  0.3355
  154SAPE   H8Y17151   6.016   6.824   7.361 -1.7104  0.7863  3.1525
  154SAPE   C3917152   5.816   6.897   7.403  0.1152  0.1034  0.9371
  154SAPE   H9X17153   5.818   6.851   7.504  0.0309 -0.5301  0.6582
  154SAPE   H9Y17154   5.751   6.824   7.350 -0.7865  1.4489  0.1379
  154SAPE  C31017155   5.741   7.031   7.413  0.5907 -0.1612 -0.5136
  154SAPE  H10X17156   5.705   7.065   7.314 -0.1230  1.7343  0.3527
  154SAPE  H10Y17157   5.808   7.102   7.466  1.5046 -2.2173  1.2238
  154SAPE  C31117158   5.610   7.006   7.492  0.0983  0.0119 -0.8135
  154SAPE  H11X17159   5.629   6.977   7.597 -0.8772 -0.0224 -0.6326
  154SAPE  H11Y17160   5.553   6.923   7.445  1.0846 -2.0144  1.3945
  154SAPE  C31217161   5.518   7.133   7.503 -0.4142  0.2293 -0.2531
  154SAPE  H12X17162   5.522   7.189   7.407 -2.1849  2.2120  0.7470
  154SAPE  H12Y17163   5.557   7.201   7.582 -0.1969 -0.9934  0.7244
  154SAPE  C31317164   5.376   7.102   7.536 -0.3963  0.2543 -0.3728
  154SAPE  H13X17165   5.331   7.044   7.453  0.3664  0.4547 -0.9370
  154SAPE  H13Y17166   5.323   7.199   7.547 -0.1055  0.1642  2.6323
  154SAPE  C31417167   5.343   7.029   7.663 -0.6826  0.5269  0.4563
  154SAPE  H14X17168   5.417   6.949   7.687 -0.7620 -0.6178 -2.6592
  154SAPE  H14Y17169   5.243   6.988   7.638 -1.2663  1.5267  1.0934
  154SAPE  C31517170   5.348   7.123   7.780 -0.6466  0.1466 -0.7521
  154SAPE  H15X17171   5.276   7.207   7.765  0.0070  0.9429  0.4711
  154SAPE  H15Y17172   5.453   7.157   7.793 -0.7857 -0.2913  2.4005
  154SAPE  C31617173   5.324   7.045   7.906 -0.0679  0.4037 -1.1288
  154SAPE  H16X17174   5.389   6.956   7.921  0.1304  0.4455 -1.7194
  154SAPE  H16Y17175   5.222   7.003   7.896  0.2169 -0.6528  0.0388
  154SAPE  C31717176   5.337   7.137   8.027  0.4513 -0.0626  0.3165
  154SAPE  H17X17177   5.262   7.219   8.023 -0.8996 -1.3140 -1.2737
  154SAPE  H17Y17178   5.439   7.181   8.031  0.6622 -0.5989  1.0696
  154SAPE  C31817179   5.331   7.050   8.150 -0.0318 -0.2746 -0.2409
  154SAPE  H18X17180   5.401   6.963   8.149  0.0584 -0.2576  1.4349
  154SAPE  H18Y17181   5.227   7.012   8.161 -0.5650  0.9352 -0.8823
  154SAPE  H18Z17182   5.356   7.108   8.242 -1.9873 -1.2420  0.9619
  155SAPE     N17183   5.865   0.590   6.527 -1.1444 -0.7136 -0.0478
  155SAPE   HN117184   5.937   0.527   6.485 -1.0436 -0.2459 -0.5849
  155SAPE   HN217185   5.909   0.655   6.595  0.4086 -1.6608 -0.0924
  155SAPE   HN317186   5.790   0.535   6.574  0.3794 -1.0945  2.0884
  155SAPE   C1217187   5.814   0.680   6.415 -0.1790  0.0563 -0.9328
  155SAPE  H12A17188   5.903   0.740   6.385  0.0696  0.2159  0.0973
  155SAPE  H12B17189   5.742   0.748   6.465  2.4743  1.4105  1.3691
  155SAPE   C1117190   5.772   0.593   6.298 -0.5016  0.6542  0.3234
  155SAPE  H11A17191   5.764   0.657   6.208 -0.7812 -1.7176 -1.4334
  155SAPE  H11B17192   5.673   0.552   6.328 -0.1810 -0.3102  0.0950
  155SAPE     P17193   6.005   0.522   6.206  0.1868  0.1594  0.1210
  155SAPE   O1317194   6.066   0.391   6.175  0.0542 -0.4792 -0.5025
  155SAPE   O1417195   5.992   0.628   6.106  0.1849 -0.3065 -0.0025
  155SAPE   O1217196   5.866   0.494   6.266  0.1069  0.2553  0.4507
  155SAPE   O1117197   6.070   0.579   6.339  0.0922 -0.4800  0.3274
  155SAPE    C117198   6.202   0.548   6.381 -0.6077  0.2942 -0.0729
  155SAPE    HA17199   6.230   0.440   6.374  0.1360  0.5148 -0.6115
  155SAPE    HB17200   6.279   0.581   6.309  0.0022  1.4461  1.0709
  155SAPE    C217201   6.247   0.612   6.517  0.4515 -1.0183 -0.2836
  155SAPE    HS17202   6.347   0.568   6.539  0.6314 -0.7811 -0.6133
  155SAPE   O2117203   6.149   0.580   6.610  0.7707  0.2087  0.3806
  155SAPE   C2117204   6.190   0.544   6.734 -0.1621  0.2029  0.9806
  155SAPE   O2217205   6.301   0.512   6.762  0.8398  0.0657 -0.0707
  155SAPE   C2217206   6.072   0.542   6.830 -0.2672  0.3268  0.1658
  155SAPE   H2R17207   6.120   0.544   6.930  0.2610  0.4106 -0.0819
  155SAPE   H2S17208   6.005   0.630   6.819 -0.6367  0.0595  0.2626
  155SAPE    C317209   6.270   0.763   6.507 -0.1856  0.8777  0.1056
  155SAPE    HX17210   6.199   0.781   6.423 -0.5832 -0.0746  0.2259
  155SAPE    HY17211   6.370   0.786   6.465  0.1425  1.7432  1.2891
  155SAPE   O3117212   6.249   0.836   6.630 -0.2366  0.7019 -0.5319
  155SAPE   C3117213   6.150   0.929   6.629  0.8322 -0.2804  0.5634
  155SAPE   O3217214   6.072   0.938   6.535 -0.1664 -0.8876 -0.5867
  155SAPE   C3217215   6.145   1.008   6.756 -0.5289 -0.1965 -0.8978
  155SAPE   H2X17216   6.049   1.059   6.733 -1.0227 -0.6912  0.0207
  155SAPE   H2Y17217   6.234   1.074   6.772 -0.2921 -0.9374  1.1384
  155SAPE   C2317218   5.987   0.412   6.818  0.2332 -0.2178 -0.3350
  155SAPE   H3R17219   6.065   0.332   6.820 -1.0008 -1.4986 -1.4289
  155SAPE   H3S17220   5.937   0.412   6.719  1.3848 -0.4822 -0.9449
  155SAPE   C2417221   5.876   0.386   6.932  0.1224  1.0424  0.2334
  155SAPE   H4R17222   5.930   0.366   7.027  0.8308  0.6492 -0.2411
  155SAPE   H4S17223   5.825   0.290   6.911  0.1719  0.7649  1.3009
  155SAPE   C2517224   5.785   0.499   6.951  0.6689  0.5202 -0.1522
  155SAPE   H5R17225   5.752   0.526   6.850  1.7631  0.6393 -0.4899
  155SAPE   C2617226   5.757   0.573   7.060  0.0820  0.1713  0.1732
  155SAPE   H6R17227   5.675   0.646   7.067 -1.3709 -1.4589  0.8347
  155SAPE   C2717228   5.819   0.538   7.202 -0.3874  0.0354 -0.6866
  155SAPE   H7R17229   5.864   0.436   7.208 -0.0503  0.2302  0.2015
  155SAPE   H7S17230   5.745   0.539   7.285  1.0220  1.4535  0.6014
  155SAPE   C2817231   5.951   0.622   7.218  0.6025  0.4602 -0.1179
  155SAPE   H8R17232   5.966   0.704   7.146  4.5340 -0.5250 -0.6572
  155SAPE   C2917233   6.040   0.620   7.323  0.2984 -0.0281 -0.0536
  155SAPE   H9R17234   6.134   0.675   7.314 -0.5715  1.4474 -0.3517
  155SAPE  C21017235   6.030   0.530   7.444  0.0473  0.7633 -0.5584
  155SAPE  H10R17236   6.114   0.457   7.439 -0.7345 -0.1768 -0.3115
  155SAPE  H10S17237   5.934   0.474   7.445  0.3905  0.1707 -0.2215
  155SAPE  C21117238   6.043   0.618   7.564  0.0802  0.0064  0.1194
  155SAPE  H11R17239   6.145   0.645   7.596 -0.0914 -0.0035  0.6908
  155SAPE  C21217240   5.940   0.673   7.632  0.3343  0.4139 -0.4620
  155SAPE  H12R17241   5.959   0.742   7.716 -1.0141  0.0255  0.1857
  155SAPE  C21317242   5.792   0.660   7.604 -0.1703 -0.5297 -0.0676
  155SAPE  H13R17243   5.765   0.629   7.501 -2.5736  0.7208  0.1007
  155SAPE  H13S17244   5.743   0.760   7.612 -0.2832 -0.5854 -0.0592
  155SAPE  C21417245   5.739   0.558   7.695 -0.1609  0.3998 -0.1498
  155SAPE  H14R17246   5.766   0.461   7.652 -2.5181 -0.2089 -0.3819
  155SAPE  C21517247   5.672   0.570   7.808  0.5768 -0.4434 -0.1631
  155SAPE  H15R17248   5.652   0.479   7.867 -0.5095  0.1571  0.4367
  155SAPE  C21617249   5.607   0.685   7.878  0.1559  0.4622  0.0489
  155SAPE  H16R17250   5.497   0.681   7.858  0.0886 -0.7725  0.5300
  155SAPE  H16S17251   5.631   0.785   7.837  0.7231  0.5899  0.6888
  155SAPE  C21717252   5.606   0.674   8.029 -0.1118  0.0905  0.6327
  155SAPE  H17R17253   5.544   0.586   8.056  0.3789 -1.1642 -2.0604
  155SAPE  H17S17254   5.546   0.760   8.064  0.4117  1.2753 -1.2207
  155SAPE  C21817255   5.737   0.697   8.099 -0.0981  1.1763 -0.8612
  155SAPE  H18R17256   5.769   0.803   8.094  0.2875  1.0289 -1.8517
  155SAPE  H18S17257   5.817   0.640   8.046  0.6212 -0.7750  2.0899
  155SAPE  C21917258   5.735   0.645   8.245  0.4198  0.5328  0.3637
  155SAPE  H19R17259   5.839   0.664   8.278  0.6576 -2.9309  2.0392
  155SAPE  H19S17260   5.736   0.534   8.252 -0.4660  0.4770 -0.2626
  155SAPE  C22017261   5.636   0.708   8.332  0.4524  0.3271 -0.8317
  155SAPE  H20R17262   5.649   0.818   8.337 -1.9149  0.6292  0.6420
  155SAPE  H20S17263   5.649   0.674   8.437 -0.7460  0.8128 -0.5030
  155SAPE  H20T17264   5.528   0.689   8.311  0.1011  1.4124 -0.0878
  155SAPE   C3317265   6.115   0.920   6.885  0.0922  0.2483  0.6347
  155SAPE   H3X17266   6.193   0.841   6.893 -0.4015 -0.3619 -0.3879
  155SAPE   H3Y17267   6.018   0.870   6.866 -0.1520  0.6596  0.7939
  155SAPE   C3417268   6.112   1.021   7.007 -0.9468 -0.0143  0.6205
  155SAPE   H4X17269   6.035   1.100   6.990  2.1190  2.6571 -2.5653
  155SAPE   H4Y17270   6.210   1.072   7.003 -1.7841  1.6213 -0.2286
  155SAPE   C3517271   6.087   0.947   7.136  0.6339 -0.2284  0.0224
  155SAPE   H5X17272   6.173   0.882   7.159  0.2746 -0.6839  0.0987
  155SAPE   H5Y17273   5.990   0.893   7.129 -0.1787  1.1773  0.0072
  155SAPE   C3617274   6.054   1.051   7.253 -0.0481  0.3231 -0.4954
  155SAPE   H6X17275   5.962   1.110   7.235  0.2701  0.9291 -0.1851
  155SAPE   H6Y17276   6.132   1.130   7.263  0.4726 -0.0584 -1.4298
  155SAPE   C3717277   6.035   0.990   7.395 -0.0372 -0.2938 -0.0089
  155SAPE   H7X17278   6.129   0.936   7.418 -0.7511 -1.4837  0.2093
  155SAPE   H7Y17279   5.952   0.917   7.409 -1.3444  1.2373  0.5964
  155SAPE   C3817280   6.014   1.106   7.497 -0.1772  0.7536  0.2536
  155SAPE   H8X17281   5.935   1.173   7.457 -0.3622  0.6954  0.5181
  155SAPE   H8Y17282   6.116   1.150   7.503 -1.0218  3.4034 -2.2237
  155SAPE   C3917283   5.979   1.063   7.641  0.8808  0.3000 -0.1939
  155SAPE   H9X17284   5.901   0.985   7.626  1.8537 -0.8681  0.6305
  155SAPE   H9Y17285   5.943   1.146   7.706 -1.8942 -0.5414 -0.5351
  155SAPE  C31017286   6.093   1.006   7.722 -0.3950  0.6065  0.0193
  155SAPE  H10X17287   6.171   1.084   7.715 -1.1967  1.3078 -1.5299
  155SAPE  H10Y17288   6.139   0.924   7.662  0.9675  2.6580 -1.8885
  155SAPE  C31117289   6.062   0.963   7.866  0.1932  0.1778 -0.0358
  155SAPE  H11X17290   5.969   0.905   7.886  0.3728  0.1572  0.7910
  155SAPE  H11Y17291   6.051   1.059   7.922  1.9381 -0.1056  0.8830
  155SAPE  C31217292   6.169   0.877   7.928  0.1501 -0.1270  0.6731
  155SAPE  H12X17293   6.258   0.940   7.952  1.3072 -1.1614 -0.7303
  155SAPE  H12Y17294   6.206   0.806   7.850  2.1260 -0.3315  1.7242
  155SAPE  C31317295   6.119   0.794   8.047 -0.4646  0.0817  0.2694
  155SAPE  H13X17296   6.199   0.720   8.066 -1.0753 -0.2459  1.6912
  155SAPE  H13Y17297   6.032   0.728   8.023 -0.8077  0.5776  0.1182
  155SAPE  C31417298   6.102   0.871   8.177  0.0167  0.6570 -0.3123
  155SAPE  H14X17299   6.006   0.927   8.178 -0.6210 -0.3978 -0.2845
  155SAPE  H14Y17300   6.182   0.948   8.181 -0.7918  1.6457 -2.0317
  155SAPE  C31517301   6.100   0.793   8.308 -0.4691  0.3432  0.1547
  155SAPE  H15X17302   6.204   0.756   8.320  0.9874  3.1389 -2.5333
  155SAPE  H15Y17303   6.047   0.695   8.318  3.4105 -1.9324  0.7338
  155SAPE  C31617304   6.071   0.873   8.436  0.4161 -0.7382  0.1252
  155SAPE  H16X17305   5.964   0.901   8.439  0.1626 -1.4629 -1.4164
  155SAPE  H16Y17306   6.129   0.966   8.416 -1.6022  0.5883  0.2366
  155SAPE  C31717307   6.110   0.796   8.568 -0.8472 -0.6644  0.0169
  155SAPE  H17X17308   6.086   0.847   8.664  0.5477  2.3482 -1.1166
  155SAPE  H17Y17309   6.220   0.788   8.557 -0.8431 -0.0970 -0.3838
  155SAPE  C31817310   6.038   0.664   8.576  0.0363 -0.2045 -0.2012
  155SAPE  H18X17311   5.941   0.699   8.537  0.9635  2.5722 -0.2435
  155SAPE  H18Y17312   6.040   0.626   8.680  2.4082 -2.6296 -1.0106
  155SAPE  H18Z17313   6.087   0.585   8.514  1.4933  0.1624  0.4466
  156SAPE     N17314   4.122   1.437   6.167  0.2274 -0.0861 -0.1649
  156SAPE   HN117315   4.152   1.475   6.075 -0.0863  0.3888 -0.0714
  156SAPE   HN217316   4.042   1.492   6.204  0.7648  0.2173  0.5523
  156SAPE   HN317317   4.204   1.428   6.230  2.0095  2.7938 -1.8790
  156SAPE   C1217318   4.075   1.292   6.152  0.8179 -0.0220 -0.8461
  156SAPE  H12A17319   4.154   1.243   6.091  0.6923 -2.0053  0.4843
  156SAPE  H12B17320   3.980   1.288   6.095 -0.0977  1.0952  0.5187
  156SAPE   C1117321   4.057   1.219   6.281  0.1483  0.5172  0.7292
  156SAPE  H11A17322   4.147   1.201   6.343 -0.9218  1.9519  2.8206
  156SAPE  H11B17323   4.024   1.115   6.259  3.0377 -0.2181 -0.7075
  156SAPE     P17324   3.816   1.256   6.360  0.3209  0.1750  0.2087
  156SAPE   O1317325   3.725   1.367   6.398  0.7574  0.0006 -0.5832
  156SAPE   O1417326   3.786   1.192   6.229 -0.2791  0.1066  0.3661
  156SAPE   O1217327   3.968   1.304   6.353  0.0328 -0.5850  0.2984
  156SAPE   O1117328   3.826   1.157   6.477  0.0840 -0.5387  0.5036
  156SAPE    C117329   3.779   1.199   6.610 -0.3484  0.0341  0.2331
  156SAPE    HA17330   3.674   1.234   6.607 -0.7669 -1.1417  0.7869
  156SAPE    HB17331   3.785   1.110   6.675  0.1658 -1.5972 -1.9100
  156SAPE    C217332   3.872   1.311   6.682 -0.1556  0.0947 -0.1522
  156SAPE    HS17333   3.875   1.411   6.635  1.4517  0.8452  1.4050
  156SAPE   O2117334   4.004   1.245   6.687 -0.3195 -0.3475  0.0784
  156SAPE   C2117335   4.120   1.312   6.697  0.0572 -0.2874 -0.5022
  156SAPE   O2217336   4.127   1.433   6.697  0.2679  0.2726 -0.0790
  156SAPE   C2217337   4.233   1.204   6.707  0.3130 -0.3351  0.2721
  156SAPE   H2R17338   4.212   1.137   6.621 -3.1740  0.6182  0.2298
  156SAPE   H2S17339   4.333   1.251   6.699 -0.0951  0.4064 -0.8617
  156SAPE    C317340   3.829   1.354   6.820  0.2916  0.7633 -0.3515
  156SAPE    HX17341   3.842   1.260   6.877  0.9304  1.4826  0.7302
  156SAPE    HY17342   3.722   1.380   6.808 -0.4388 -1.7387  0.2217
  156SAPE   O3117343   3.909   1.458   6.881  0.1500 -0.1653  0.2126
  156SAPE   C3117344   3.893   1.572   6.839 -0.5858 -0.2331 -0.0008
  156SAPE   O3217345   3.811   1.610   6.755  0.5693  0.5399 -0.5335
  156SAPE   C3217346   4.012   1.658   6.896  0.3200 -0.0385 -0.6596
  156SAPE   H2X17347   4.102   1.615   6.847 -0.0325 -2.5360  0.7034
  156SAPE   H2Y17348   4.013   1.624   7.002  0.2049  0.9583 -0.3333
  156SAPE   C2317349   4.230   1.131   6.839 -0.2718 -0.0614 -0.2805
  156SAPE   H3R17350   4.291   1.040   6.829 -0.1507 -0.4639  2.9650
  156SAPE   H3S17351   4.129   1.104   6.877 -0.0228  0.0103  0.4575
  156SAPE   C2417352   4.302   1.199   6.964  0.9607  0.3235 -0.3217
  156SAPE   H4R17353   4.410   1.219   6.946  1.0213 -0.2545 -0.6266
  156SAPE   H4S17354   4.299   1.130   7.051 -4.5293  0.5893  0.0167
  156SAPE   C2517355   4.226   1.323   7.015  0.6664 -0.7220  0.0567
  156SAPE   H5R17356   4.236   1.397   6.934 -0.2332 -1.0719 -0.3860
  156SAPE   C2617357   4.158   1.337   7.133 -0.5751 -0.7493 -0.5981
  156SAPE   H6R17358   4.108   1.434   7.148 -1.3585 -0.6349 -3.4903
  156SAPE   C2717359   4.133   1.234   7.243 -0.1241  0.4054 -1.1885
  156SAPE   H7R17360   4.091   1.272   7.338  0.0478 -2.7471  0.2731
  156SAPE   H7S17361   4.232   1.199   7.279 -0.8133  1.1167  1.6182
  156SAPE   C2817362   4.071   1.105   7.207  0.3172 -0.0267 -0.1836
  156SAPE   H8R17363   4.035   1.098   7.104  0.0466  0.7747 -0.1448
  156SAPE   C2917364   4.035   1.006   7.294  0.6129  0.0582 -0.1980
  156SAPE   H9R17365   3.961   0.930   7.269 -0.5421  1.2944 -0.6391
  156SAPE  C21017366   4.055   1.030   7.446  0.0559 -0.3296 -0.2822
  156SAPE  H10R17367   3.955   1.043   7.493 -0.1219 -1.6060 -0.2762
  156SAPE  H10S17368   4.122   1.115   7.471 -1.6959  1.6940 -2.0988
  156SAPE  C21117369   4.106   0.906   7.520  0.3584  0.1999 -0.0933
  156SAPE  H11R17370   4.111   0.816   7.456 -1.8026  1.1603 -1.7663
  156SAPE  C21217371   4.151   0.908   7.642 -0.6126 -0.6156 -0.1828
  156SAPE  H12R17372   4.205   0.820   7.678  2.0181  0.7851 -0.4884
  156SAPE  C21317373   4.141   1.024   7.742 -0.3861  0.4533  0.3431
  156SAPE  H13R17374   4.119   0.982   7.843 -2.8559 -1.3776 -0.8695
  156SAPE  H13S17375   4.060   1.097   7.719 -1.0295  0.1740  1.6349
  156SAPE  C21417376   4.277   1.096   7.755 -0.1629  0.2511  0.1139
  156SAPE  H14R17377   4.302   1.178   7.686  0.4591 -1.7063 -2.1138
  156SAPE  C21517378   4.374   1.085   7.852  0.5622  0.6473  0.3358
  156SAPE  H15R17379   4.460   1.152   7.838  0.2743  0.8744 -0.4452
  156SAPE  C21617380   4.372   0.985   7.963 -0.1695 -0.0249 -0.6593
  156SAPE  H16R17381   4.461   0.919   7.967 -0.5880 -0.5302  1.0061
  156SAPE  H16S17382   4.289   0.911   7.955  0.3413 -0.4985 -1.8273
  156SAPE  C21717383   4.369   1.066   8.096 -0.1594  0.6596  0.1161
  156SAPE  H17R17384   4.280   1.133   8.092 -1.4049 -0.8482  1.3655
  156SAPE  H17S17385   4.457   1.134   8.106  2.0249 -2.1735  1.3998
  156SAPE  C21817386   4.372   0.978   8.216  0.1356  0.2370  0.7031
  156SAPE  H18R17387   4.464   0.917   8.229  0.1694  0.2091  0.3406
  156SAPE  H18S17388   4.284   0.911   8.214  0.3330 -0.0185 -1.4828
  156SAPE  C21917389   4.368   1.070   8.341 -0.9288 -1.2291  0.2349
  156SAPE  H19R17390   4.438   1.157   8.338  0.5233 -2.4004 -1.0582
  156SAPE  H19S17391   4.408   1.009   8.424  1.2867 -2.0992 -1.4016
  156SAPE  C22017392   4.225   1.111   8.377  0.0336  0.8797 -0.4528
  156SAPE  H20R17393   4.148   1.083   8.302 -0.2249 -1.7318  0.6874
  156SAPE  H20S17394   4.214   1.218   8.406 -0.6036 -0.0042  3.0037
  156SAPE  H20T17395   4.213   1.047   8.466  2.6625  0.7188 -0.1149
  156SAPE   C3317396   4.017   1.807   6.870 -0.5289 -0.0592 -0.0755
  156SAPE   H3X17397   3.934   1.863   6.917  1.1575  0.2321  2.7676
  156SAPE   H3Y17398   4.013   1.819   6.759  2.5685 -1.9431 -0.5248
  156SAPE   C3417399   4.140   1.872   6.940  0.2049  0.5606  0.0427
  156SAPE   H4X17400   4.161   1.967   6.887  2.8329  0.4732  0.8289
  156SAPE   H4Y17401   4.222   1.799   6.922  0.6387  1.0373  0.0890
  156SAPE   C3517402   4.132   1.903   7.091 -0.2821  0.5738  0.2814
  156SAPE   H5X17403   4.149   1.812   7.153  1.0950  0.8098  0.3000
  156SAPE   H5Y17404   4.034   1.945   7.120  0.4396  2.3022  0.3274
  156SAPE   C3617405   4.242   2.008   7.131  0.1700  0.7786  0.5132
  156SAPE   H6X17406   4.215   2.097   7.070  1.9089 -1.2364 -3.5378
  156SAPE   H6Y17407   4.342   1.960   7.124 -0.5560 -1.2306  2.6133
  156SAPE   C3717408   4.234   2.047   7.276  0.6886 -0.2337  0.3950
  156SAPE   H7X17409   4.276   1.962   7.333  1.1354 -0.0155  0.3950
  156SAPE   H7Y17410   4.129   2.063   7.307  0.2749 -0.4512 -0.8345
  156SAPE   C3817411   4.299   2.181   7.308 -0.6330 -0.0741 -0.0863
  156SAPE   H8X17412   4.284   2.243   7.217  1.1529 -1.4207 -1.3702
  156SAPE   H8Y17413   4.406   2.154   7.316 -1.1989 -2.3989  0.2403
  156SAPE   C3917414   4.255   2.236   7.438 -0.1364  0.3523 -0.3139
  156SAPE   H9X17415   4.283   2.163   7.518  0.1686 -2.0659 -2.4795
  156SAPE   H9Y17416   4.144   2.240   7.435 -0.1201  0.2795 -2.3463
  156SAPE  C31017417   4.288   2.382   7.470  0.4341  0.7344  0.4063
  156SAPE  H10X17418   4.233   2.445   7.396 -1.3778 -0.1179  0.9584
  156SAPE  H10Y17419   4.397   2.402   7.467  0.9417 -1.6961  0.4160
  156SAPE  C31117420   4.234   2.404   7.605 -0.3594 -0.0449 -0.0557
  156SAPE  H11X17421   4.147   2.338   7.630  0.5095 -1.1400  0.1546
  156SAPE  H11Y17422   4.203   2.509   7.622  0.9284 -0.1119  3.7826
  156SAPE  C31217423   4.347   2.379   7.711  0.2773 -0.2508  0.6416
  156SAPE  H12X17424   4.424   2.457   7.697 -1.2566  1.4912  1.5614
  156SAPE  H12Y17425   4.382   2.274   7.698 -0.4549 -0.4701  0.4054
  156SAPE  C31317426   4.299   2.419   7.859 -0.1131  0.2003  0.0041
  156SAPE  H13X17427   4.258   2.522   7.867 -3.0979 -1.0195  2.6871
  156SAPE  H13Y17428   4.388   2.426   7.926 -1.2881  1.7977  1.4913
  156SAPE  C31417429   4.193   2.321   7.915 -0.5422  0.5944 -0.0833
  156SAPE  H14X17430   4.103   2.298   7.854  1.3203 -1.0969 -2.4018
  156SAPE  H14Y17431   4.156   2.383   7.999 -0.6798 -0.0458  0.3354
  156SAPE  C31517432   4.259   2.195   7.966  0.0623  0.3417  0.1426
  156SAPE  H15X17433   4.362   2.218   8.000  0.5767 -0.2317 -0.9785
  156SAPE  H15Y17434   4.270   2.129   7.877 -2.2257 -0.9326  0.7182
  156SAPE  C31617435   4.199   2.128   8.088 -0.0722  0.0004 -0.9087
  156SAPE  H16X17436   4.102   2.083   8.060 -0.6988 -1.3708  2.9128
  156SAPE  H16Y17437   4.179   2.208   8.162  1.3513 -0.5416  0.1222
  156SAPE  C31717438   4.284   2.018   8.150  0.0590 -0.0917  0.6290
  156SAPE  H17X17439   4.388   2.048   8.174 -0.6322  0.1905  3.5657
  156SAPE  H17Y17440   4.283   1.937   8.074  2.4533  0.4945 -0.1262
  156SAPE  C31817441   4.235   1.954   8.283 -0.2343  0.0752 -0.4804
  156SAPE  H18X17442   4.229   2.030   8.363  0.5165 -0.2350 -0.1177
  156SAPE  H18Y17443   4.303   1.872   8.316  0.3870 -0.0702 -2.0087
  156SAPE  H18Z17444   4.132   1.914   8.270  0.1905 -0.5248 -2.2713
  157SAPE     N17445   3.543   2.590   6.333  0.3777  0.0944  0.1826
  157SAPE   HN117446   3.544   2.692   6.314 -1.3554 -0.0220 -0.7041
  157SAPE   HN217447   3.642   2.560   6.318 -0.1841 -2.7633  1.4345
  157SAPE   HN317448   3.477   2.526   6.284  0.9089 -0.5601  0.2949
  157SAPE   C1217449   3.530   2.574   6.479  0.5699 -0.1900 -0.0149
  157SAPE  H12A17450   3.613   2.625   6.532 -0.5389  1.8172 -0.1185
  157SAPE  H12B17451   3.533   2.466   6.503  2.5075  0.1976  1.8246
  157SAPE   C1117452   3.400   2.635   6.533 -0.8036 -0.6328 -0.5323
  157SAPE  H11A17453   3.413   2.744   6.553 -0.7228 -0.9505  1.2874
  157SAPE  H11B17454   3.382   2.589   6.632  0.3667  1.0001  0.4805
  157SAPE     P17455   3.171   2.707   6.451  0.2044  0.3498  0.4716
  157SAPE   O1317456   3.182   2.792   6.327  0.4982  0.1328  0.1005
  157SAPE   O1417457   3.044   2.633   6.475  0.3019 -0.5655 -0.3680
  157SAPE   O1217458   3.295   2.606   6.449 -0.3281 -0.5113  0.2871
  157SAPE   O1117459   3.192   2.794   6.584  0.1093 -0.3137 -0.2565
  157SAPE    C117460   3.135   2.767   6.714 -0.3258 -0.0170 -0.0613
  157SAPE    HA17461   3.024   2.767   6.710 -0.3438  0.3438  0.3359
  157SAPE    HB17462   3.160   2.663   6.746 -1.1748  0.3029  1.8190
  157SAPE    C217463   3.196   2.851   6.830 -0.3417 -0.0484 -0.6012
  157SAPE    HS17464   3.135   2.944   6.830 -1.5178 -0.6458  3.2859
  157SAPE   O2117465   3.339   2.867   6.810 -0.0197  0.1853  0.0124
  157SAPE   C2117466   3.394   2.971   6.875 -0.2146  0.5751  0.2003
  157SAPE   O2217467   3.330   3.059   6.928 -0.3687 -0.1703  0.1267
  157SAPE   C2217468   3.545   2.971   6.846  0.7389 -0.3186 -0.4301
  157SAPE   H2R17469   3.580   2.877   6.798 -0.7821 -1.1442  0.0219
  157SAPE   H2S17470   3.555   3.025   6.749 -1.2136 -1.9498 -1.6106
  157SAPE    C317471   3.178   2.778   6.966  0.6480  0.8595 -0.0437
  157SAPE    HX17472   3.224   2.846   7.040  1.0692  3.9929 -2.9617
  157SAPE    HY17473   3.248   2.692   6.963  1.5335  1.4397  2.2239
  157SAPE   O3117474   3.047   2.729   7.003 -0.1939  0.0723  0.0175
  157SAPE   C3117475   2.961   2.820   7.056 -0.2916 -0.7134 -0.3787
  157SAPE   O3217476   2.984   2.941   7.070 -0.4911  0.1517 -1.0048
  157SAPE   C3217477   2.833   2.755   7.092 -0.1165 -0.0856  0.2843
  157SAPE   H2X17478   2.808   2.686   7.009 -3.1799  0.0677  0.9814
  157SAPE   H2Y17479   2.761   2.838   7.108  0.7282  0.7962 -0.3928
  157SAPE   C2317480   3.641   3.008   6.963 -0.4040 -0.1797 -0.3151
  157SAPE   H3R17481   3.605   3.090   7.029  0.8491  1.7992 -1.9770
  157SAPE   H3S17482   3.720   3.068   6.913  0.0717  2.2159  2.9386
  157SAPE   C2417483   3.680   2.880   7.044  0.0479 -0.0208 -0.3136
  157SAPE   H4R17484   3.715   2.800   6.976  0.8346  0.2630 -0.2610
  157SAPE   H4S17485   3.581   2.856   7.087  0.0161  1.7861  0.7295
  157SAPE   C2517486   3.784   2.894   7.150 -0.3831  0.0110  0.0989
  157SAPE   H5R17487   3.843   2.984   7.131  0.9155 -0.7196  0.5567
  157SAPE   C2617488   3.810   2.802   7.246 -0.4227  0.4049 -0.8583
  157SAPE   H6R17489   3.891   2.829   7.316  0.0984  0.5205 -1.4953
  157SAPE   C2717490   3.732   2.682   7.269  0.0730  0.1334  0.5003
  157SAPE   H7R17491   3.699   2.645   7.169 -0.0723  0.3747  0.4589
  157SAPE   H7S17492   3.651   2.711   7.340  1.1212  2.8186  0.6963
  157SAPE   C2817493   3.821   2.577   7.324 -0.4607  0.6613  0.2955
  157SAPE   H8R17494   3.894   2.547   7.247  0.8659  1.0858  1.3614
  157SAPE   C2917495   3.833   2.529   7.447 -0.1362  0.1510 -0.2611
  157SAPE   H9R17496   3.914   2.457   7.464  2.3352  2.5487 -1.0148
  157SAPE  C21017497   3.752   2.586   7.559 -0.1707 -0.4424 -0.1692
  157SAPE  H10R17498   3.668   2.515   7.570 -0.1940 -0.3004  0.6088
  157SAPE  H10S17499   3.701   2.685   7.556  1.6200  0.5090 -1.4648
  157SAPE  C21117500   3.840   2.570   7.685 -0.3810  0.8050 -0.3436
  157SAPE  H11R17501   3.902   2.659   7.703 -0.5530  0.4677  2.3897
  157SAPE  C21217502   3.840   2.473   7.775  0.1812 -0.2293  0.5818
  157SAPE  H12R17503   3.918   2.481   7.853  3.0272  0.6066 -2.1302
  157SAPE  C21317504   3.757   2.347   7.768  0.0949  0.6149  0.3774
  157SAPE  H13R17505   3.745   2.317   7.661 -0.6158 -1.1983  0.9427
  157SAPE  H13S17506   3.660   2.346   7.822 -1.2251  0.4195 -1.8592
  157SAPE  C21417507   3.837   2.230   7.813 -0.0436  0.1270  0.1092
  157SAPE  H14R17508   3.911   2.202   7.737  0.1671  3.3528 -1.0396
  157SAPE  C21517509   3.822   2.169   7.935  0.0139 -0.0210 -0.3513
  157SAPE  H15R17510   3.886   2.082   7.957  0.6820  0.8685  1.3637
  157SAPE  C21617511   3.728   2.205   8.048 -0.5420  1.2216 -0.1008
  157SAPE  H16R17512   3.677   2.114   8.084  0.9313  0.6751  0.6832
  157SAPE  H16S17513   3.663   2.290   8.017 -1.5127 -0.4707 -3.1649
  157SAPE  C21717514   3.822   2.239   8.171 -0.3404  0.0226 -0.4848
  157SAPE  H17R17515   3.909   2.172   8.188  1.2978  2.7620  3.2775
  157SAPE  H17S17516   3.755   2.238   8.260  1.1709  0.6601  0.6959
  157SAPE  C21817517   3.860   2.390   8.167 -0.2948  0.2445 -0.2272
  157SAPE  H18R17518   3.763   2.443   8.161  0.0680  0.9390 -0.0404
  157SAPE  H18S17519   3.929   2.415   8.083 -0.5479  1.2080 -0.1514
  157SAPE  C21917520   3.935   2.435   8.286 -0.4307  0.5217 -0.0415
  157SAPE  H19R17521   4.021   2.370   8.313 -0.0788  1.3299  0.8249
  157SAPE  H19S17522   3.871   2.423   8.376  0.6023  0.3572  0.6944
  157SAPE  C22017523   3.989   2.580   8.271 -0.2615  0.4793 -0.2448
  157SAPE  H20R17524   4.050   2.593   8.179 -1.9264 -1.5643 -1.7715
  157SAPE  H20S17525   4.063   2.608   8.349 -0.1055  0.5051 -0.4024
  157SAPE  H20T17526   3.904   2.651   8.262 -0.9789 -0.4487 -1.0431
  157SAPE   C3317527   2.846   2.675   7.225 -0.6499  0.2387 -0.4499
  157SAPE   H3X17528   2.927   2.601   7.206 -0.4635  0.4882 -0.6217
  157SAPE   H3Y17529   2.755   2.612   7.233 -0.0812 -0.6825 -0.9446
  157SAPE   C3417530   2.878   2.757   7.349  0.5893 -0.7229 -0.3862
  157SAPE   H4X17531   2.790   2.823   7.365  0.1221 -1.8119  1.9597
  157SAPE   H4Y17532   2.963   2.829   7.339  0.5134 -0.6975 -0.8378
  157SAPE   C3517533   2.896   2.666   7.477  0.4235 -0.0543  0.2404
  157SAPE   H5X17534   2.990   2.612   7.453 -0.0766  0.3791 -3.3259
  157SAPE   H5Y17535   2.813   2.593   7.484  0.6717 -0.2698  0.9758
  157SAPE   C3617536   2.894   2.743   7.610 -1.1806 -0.0995  0.3252
  157SAPE   H6X17537   2.797   2.782   7.647 -0.3328  1.7892  0.6514
  157SAPE   H6Y17538   2.959   2.829   7.587  0.0509 -0.9905  0.3594
  157SAPE   C3717539   2.955   2.675   7.731 -0.3882 -0.3448 -0.0695
  157SAPE   H7X17540   3.059   2.644   7.705 -0.6286 -1.7045  0.5105
  157SAPE   H7Y17541   2.897   2.584   7.758 -1.1601  0.5701  1.5284
  157SAPE   C3817542   2.965   2.774   7.851 -0.1855  0.0755 -0.1384
  157SAPE   H8X17543   2.861   2.812   7.862 -0.3278  0.5236 -2.5525
  157SAPE   H8Y17544   3.032   2.855   7.816  1.7442 -1.6354 -0.5436
  157SAPE   C3917545   3.021   2.700   7.974 -0.1818 -0.1984 -0.9424
  157SAPE   H9X17546   3.109   2.637   7.950 -0.9569 -0.9073 -1.9783
  157SAPE   H9Y17547   2.947   2.620   7.990 -1.3822  1.2243  1.1613
  157SAPE  C31017548   3.045   2.783   8.097 -0.6221  0.3184 -0.7173
  157SAPE  H10X17549   2.962   2.854   8.121  1.1776  2.5272 -0.6926
  157SAPE  H10Y17550   3.141   2.838   8.095  0.0798 -0.8911 -1.5321
  157SAPE  C31117551   3.060   2.684   8.213  0.2380  0.3968 -1.2377
  157SAPE  H11X17552   3.153   2.623   8.213 -0.8443 -1.3267 -0.9342
  157SAPE  H11Y17553   2.978   2.609   8.221  1.4771 -0.8148  1.6201
  157SAPE  C31217554   3.075   2.763   8.345  0.6976  0.3062  0.2930
  157SAPE  H12X17555   3.125   2.857   8.313 -1.3286  0.8158 -1.5887
  157SAPE  H12Y17556   3.145   2.710   8.414  1.9987 -1.9958 -2.5484
  157SAPE  C31317557   2.935   2.783   8.419 -0.2726  0.2224  0.3370
  157SAPE  H13X17558   2.895   2.682   8.444 -1.2993  0.8820  1.4999
  157SAPE  H13Y17559   2.867   2.835   8.348 -0.5605 -1.1126 -0.3933
  157SAPE  C31417560   2.941   2.861   8.552 -0.4555 -0.1189  0.6569
  157SAPE  H14X17561   2.867   2.943   8.542  2.5408  2.5113 -2.6761
  157SAPE  H14Y17562   3.045   2.898   8.563 -0.6191 -0.2378  3.0032
  157SAPE  C31517563   2.922   2.761   8.669 -0.0642 -0.0445 -0.0659
  157SAPE  H15X17564   3.012   2.695   8.669 -0.4051 -0.5396 -0.9873
  157SAPE  H15Y17565   2.827   2.707   8.649 -0.2299 -1.0863  2.9601
  157SAPE  C31617566   2.923   2.838   8.795  0.4180 -0.0037 -0.1112
  157SAPE  H16X17567   2.859   2.929   8.788  0.4055  0.0285  0.3892
  157SAPE  H16Y17568   3.027   2.876   8.812  1.0585 -2.4496  2.1240
  157SAPE  C31717569   2.898   2.747   8.916  0.2540  0.2557  0.4332
  157SAPE  H17X17570   2.976   2.668   8.907  1.1074  1.1350 -0.0117
  157SAPE  H17Y17571   2.799   2.697   8.906  0.3004 -0.0122  1.2084
  157SAPE  C31817572   2.928   2.805   9.047  0.1697  0.2861 -0.3771
  157SAPE  H18X17573   2.855   2.887   9.064  1.1686  1.0695  0.2884
  157SAPE  H18Y17574   3.028   2.854   9.039 -0.0981  1.0316  0.6401
  157SAPE  H18Z17575   2.935   2.735   9.134 -0.1388  2.9504  1.9531
  158SAPE     N17576   3.306   0.346   6.395  0.1760 -0.5700  0.7180
  158SAPE   HN117577   3.270   0.326   6.490 -3.7175  0.1757 -0.3947
  158SAPE   HN217578   3.313   0.252   6.352 -2.3503 -0.0882 -0.9767
  158SAPE   HN317579   3.402   0.383   6.407  0.3293  0.0270 -1.8226
  158SAPE   C1217580   3.219   0.449   6.338  0.5515 -0.3452 -0.2959
  158SAPE  H12A17581   3.110   0.429   6.350  0.3411 -0.2140 -1.7791
  158SAPE  H12B17582   3.251   0.470   6.234 -0.8138 -0.5331 -0.7805
  158SAPE   C1117583   3.230   0.586   6.415 -1.2266  0.3496  0.8148
  158SAPE  H11A17584   3.214   0.571   6.524 -2.3879  0.2353  0.6488
  158SAPE  H11B17585   3.144   0.653   6.392 -0.0645  1.7852  0.5444
  158SAPE     P17586   3.491   0.646   6.457  0.2930 -0.2604  0.5020
  158SAPE   O1317587   3.545   0.507   6.428 -0.3500 -0.3329 -0.1281
  158SAPE   O1417588   3.577   0.758   6.422  0.1998 -0.4626  0.3976
  158SAPE   O1217589   3.348   0.668   6.394  0.7392 -0.1972 -0.0571
  158SAPE   O1117590   3.463   0.661   6.609 -0.0540 -0.2816 -0.5540
  158SAPE    C117591   3.412   0.785   6.660  0.5743  0.0778  0.2653
  158SAPE    HA17592   3.417   0.879   6.601 -0.0329  1.3147  2.0905
  158SAPE    HB17593   3.303   0.785   6.683  0.3375  0.6074 -0.7835
  158SAPE    C217594   3.487   0.821   6.788 -0.1691  0.0738  0.4354
  158SAPE    HS17595   3.582   0.864   6.749 -0.6491  0.5506 -0.2280
  158SAPE   O2117596   3.512   0.707   6.869  0.1178  0.4004  0.6582
  158SAPE   C2117597   3.629   0.687   6.919 -0.4617 -0.3751 -0.4145
  158SAPE   O2217598   3.734   0.743   6.891  0.6430 -0.2890  0.3117
  158SAPE   C2217599   3.622   0.558   6.996 -0.4624  0.3017 -0.3130
  158SAPE   H2R17600   3.571   0.485   6.930 -0.9381 -0.0318  0.4078
  158SAPE   H2S17601   3.725   0.519   7.007 -0.7981 -0.1653  1.4333
  158SAPE    C317602   3.425   0.940   6.871  0.0543  0.0981  0.1488
  158SAPE    HX17603   3.327   0.902   6.906  1.0176 -1.6554  1.0822
  158SAPE    HY17604   3.413   1.033   6.813  1.8138  2.3701  3.1613
  158SAPE   O3117605   3.503   0.954   6.994  0.8599 -0.4565  0.1072
  158SAPE   C3117606   3.579   1.063   6.989 -0.0403  0.3527  0.1475
  158SAPE   O3217607   3.586   1.135   6.892  0.1173 -0.1724  0.4771
  158SAPE   C3217608   3.659   1.082   7.115  0.0888  0.0213  0.0657
  158SAPE   H2X17609   3.715   1.179   7.110  0.6419 -0.3574 -1.7116
  158SAPE   H2Y17610   3.735   1.001   7.118 -1.5368 -1.6285 -1.3534
  158SAPE   C2317611   3.564   0.579   7.136 -0.4708 -0.5149  1.3303
  158SAPE   H3R17612   3.543   0.478   7.177  0.1190 -1.4885 -0.6906
  158SAPE   H3S17613   3.467   0.633   7.134 -0.3716 -0.3606 -0.1242
  158SAPE   C2417614   3.652   0.655   7.241  0.3458 -0.3548 -0.2394
  158SAPE   H4R17615   3.594   0.656   7.336  1.4849 -0.4419  0.4724
  158SAPE   H4S17616   3.642   0.760   7.206  0.0987 -0.7537 -1.4071
  158SAPE   C2517617   3.796   0.615   7.244  0.1580 -0.3870 -0.4584
  158SAPE   H5R17618   3.857   0.637   7.155  0.6337 -1.7536 -0.5005
  158SAPE   C2617619   3.862   0.555   7.348 -0.1507 -0.3352 -0.0745
  158SAPE   H6R17620   3.968   0.527   7.342  0.0659 -0.4057  2.7859
  158SAPE   C2717621   3.798   0.511   7.478 -0.9649  0.1311 -0.4328
  158SAPE   H7R17622   3.822   0.407   7.506  2.1042  0.6302 -0.8698
  158SAPE   H7S17623   3.687   0.510   7.476 -1.0121 -0.5708  1.0163
  158SAPE   C2817624   3.833   0.614   7.587  0.3567  0.0238 -0.1249
  158SAPE   H8R17625   3.769   0.703   7.588 -3.3366 -2.3761  0.7049
  158SAPE   C2917626   3.936   0.607   7.672 -1.1782 -0.0053  0.5436
  158SAPE   H9R17627   3.939   0.680   7.754 -0.7999 -2.8244  3.2243
  158SAPE  C21017628   4.036   0.492   7.669 -0.1895 -0.4840 -0.4873
  158SAPE  H10R17629   4.033   0.430   7.577 -2.5752 -0.2193 -0.6540
  158SAPE  H10S17630   3.999   0.433   7.755 -0.1539  1.5903  1.0438
  158SAPE  C21117631   4.179   0.540   7.694 -0.0951 -0.3692  0.4420
  158SAPE  H11R17632   4.252   0.534   7.611 -0.7971 -1.6975 -0.1125
  158SAPE  C21217633   4.230   0.588   7.812  0.0324 -0.0894 -0.0209
  158SAPE  H12R17634   4.335   0.616   7.826 -0.4183  0.1629  3.5747
  158SAPE  C21317635   4.164   0.599   7.944 -0.6714  0.5836 -0.0771
  158SAPE  H13R17636   4.053   0.600   7.937 -0.6686 -0.3120 -0.3355
  158SAPE  H13S17637   4.194   0.693   7.995  1.2604 -1.0621  1.9608
  158SAPE  C21417638   4.211   0.483   8.034  0.1636 -0.4907  0.1468
  158SAPE  H14R17639   4.202   0.382   7.990  0.0530 -0.7507  0.7604
  158SAPE  C21517640   4.258   0.498   8.159 -0.6203 -0.1731  0.8926
  158SAPE  H15R17641   4.282   0.405   8.214  1.9796  0.4970  1.0008
  158SAPE  C21617642   4.281   0.613   8.249 -0.0945  0.0618 -0.1392
  158SAPE  H16R17643   4.272   0.714   8.203  1.7425 -0.0132 -0.7627
  158SAPE  H16S17644   4.382   0.617   8.297 -1.1407  1.2487  2.1573
  158SAPE  C21717645   4.180   0.642   8.373 -0.3592 -0.4593 -0.1270
  158SAPE  H17R17646   4.208   0.732   8.432  1.1434 -0.0355 -1.3965
  158SAPE  H17S17647   4.186   0.544   8.425  0.8595 -0.3312 -0.0098
  158SAPE  C21817648   4.029   0.662   8.337 -0.0632  0.6270  0.1582
  158SAPE  H18R17649   3.997   0.576   8.274  0.6431  0.1314  0.4584
  158SAPE  H18S17650   4.028   0.759   8.285  0.9249  1.4375  1.5857
  158SAPE  C21917651   3.944   0.672   8.455 -0.0543  0.3051 -0.2567
  158SAPE  H19R17652   3.838   0.695   8.431 -0.1180  3.2694  2.2341
  158SAPE  H19S17653   3.981   0.754   8.521  0.0253 -0.9379  1.2854
  158SAPE  C22017654   3.940   0.537   8.535  0.0688  0.4506  0.1458
  158SAPE  H20R17655   3.907   0.462   8.460  0.6941 -1.9404  2.1387
  158SAPE  H20S17656   3.867   0.549   8.618  0.4372 -0.3428  0.6046
  158SAPE  H20T17657   4.040   0.519   8.580 -0.4020 -2.2886  0.2741
  158SAPE   C3317658   3.576   1.085   7.252 -0.1346 -0.0770  0.1129
  158SAPE   H3X17659   3.500   1.004   7.251 -2.5442  1.9066  3.5841
  158SAPE   H3Y17660   3.525   1.183   7.265  0.1841 -0.1368  2.0820
  158SAPE   C3417661   3.667   1.054   7.371  0.3271  0.2857  0.8229
  158SAPE   H4X17662   3.756   1.121   7.374  0.2378  0.5925 -1.4399
  158SAPE   H4Y17663   3.699   0.949   7.357  2.3049  1.0038 -0.5432
  158SAPE   C3517664   3.585   1.064   7.498  0.3308  0.2516 -0.2030
  158SAPE   H5X17665   3.507   0.985   7.486  0.5130 -0.3069  1.7992
  158SAPE   H5Y17666   3.530   1.158   7.519 -2.4495 -1.5252  1.0359
  158SAPE   C3617667   3.666   1.023   7.627  0.6398  0.3755 -0.2383
  158SAPE   H6X17668   3.748   1.094   7.650 -1.0505  2.4001 -0.1207
  158SAPE   H6Y17669   3.718   0.926   7.612  2.6398  1.4084 -0.3448
  158SAPE   C3717670   3.567   1.003   7.753 -0.2553 -0.5829 -0.4629
  158SAPE   H7X17671   3.508   1.094   7.776 -0.0459 -0.7108  0.6391
  158SAPE   H7Y17672   3.485   0.931   7.729 -1.8631  1.6003 -1.8480
  158SAPE   C3817673   3.642   0.953   7.882 -0.0555 -0.2210  0.0298
  158SAPE   H8X17674   3.588   0.998   7.968 -1.3762  0.6014 -1.1824
  158SAPE   H8Y17675   3.745   0.991   7.868  0.4626 -2.1484 -2.0925
  158SAPE   C3917676   3.653   0.794   7.885  1.0847  0.0765  0.0629
  158SAPE   H9X17677   3.745   0.767   7.940  2.3777 -0.4084 -2.1985
  158SAPE   H9Y17678   3.662   0.766   7.778 -1.7684  2.1877 -0.8711
  158SAPE  C31017679   3.537   0.720   7.947  0.1409 -0.5075 -0.3591
  158SAPE  H10X17680   3.450   0.760   7.890  1.1555  2.8815  0.2257
  158SAPE  H10Y17681   3.532   0.758   8.051  1.6015 -0.3913 -0.2995
  158SAPE  C31117682   3.555   0.564   7.953  0.3608 -0.8048  0.0181
  158SAPE  H11X17683   3.613   0.539   7.861 -0.6723  0.2547 -0.9560
  158SAPE  H11Y17684   3.454   0.519   7.948  0.9241 -2.0305 -1.3501
  158SAPE  C31217685   3.638   0.509   8.060  1.2639  0.5028  0.2666
  158SAPE  H12X17686   3.587   0.528   8.157 -0.5101 -0.7369 -0.3525
  158SAPE  H12Y17687   3.734   0.564   8.052  0.0818  2.3719 -2.1662
  158SAPE  C31317688   3.673   0.359   8.042  0.3967  0.7578  0.8517
  158SAPE  H13X17689   3.685   0.339   7.933 -2.3062  1.2094  0.4153
  158SAPE  H13Y17690   3.589   0.292   8.067  0.2059  0.0284 -1.4903
  158SAPE  C31417691   3.798   0.322   8.117  0.0550 -0.2528  0.3111
  158SAPE  H14X17692   3.778   0.328   8.226 -0.5274 -0.1695  0.2036
  158SAPE  H14Y17693   3.866   0.405   8.091 -1.9652  1.0245 -1.2095
  158SAPE  C31517694   3.861   0.186   8.076 -0.2262  0.0459 -0.9838
  158SAPE  H15X17695   3.889   0.181   7.969  0.2902  0.8453 -0.8938
  158SAPE  H15Y17696   3.786   0.105   8.089  0.8860 -1.3534 -2.8349
  158SAPE  C31617697   3.979   0.163   8.169 -0.1887  1.0728 -0.2524
  158SAPE  H16X17698   4.049   0.247   8.149  0.9614  0.6081  1.5704
  158SAPE  H16Y17699   4.023   0.065   8.142  2.2896  1.8666  0.6681
  158SAPE  C31717700   3.956   0.158   8.323 -0.2314  0.1345 -0.2699
  158SAPE  H17X17701   3.897   0.067   8.345 -0.0121 -0.0796 -0.5655
  158SAPE  H17Y17702   3.898   0.246   8.358 -0.4606 -0.8025  1.9009
  158SAPE  C31817703   4.089   0.148   8.406  0.4893  0.1001 -0.0031
  158SAPE  H18X17704   4.130   0.047   8.383  1.5165  0.6753 -0.7756
  158SAPE  H18Y17705   4.061   0.161   8.512 -0.9254 -0.4169 -0.2886
  158SAPE  H18Z17706   4.164   0.223   8.374  1.1973 -0.7643 -0.4269
  159SAPE     N17707   5.099   3.812   6.239  0.0108 -0.2407 -0.6674
  159SAPE   HN117708   5.098   3.906   6.283 -2.3962 -0.1549 -0.7719
  159SAPE   HN217709   5.053   3.747   6.307 -0.3217  0.2501 -0.4161
  159SAPE   HN317710   5.199   3.785   6.239  0.6282  1.7887  1.2600
  159SAPE   C1217711   5.017   3.813   6.113  0.1482  0.3537 -0.2246
  159SAPE  H12A17712   5.088   3.852   6.036  1.6732 -0.9591  0.4468
  159SAPE  H12B17713   4.937   3.888   6.128 -0.6506 -0.5640  0.2432
  159SAPE   C1117714   4.971   3.672   6.071  0.3406 -0.3223 -0.5580
  159SAPE  H11A17715   5.058   3.605   6.091 -0.3380 -0.1435  4.0731
  159SAPE  H11B17716   4.930   3.674   5.968  1.2989  0.8816 -0.9420
  159SAPE     P17717   4.711   3.639   6.137  0.3975  0.1655 -0.3215
  159SAPE   O1317718   4.662   3.773   6.113  0.0786  0.2564 -0.4363
  159SAPE   O1417719   4.671   3.532   6.044  0.1464 -0.0217 -0.7140
  159SAPE   O1217720   4.869   3.634   6.160  0.3035 -0.4091 -0.5251
  159SAPE   O1117721   4.647   3.597   6.272  0.8182  0.5381  0.1876
  159SAPE    C117722   4.649   3.462   6.317  0.1510 -0.1533 -0.6908
  159SAPE    HA17723   4.541   3.436   6.328  0.1587 -0.1847 -0.6885
  159SAPE    HB17724   4.693   3.384   6.251  0.5620  0.7912 -1.5439
  159SAPE    C217725   4.722   3.450   6.457 -0.0872  0.2811  0.3936
  159SAPE    HS17726   4.719   3.345   6.492  2.9909 -0.1553 -0.4291
  159SAPE   O2117727   4.679   3.544   6.558  0.2953 -0.1268  0.3914
  159SAPE   C2117728   4.558   3.532   6.603  0.4006 -0.4592 -1.0959
  159SAPE   O2217729   4.471   3.456   6.564 -0.3691 -0.3059 -0.1803
  159SAPE   C2217730   4.535   3.631   6.715 -0.7410 -0.1867 -0.3361
  159SAPE   H2R17731   4.538   3.567   6.806 -1.5631 -1.4131 -1.1440
  159SAPE   H2S17732   4.616   3.707   6.724 -1.6086  0.5479  2.0920
  159SAPE    C317733   4.877   3.463   6.435  0.3755 -0.6051 -0.0671
  159SAPE    HX17734   4.899   3.567   6.403  0.6481 -0.2077  1.3130
  159SAPE    HY17735   4.904   3.421   6.336 -1.1393  0.3822 -0.9352
  159SAPE   O3117736   4.969   3.404   6.537  0.4796  0.3268  0.2786
  159SAPE   C3117737   4.987   3.491   6.634 -0.6145 -0.0729 -0.5884
  159SAPE   O3217738   4.946   3.607   6.630  0.2768  0.3722  0.0895
  159SAPE   C3217739   5.070   3.424   6.747  0.1510  0.0479  0.6959
  159SAPE   H2X17740   5.172   3.397   6.714  0.3867  0.0090  1.4263
  159SAPE   H2Y17741   5.010   3.336   6.778  0.6631 -1.3766 -2.0708
  159SAPE   C2317742   4.399   3.710   6.710 -0.7117  0.2131  0.0801
  159SAPE   H3R17743   4.334   3.680   6.626 -2.0507  1.1356  0.7534
  159SAPE   H3S17744   4.427   3.812   6.674 -1.4760 -0.2424 -1.9179
  159SAPE   C2417745   4.325   3.722   6.844 -0.0128  0.3148 -0.4054
  159SAPE   H4R17746   4.275   3.631   6.883 -0.6904  0.1232 -1.6682
  159SAPE   H4S17747   4.237   3.790   6.839 -0.2044 -0.0007 -1.6730
  159SAPE   C2517748   4.419   3.786   6.937 -0.0026  0.1664  0.2837
  159SAPE   H5R17749   4.496   3.854   6.899  1.1035  0.0546  2.1779
  159SAPE   C2617750   4.434   3.760   7.065  0.5584  0.5703 -0.3779
  159SAPE   H6R17751   4.509   3.813   7.126 -0.8144  1.2085  0.8164
  159SAPE   C2717752   4.365   3.661   7.152 -0.0434 -0.4931 -0.4479
  159SAPE   H7R17753   4.439   3.620   7.225 -1.3393  1.8624  2.3827
  159SAPE   H7S17754   4.328   3.575   7.093 -0.5848  0.4664 -1.5505
  159SAPE   C2817755   4.259   3.721   7.235  0.2740  0.1583  0.6927
  159SAPE   H8R17756   4.193   3.792   7.183  0.1336 -1.8395 -2.1144
  159SAPE   C2917757   4.232   3.703   7.366  0.1486  0.7801 -0.7992
  159SAPE   H9R17758   4.148   3.760   7.409  1.2084  2.0941 -0.4047
  159SAPE  C21017759   4.321   3.617   7.463  0.3932 -0.0017 -0.5968
  159SAPE  H10R17760   4.412   3.675   7.488 -1.0957  1.6812  1.2648
  159SAPE  H10S17761   4.342   3.521   7.411 -1.4011 -0.2859 -0.8762
  159SAPE  C21117762   4.259   3.584   7.602 -0.5281 -0.1419 -0.2580
  159SAPE  H11R17763   4.188   3.500   7.601 -1.6942  0.8089 -0.2325
  159SAPE  C21217764   4.295   3.663   7.708  0.0968 -0.2428 -0.2093
  159SAPE  H12R17765   4.250   3.641   7.806  0.3997  3.4773  0.9519
  159SAPE  C21317766   4.399   3.776   7.699  0.0962  0.6619  0.3499
  159SAPE  H13R17767   4.366   3.852   7.625  1.4818  0.0830 -0.9140
  159SAPE  H13S17768   4.493   3.734   7.657 -0.4339  0.3393 -0.5499
  159SAPE  C21417769   4.425   3.845   7.827  0.2215 -0.0738 -0.1412
  159SAPE  H14R17770   4.363   3.935   7.831  0.1481 -0.1160  3.7044
  159SAPE  C21517771   4.489   3.804   7.940 -0.3819 -0.2386  0.2718
  159SAPE  H15R17772   4.494   3.871   8.026 -1.1117 -1.5925  1.4155
  159SAPE  C21617773   4.554   3.673   7.954  0.6665  0.1501 -0.8316
  159SAPE  H16R17774   4.643   3.656   7.889 -0.2314 -1.9763 -1.6199
  159SAPE  H16S17775   4.483   3.594   7.919  1.4174 -1.2588  0.6756
  159SAPE  C21717776   4.594   3.636   8.100  0.2897  0.1535 -0.5289
  159SAPE  H17R17777   4.619   3.529   8.116 -1.8755 -0.3653 -0.3084
  159SAPE  H17S17778   4.511   3.651   8.171  1.0337 -2.1712  0.9342
  159SAPE  C21817779   4.713   3.724   8.146 -0.2656 -0.3805 -0.1760
  159SAPE  H18R17780   4.689   3.830   8.124  1.3278  0.7088  2.8241
  159SAPE  H18S17781   4.805   3.707   8.085 -0.2056  0.5283 -0.3500
  159SAPE  C21917782   4.748   3.718   8.297 -0.2685 -0.2340  0.5556
  159SAPE  H19R17783   4.778   3.616   8.329  2.3556  0.1298 -0.5530
  159SAPE  H19S17784   4.652   3.750   8.344 -0.1444 -1.7512  1.9549
  159SAPE  C22017785   4.860   3.815   8.342  0.3286  0.0688 -0.0239
  159SAPE  H20R17786   4.851   3.826   8.452 -1.2808  0.2448 -0.1468
  159SAPE  H20S17787   4.849   3.917   8.300  1.7760  0.3725  0.3027
  159SAPE  H20T17788   4.954   3.759   8.321 -0.6203 -2.0360  1.0547
  159SAPE   C3317789   5.087   3.523   6.866 -0.2620  0.9515  0.2130
  159SAPE   H3X17790   5.144   3.614   6.840  0.7834  0.3908  0.4935
  159SAPE   H3Y17791   5.151   3.475   6.943 -1.7467  0.4713  1.1906
  159SAPE   C3417792   4.950   3.549   6.932 -0.4393 -1.3475  0.2932
  159SAPE   H4X17793   4.881   3.465   6.953 -1.3091 -0.5461  0.7252
  159SAPE   H4Y17794   4.899   3.621   6.864  2.1493 -0.5839 -1.0198
  159SAPE   C3517795   4.975   3.610   7.068  0.4061  1.0305 -0.2748
  159SAPE   H5X17796   5.044   3.697   7.073 -0.7047  1.8725  0.9730
  159SAPE   H5Y17797   5.024   3.531   7.128  1.3950  0.2549 -2.0357
  159SAPE   C3617798   4.847   3.654   7.140  0.0774  0.4896 -0.7903
  159SAPE   H6X17799   4.783   3.565   7.157 -0.4193  0.9641 -0.1699
  159SAPE   H6Y17800   4.786   3.725   7.081 -1.1007  1.5205  1.5438
  159SAPE   C3717801   4.879   3.719   7.279  0.0658 -0.1930 -0.0859
  159SAPE   H7X17802   4.937   3.812   7.261  1.1325 -0.7843  0.2224
  159SAPE   H7Y17803   4.947   3.654   7.338 -0.1833 -0.4747 -0.1031
  159SAPE   C3817804   4.753   3.740   7.364 -0.1638  0.2875  0.2694
  159SAPE   H8X17805   4.699   3.645   7.380 -0.1580  0.4918  1.6471
  159SAPE   H8Y17806   4.695   3.804   7.294 -0.4509 -0.0203  0.2273
  159SAPE   C3917807   4.783   3.809   7.495  0.3901  0.4971  0.4362
  159SAPE   H9X17808   4.861   3.762   7.559  0.8190  3.7726  2.5809
  159SAPE   H9Y17809   4.688   3.809   7.553  1.0333  1.4476  1.5530
  159SAPE  C31017810   4.831   3.954   7.473 -0.0165  0.9073 -0.0961
  159SAPE  H10X17811   4.755   4.015   7.420 -0.1977  0.6491 -0.1360
  159SAPE  H10Y17812   4.912   3.956   7.397  0.0187  1.6322 -0.0440
  159SAPE  C31117813   4.877   4.017   7.607  0.3878 -0.1019  0.2556
  159SAPE  H11X17814   4.899   4.123   7.585 -1.1040  0.4105  1.0755
  159SAPE  H11Y17815   4.974   3.974   7.640  0.6092  0.4644  0.3546
  159SAPE  C31217816   4.778   4.020   7.722 -0.3190 -0.1254  0.5421
  159SAPE  H12X17817   4.750   3.918   7.756  0.3411 -0.2928  0.6023
  159SAPE  H12Y17818   4.683   4.065   7.687 -0.5287 -0.7513  0.3090
  159SAPE  C31317819   4.835   4.100   7.844 -0.7098  0.0377 -0.0771
  159SAPE  H13X17820   4.867   4.202   7.816  0.4991  0.2127  1.7775
  159SAPE  H13Y17821   4.919   4.038   7.883  0.4670  2.4614  1.4932
  159SAPE  C31417822   4.735   4.095   7.959 -0.1616  0.8021 -0.2207
  159SAPE  H14X17823   4.709   3.990   7.982 -0.6871  1.2094  1.1665
  159SAPE  H14Y17824   4.641   4.150   7.936 -1.2489 -0.0801  1.9234
  159SAPE  C31517825   4.787   4.164   8.089  0.0566  1.0385  0.0400
  159SAPE  H15X17826   4.827   4.265   8.062 -0.8028  2.0894  2.3590
  159SAPE  H15Y17827   4.869   4.111   8.141  1.1058  3.3087  0.8679
  159SAPE  C31617828   4.668   4.184   8.186 -0.6608 -0.3555  0.6390
  159SAPE  H16X17829   4.638   4.079   8.206  1.1345 -0.7836  1.2415
  159SAPE  H16Y17830   4.578   4.236   8.147  0.4295  0.2185 -1.2411
  159SAPE  C31717831   4.707   4.234   8.323  0.0919 -0.4710  0.2676
  159SAPE  H17X17832   4.762   4.330   8.323 -1.4402  0.4764 -1.6653
  159SAPE  H17Y17833   4.776   4.163   8.374  1.4143  1.6024  1.5040
  159SAPE  C31817834   4.591   4.241   8.426 -0.9291  0.1819  0.6575
  159SAPE  H18X17835   4.536   4.336   8.405 -0.2567  0.5839  0.6945
  159SAPE  H18Y17836   4.632   4.245   8.529 -0.5222 -0.4038  0.5209
  159SAPE  H18Z17837   4.527   4.150   8.425  0.2696 -0.7339  2.2678
  160SAPE     N17838   4.839   1.636   6.409  0.7758  0.5595  1.0974
  160SAPE   HN117839   4.899   1.674   6.485  1.5070  2.2972 -0.2744
  160SAPE   HN217840   4.825   1.533   6.416 -1.5930  0.8444  1.3504
  160SAPE   HN317841   4.887   1.650   6.317 -0.6820 -0.6298  0.0995
  160SAPE   C1217842   4.703   1.695   6.405  0.8789  0.0529 -0.2676
  160SAPE  H12A17843   4.709   1.805   6.402  0.4316  0.0541 -2.2523
  160SAPE  H12B17844   4.646   1.666   6.497  0.8770 -1.0120 -0.5848
  160SAPE   C1117845   4.611   1.634   6.295 -1.0725 -0.2708 -0.6214
  160SAPE  H11A17846   4.644   1.668   6.194  0.3257  0.7253  0.1195
  160SAPE  H11B17847   4.521   1.689   6.328 -0.4133  2.2857 -2.6778
  160SAPE     P17848   4.473   1.422   6.376 -0.3711 -0.1929  0.0985
  160SAPE   O1317849   4.344   1.460   6.326 -0.1602  0.0260 -0.3614
  160SAPE   O1417850   4.502   1.275   6.358  0.3898 -0.0846 -0.2905
  160SAPE   O1217851   4.598   1.491   6.300 -0.1716 -0.8533 -0.3469
  160SAPE   O1117852   4.495   1.463   6.529 -0.1184 -0.2796 -0.2367
  160SAPE    C117853   4.600   1.389   6.599  0.1270  0.6757  0.0849
  160SAPE    HA17854   4.593   1.280   6.575  0.8338  0.5505  0.3997
  160SAPE    HB17855   4.702   1.418   6.565 -0.1783  0.5104 -1.0012
  160SAPE    C217856   4.595   1.411   6.752  0.8005 -0.2377 -0.6898
  160SAPE    HS17857   4.495   1.381   6.791  0.2008  2.3166 -0.0657
  160SAPE   O2117858   4.630   1.549   6.776  0.2894  0.2467 -0.3615
  160SAPE   C2117859   4.561   1.606   6.879  1.4503 -0.3862 -0.1626
  160SAPE   O2217860   4.467   1.552   6.945 -0.4427 -0.2260  0.2885
  160SAPE   C2217861   4.622   1.742   6.919 -0.1671 -0.3202 -0.1231
  160SAPE   H2R17862   4.708   1.726   6.988 -0.5672 -0.9913  0.2287
  160SAPE   H2S17863   4.661   1.782   6.823  0.8188 -1.1850 -0.1029
  160SAPE    C317864   4.695   1.324   6.830  0.0409 -0.7535 -0.2559
  160SAPE    HX17865   4.790   1.380   6.819 -0.6800  0.3641 -1.0907
  160SAPE    HY17866   4.712   1.228   6.777  2.6543 -0.5929  0.1586
  160SAPE   O3117867   4.662   1.299   6.963  0.6432  0.0406  0.1593
  160SAPE   C3117868   4.714   1.386   7.048  0.2470 -0.1873 -0.1627
  160SAPE   O3217869   4.808   1.463   7.030  0.1381 -0.2516  0.9133
  160SAPE   C3217870   4.634   1.388   7.179 -0.0976 -0.2387  0.4373
  160SAPE   H2X17871   4.691   1.332   7.256 -0.2309 -1.6380 -0.4440
  160SAPE   H2Y17872   4.536   1.340   7.159 -0.7108  1.2518 -0.3053
  160SAPE   C2317873   4.526   1.838   6.991 -0.5291  0.4767 -0.8895
  160SAPE   H3R17874   4.489   1.787   7.083 -1.3302  1.9566 -0.3583
  160SAPE   H3S17875   4.434   1.868   6.937 -1.3451 -1.0368 -0.3867
  160SAPE   C2417876   4.594   1.971   7.030 -0.2357  0.4468  0.5931
  160SAPE   H4R17877   4.530   2.011   7.111  0.8364  0.8385  1.2768
  160SAPE   H4S17878   4.590   2.036   6.940 -2.6580 -0.0347  0.2985
  160SAPE   C2517879   4.731   1.968   7.082 -1.1612 -0.2351 -0.3456
  160SAPE   H5R17880   4.806   1.953   7.003 -1.4247 -0.0232 -0.6418
  160SAPE   C2617881   4.775   1.942   7.208  0.4427 -0.6685 -0.2866
  160SAPE   H6R17882   4.881   1.952   7.237 -0.1344  0.3909  1.7070
  160SAPE   C2717883   4.689   1.921   7.327  0.3226  0.3892  0.0283
  160SAPE   H7R17884   4.736   1.843   7.390  0.2837  1.6762  1.7395
  160SAPE   H7S17885   4.594   1.868   7.308  0.8621 -1.1685  1.4261
  160SAPE   C2817886   4.658   2.050   7.390  0.6763 -0.1323 -0.3492
  160SAPE   H8R17887   4.636   2.130   7.318  0.4130  0.3983  0.3128
  160SAPE   C2917888   4.653   2.077   7.521 -0.4916  0.5750 -0.1277
  160SAPE   H9R17889   4.624   2.177   7.557 -1.0918  0.3273  0.0955
  160SAPE  C21017890   4.676   1.977   7.638 -0.3013 -0.3636 -0.0630
  160SAPE  H10R17891   4.764   2.024   7.687 -1.2721  0.7856  0.6478
  160SAPE  H10S17892   4.688   1.875   7.596 -0.8502 -0.7975  0.8137
  160SAPE  C21117893   4.556   1.978   7.725 -0.0457 -0.0933 -0.1212
  160SAPE  H11R17894   4.463   1.958   7.668 -1.2190  1.1424  1.2957
  160SAPE  C21217895   4.534   1.985   7.856 -0.2352  0.5819 -0.3405
  160SAPE  H12R17896   4.432   1.969   7.894  0.4760  0.3923  1.5786
  160SAPE  C21317897   4.643   1.994   7.962  0.4937 -0.0615  0.0093
  160SAPE  H13R17898   4.743   1.990   7.913  0.9053  1.2056  0.6833
  160SAPE  H13S17899   4.634   1.900   8.022  0.9869 -0.7110 -0.9117
  160SAPE  C21417900   4.623   2.115   8.046 -0.2236  0.6235 -0.1278
  160SAPE  H14R17901   4.588   2.208   7.998 -0.1832  0.5609 -0.2806
  160SAPE  C21517902   4.665   2.113   8.179 -0.3531 -0.5006 -0.0786
  160SAPE  H15R17903   4.646   2.204   8.237  0.6472 -0.2962 -0.0530
  160SAPE  C21617904   4.737   2.012   8.259 -0.9542  0.2445  0.4154
  160SAPE  H16R17905   4.817   2.063   8.317  0.0062 -0.1364 -0.5509
  160SAPE  H16S17906   4.772   1.934   8.188  0.0864 -0.5869  1.7923
  160SAPE  C21717907   4.643   1.943   8.370  0.0702  0.4300  0.7156
  160SAPE  H17R17908   4.707   1.864   8.414 -1.7872 -0.8269  1.3068
  160SAPE  H17S17909   4.561   1.886   8.320  0.7665 -0.0474  0.0988
  160SAPE  C21817910   4.589   2.040   8.473 -0.3921  0.1166  0.2284
  160SAPE  H18R17911   4.520   2.114   8.428 -0.2049  0.8645  1.1433
  160SAPE  H18S17912   4.669   2.080   8.539  0.5015  0.0161 -0.7721
  160SAPE  C21917913   4.503   1.963   8.575 -0.2226 -0.1488 -0.0018
  160SAPE  H19R17914   4.434   1.899   8.517 -0.9014  1.7525 -1.4089
  160SAPE  H19S17915   4.428   2.038   8.609  0.7400  1.0415 -0.4247
  160SAPE  C22017916   4.571   1.889   8.685  0.6102  0.1126  0.1263
  160SAPE  H20R17917   4.484   1.841   8.735 -0.8801  0.2271 -2.2244
  160SAPE  H20S17918   4.630   1.963   8.744  1.4701 -0.1737 -0.3695
  160SAPE  H20T17919   4.637   1.809   8.646  0.5785 -0.2361  0.7728
  160SAPE   C3317920   4.613   1.527   7.232  0.8662  0.4987 -0.0482
  160SAPE   H3X17921   4.528   1.573   7.178 -0.4221 -0.6421  0.9309
  160SAPE   H3Y17922   4.706   1.587   7.218  3.2810 -2.6964  1.1266
  160SAPE   C3417923   4.577   1.524   7.384  0.4056 -0.6613 -0.5904
  160SAPE   H4X17924   4.570   1.629   7.420  3.4272 -0.2996 -0.8239
  160SAPE   H4Y17925   4.656   1.482   7.450 -1.6479  0.0066  2.5196
  160SAPE   C3517926   4.441   1.457   7.409  0.1310 -0.3637  0.2324
  160SAPE   H5X17927   4.446   1.347   7.391  1.0646 -0.1013 -1.2506
  160SAPE   H5Y17928   4.375   1.501   7.332 -0.2184 -2.0222 -0.4693
  160SAPE   C3617929   4.390   1.494   7.550 -0.2851 -0.2451  0.0337
  160SAPE   H6X17930   4.295   1.441   7.570  0.1091 -1.2335 -0.6217
  160SAPE   H6Y17931   4.364   1.601   7.563  0.2603 -0.2001  0.8447
  160SAPE   C3717932   4.484   1.459   7.666  0.6668  0.4945 -0.4918
  160SAPE   H7X17933   4.571   1.528   7.667 -0.2408  1.7096  1.7102
  160SAPE   H7Y17934   4.523   1.357   7.648 -1.5761 -0.0932 -2.5310
  160SAPE   C3817935   4.408   1.457   7.794 -0.1870  0.5809 -0.2833
  160SAPE   H8X17936   4.336   1.373   7.806 -1.5003  1.8308  1.0361
  160SAPE   H8Y17937   4.336   1.541   7.792  0.1909  0.9315  0.4402
  160SAPE   C3917938   4.509   1.450   7.919 -0.4173  0.2144  0.1563
  160SAPE   H9X17939   4.605   1.495   7.886 -0.2898 -0.1393  0.0441
  160SAPE   H9Y17940   4.540   1.345   7.932 -1.1029 -0.2797 -1.8027
  160SAPE  C31017941   4.452   1.501   8.051 -0.9871  0.1015 -0.1381
  160SAPE  H10X17942   4.352   1.459   8.075 -0.4242 -1.0472  0.2660
  160SAPE  H10Y17943   4.446   1.612   8.043  1.4102  0.4982  2.1506
  160SAPE  C31117944   4.561   1.470   8.157  0.3020 -0.7120  0.7431
  160SAPE  H11X17945   4.659   1.495   8.111 -1.0026  0.3209 -1.7137
  160SAPE  H11Y17946   4.557   1.359   8.163 -2.0587 -0.8188 -1.1641
  160SAPE  C31217947   4.540   1.523   8.297  0.2913  0.0666 -0.1589
  160SAPE  H12X17948   4.433   1.501   8.319  0.8978 -2.1324  0.8588
  160SAPE  H12Y17949   4.559   1.631   8.314  0.3104 -0.2204  1.9979
  160SAPE  C31317950   4.618   1.456   8.401 -0.1645  0.3873 -0.4621
  160SAPE  H13X17951   4.722   1.495   8.389 -0.3595  0.7600 -0.9905
  160SAPE  H13Y17952   4.633   1.347   8.410  0.7988  0.6197  1.1030
  160SAPE  C31417953   4.563   1.497   8.543 -0.4996 -0.6656  0.1303
  160SAPE  H14X17954   4.566   1.607   8.557 -2.1770 -0.6162  0.2381
  160SAPE  H14Y17955   4.645   1.463   8.610  1.8503  1.2837 -1.5726
  160SAPE  C31517956   4.430   1.437   8.587  0.0262 -0.0394 -0.3556
  160SAPE  H15X17957   4.396   1.350   8.526 -1.2452  0.6325 -0.6239
  160SAPE  H15Y17958   4.355   1.512   8.555  1.2673  1.0685 -0.7879
  160SAPE  C31617959   4.417   1.412   8.734  0.8334  0.1424 -0.3481
  160SAPE  H16X17960   4.314   1.383   8.761  1.2731  1.4064  3.1934
  160SAPE  H16Y17961   4.432   1.508   8.789  1.5500 -0.4185  0.4529
  160SAPE  C31717962   4.509   1.310   8.807  0.3890 -0.1661  0.2366
  160SAPE  H17X17963   4.466   1.295   8.909  1.2125 -1.0265  0.4687
  160SAPE  H17Y17964   4.604   1.367   8.821  0.1191  0.5119 -0.6274
  160SAPE  C31817965   4.546   1.182   8.739 -0.6240  0.5448 -0.2759
  160SAPE  H18X17966   4.583   1.203   8.636 -0.4137  1.4946 -0.0179
  160SAPE  H18Y17967   4.457   1.119   8.718 -0.0377 -0.5130  0.3273
  160SAPE  H18Z17968   4.627   1.125   8.789  0.0987  1.4683 -0.3706
  161SOPE     N17969   2.950   2.682  10.684 -0.2290 -0.5787  1.1888
  161SOPE   HN117970   3.039   2.634  10.711  0.6817  0.9612  1.0613
  161SOPE   HN217971   2.932   2.754  10.757 -0.0106 -0.8369  1.4989
  161SOPE   HN317972   2.871   2.615  10.691 -1.6215  1.0004  1.2931
  161SOPE   C1217973   2.982   2.736  10.552 -0.9037  0.1436  0.1679
  161SOPE  H12A17974   2.910   2.803  10.500 -0.4977 -0.1675 -0.8318
  161SOPE  H12B17975   3.010   2.652  10.485 -0.9882  0.2977 -0.0664
  161SOPE   C1117976   3.117   2.823  10.559  0.5436 -0.0775  0.0834
  161SOPE  H11A17977   3.177   2.813  10.467  0.7714 -0.3123  0.2563
  161SOPE  H11B17978   3.170   2.788  10.650 -0.3955  1.0779  1.1175
  161SOPE     P17979   3.209   3.059  10.596  0.0955 -0.0744  0.1220
  161SOPE   O1317980   3.283   3.044  10.724  0.4425  0.1658  0.4226
  161SOPE   O1417981   3.167   3.196  10.562  0.2376  0.0067 -0.6238
  161SOPE   O1217982   3.080   2.958  10.586  0.1032  0.3703 -0.1601
  161SOPE   O1117983   3.298   3.005  10.482 -0.5445  0.1360  0.2027
  161SOPE    C117984   3.439   3.055  10.465  0.2240  0.5406  0.2071
  161SOPE    HA17985   3.499   2.974  10.419 -0.5239  0.7624 -1.2161
  161SOPE    HB17986   3.487   3.094  10.558 -0.1657  0.8417  0.2863
  161SOPE    C217987   3.440   3.177  10.367 -0.3028 -0.1748 -0.6958
  161SOPE    HS17988   3.387   3.258  10.421  1.8593  1.1738 -0.4393
  161SOPE   O2117989   3.368   3.146  10.243 -0.1629 -0.5951  0.1812
  161SOPE   C2117990   3.316   3.249  10.176  0.2682  0.3609  0.3400
  161SOPE   O2217991   3.298   3.359  10.219  0.3921 -0.1058 -0.1346
  161SOPE   C2217992   3.273   3.206  10.032 -0.2308 -0.0906  0.3071
  161SOPE   H2R17993   3.169   3.245  10.020 -0.7394 -1.1740  1.0062
  161SOPE   H2S17994   3.265   3.096  10.021  2.6621 -0.3849  0.5821
  161SOPE    C317995   3.593   3.230  10.351  0.3589 -0.5333  0.3527
  161SOPE    HX17996   3.607   3.277  10.451 -1.5651  0.1925  0.3141
  161SOPE    HY17997   3.597   3.310  10.274 -1.8170  1.5628  2.2493
  161SOPE   O3117998   3.686   3.125  10.313 -0.4397 -0.4848  0.3492
  161SOPE   C3117999   3.814   3.150  10.332 -0.2712  0.3588 -0.2003
  161SOPE   O3218000   3.853   3.234  10.411 -0.1730 -0.2277  0.4657
  161SOPE   C3218001   3.899   3.046  10.259  0.0804 -0.3117 -0.3230
  161SOPE   H2X18002   3.837   2.954  10.254  0.9654 -0.9442  0.0588
  161SOPE   H2Y18003   3.983   3.015  10.325  0.1438 -0.9613 -0.7056
  161SOPE   C2318004   3.380   3.262   9.938 -0.0775  0.9722 -0.4118
  161SOPE   H3R18005   3.384   3.373   9.946 -1.9173  0.9156  2.6641
  161SOPE   H3S18006   3.346   3.252   9.833  0.0257  0.7496 -0.4251
  161SOPE   C2418007   3.528   3.196   9.941 -0.5231  0.5187  0.1555
  161SOPE   H4R18008   3.577   3.204  10.041  0.6732  0.5545 -0.4159
  161SOPE   H4S18009   3.532   3.087   9.918  0.4947  0.0951  2.1167
  161SOPE   C2518010   3.626   3.262   9.845  0.0050  0.5086 -0.0634
  161SOPE   H5R18011   3.615   3.372   9.855  0.1704  0.5101  0.1050
  161SOPE   H5S18012   3.728   3.227   9.872  0.7870  2.0798 -0.8266
  161SOPE   C2618013   3.599   3.231   9.699 -0.4344 -0.0706 -0.1737
  161SOPE   H6R18014   3.693   3.208   9.645 -0.7694  1.9356 -1.7577
  161SOPE   H6S18015   3.536   3.140   9.692  0.3219 -0.6433  0.3064
  161SOPE   C2718016   3.531   3.351   9.628 -0.2474 -1.0813 -0.1297
  161SOPE   H7R18017   3.460   3.389   9.705  1.2697 -0.8746  1.2341
  161SOPE   H7S18018   3.605   3.434   9.626 -0.1992 -1.1288 -0.4177
  161SOPE   C2818019   3.474   3.329   9.492  0.9478  0.6754  0.4005
  161SOPE   H8R18020   3.418   3.233   9.485  1.3842  0.4926 -0.9916
  161SOPE   H8S18021   3.400   3.408   9.469 -0.6921 -1.2617 -1.4549
  161SOPE   C2918022   3.589   3.320   9.391  0.3206 -0.3977  0.2856
  161SOPE   H9118023   3.683   3.284   9.436 -0.2968 -1.9233  0.4317
  161SOPE  C21018024   3.583   3.343   9.253 -0.0553 -0.4718 -0.1445
  161SOPE  H10118025   3.665   3.322   9.183  1.2098 -0.5785  1.3154
  161SOPE  C21118026   3.458   3.371   9.179 -0.0965 -0.6582  0.2975
  161SOPE  H11R18027   3.435   3.479   9.185 -1.1114 -0.8116 -0.6003
  161SOPE  H11S18028   3.376   3.317   9.230 -0.4683 -0.3138  0.0659
  161SOPE  C21218029   3.470   3.315   9.031  0.2038  0.6542 -0.2728
  161SOPE  H12R18030   3.487   3.205   9.036 -1.6331  0.4008  1.9865
  161SOPE  H12S18031   3.553   3.354   8.968  0.6453 -0.8585 -0.6869
  161SOPE  C21318032   3.332   3.334   8.964 -0.7777  0.3105 -0.4484
  161SOPE  H13R18033   3.314   3.443   8.966 -1.5142  0.1906  1.6275
  161SOPE  H13S18034   3.253   3.286   9.025  1.8156 -1.2755  1.9239
  161SOPE  C21418035   3.330   3.276   8.827  0.0854  0.5586 -0.3609
  161SOPE  H14R18036   3.403   3.317   8.754  2.1532  0.1304  1.3752
  161SOPE  H14S18037   3.230   3.308   8.791 -0.6105 -3.4064 -2.5618
  161SOPE  C21518038   3.338   3.121   8.830 -0.2585  0.7437  0.0788
  161SOPE  H15R18039   3.286   3.072   8.915 -3.1052  0.9201 -1.4475
  161SOPE  H15S18040   3.445   3.094   8.835  0.3430 -0.1492 -7.0079
  161SOPE  C21618041   3.295   3.038   8.701 -0.4529  0.5614  0.5485
  161SOPE  H16R18042   3.189   3.065   8.683 -0.0089  0.7987 -2.1912
  161SOPE  H16S18043   3.316   2.932   8.726 -1.1425  0.5153  0.9536
  161SOPE  C21718044   3.372   3.077   8.567  1.1760  0.0571  0.5706
  161SOPE  H17R18045   3.480   3.064   8.589  1.1629  2.2562  2.2204
  161SOPE  H17S18046   3.345   3.184   8.555 -0.6781 -0.2644  1.4740
  161SOPE  C21818047   3.332   2.995   8.443 -0.3097  0.5661 -0.5988
  161SOPE  H18R18048   3.236   3.034   8.402  0.1738  1.3562 -0.9851
  161SOPE  H18S18049   3.331   2.888   8.475  0.5494  0.1139 -2.0046
  161SOPE  H18T18050   3.412   2.994   8.366 -0.4584  0.1148 -0.7495
  161SOPE   C3318051   3.940   3.085  10.115  0.2518 -0.6588  0.6880
  161SOPE   H3X18052   3.852   3.094  10.048  1.9538 -0.7402 -1.6459
  161SOPE   H3Y18053   4.002   3.000  10.080 -0.5837 -1.0954  0.2137
  161SOPE   C3418054   4.023   3.213  10.098  0.1949  0.1307  0.2127
  161SOPE   H4X18055   4.105   3.197  10.171  1.2008 -4.0840 -1.5453
  161SOPE   H4Y18056   3.956   3.300  10.116  0.4090 -0.0149  1.8694
  161SOPE   C3518057   4.102   3.225   9.955  0.3612  0.3567  0.2129
  161SOPE   H5X18058   4.178   3.144   9.959 -0.1116 -0.0979  0.1241
  161SOPE   H5Y18059   4.163   3.317   9.944  1.5808 -0.0733  2.7320
  161SOPE   C3618060   4.009   3.219   9.828  0.0960  0.3681  0.4820
  161SOPE   H6X18061   3.939   3.304   9.831  0.7987  0.9357  1.4408
  161SOPE   H6Y18062   3.956   3.121   9.831 -0.7322  0.7983  0.0308
  161SOPE   C3718063   4.084   3.217   9.689  0.6474  0.2555 -0.8045
  161SOPE   H7X18064   4.158   3.135   9.697 -1.2284 -1.7855 -2.7927
  161SOPE   H7Y18065   4.128   3.317   9.670 -2.6456  1.6833 -1.7467
  161SOPE   C3818066   3.989   3.187   9.569  0.3361 -0.5118 -0.5319
  161SOPE   H8X18067   3.929   3.279   9.550  0.5585 -0.1460  0.4948
  161SOPE   H8Y18068   3.917   3.105   9.593  1.1204 -1.1859 -0.4276
  161SOPE   C3918069   4.050   3.134   9.435 -0.1560 -0.3406 -0.2534
  161SOPE   H9X18070   4.139   3.071   9.456 -0.5328 -0.8910 -0.3038
  161SOPE   H9Y18071   4.088   3.222   9.378 -2.4388  1.1328  0.3833
  161SOPE  C31018072   3.952   3.059   9.338  0.0020  0.0167 -1.2222
  161SOPE  H10X18073   3.856   3.102   9.374  1.5274  2.8388 -0.1802
  161SOPE  H10Y18074   3.963   2.949   9.347 -1.1771 -0.2487 -2.7368
  161SOPE  C31118075   3.985   3.094   9.192 -0.2479  0.2555  0.3080
  161SOPE  H11X18076   4.086   3.052   9.170 -0.1502  0.6896 -0.0724
  161SOPE  H11Y18077   4.009   3.201   9.206  0.5467  0.1265  0.0331
  161SOPE  C31218078   3.869   3.076   9.091 -0.2328 -0.2697 -0.4965
  161SOPE  H12X18079   3.888   3.127   8.994 -0.4965  0.9399  0.0728
  161SOPE  H12Y18080   3.775   3.122   9.128  0.1774  1.0638 -1.0834
  161SOPE  C31318081   3.834   2.928   9.063 -0.4694  0.1526  0.5541
  161SOPE  H13X18082   3.824   2.874   9.159  0.3219  2.6507  2.1486
  161SOPE  H13Y18083   3.914   2.880   9.003 -0.6594  1.0430 -0.4486
  161SOPE  C31418084   3.700   2.913   8.989 -0.4244 -0.3930 -0.4496
  161SOPE  H14X18085   3.630   2.991   9.025  0.2373  0.0820 -0.1730
  161SOPE  H14Y18086   3.669   2.809   9.014  0.4420 -0.7802 -0.9558
  161SOPE  C31518087   3.710   2.917   8.835 -0.4800 -0.1522  0.6642
  161SOPE  H15X18088   3.749   3.017   8.808  1.1988 -0.8295  0.3957
  161SOPE  H15Y18089   3.607   2.929   8.796  0.5717  2.1077 -1.7071
  161SOPE  C31618090   3.789   2.804   8.748 -0.2761 -0.1555  0.2696
  161SOPE  H16X18091   3.750   2.705   8.778  1.1487 -0.4607  1.2205
  161SOPE  H16Y18092   3.895   2.815   8.778 -0.0606  0.4292 -0.6488
  161SOPE  C31718093   3.787   2.819   8.599 -0.5172 -0.2727  0.0519
  161SOPE  H17X18094   3.878   2.764   8.567 -0.0460  0.2421  0.4935
  161SOPE  H17Y18095   3.802   2.924   8.564  0.4785 -1.1302 -2.2788
  161SOPE  C31818096   3.666   2.758   8.526 -0.0019 -0.1812 -0.1582
  161SOPE  H18X18097   3.668   2.804   8.425 -0.1789 -0.5647 -0.3379
  161SOPE  H18Y18098   3.577   2.803   8.575  1.3260  2.3456  0.0944
  161SOPE  H18Z18099   3.679   2.648   8.515  1.5931 -0.0173 -0.2225
  162SOPE     N18100   1.408   3.597  11.082 -0.3022  0.1346 -0.2816
  162SOPE   HN118101   1.460   3.668  11.026  1.9842  1.0958  2.7848
  162SOPE   HN218102   1.351   3.648  11.154 -1.8620 -2.0115  0.0883
  162SOPE   HN318103   1.455   3.524  11.139  0.9490  0.6635 -0.5909
  162SOPE   C1218104   1.315   3.536  10.977  0.3088 -0.6858  0.3844
  162SOPE  H12A18105   1.258   3.618  10.927  0.6967 -0.1929  0.7413
  162SOPE  H12B18106   1.234   3.484  11.032 -0.4666  0.6468  0.5740
  162SOPE   C1118107   1.392   3.459  10.877  0.2885 -0.2965 -0.2053
  162SOPE  H11A18108   1.316   3.416  10.809 -0.0806 -1.4068  0.8692
  162SOPE  H11B18109   1.433   3.372  10.933  1.2078  0.6463  0.6380
  162SOPE     P18110   1.635   3.478  10.777 -0.0352 -0.3025 -0.4174
  162SOPE   O1318111   1.682   3.396  10.890 -0.2212  0.5066  0.1241
  162SOPE   O1418112   1.727   3.587  10.730 -0.1443 -0.3015  0.6621
  162SOPE   O1218113   1.494   3.537  10.819  0.1282  0.5610 -0.2975
  162SOPE   O1118114   1.605   3.375  10.663 -0.2251 -0.2125  0.7245
  162SOPE    C118115   1.548   3.431  10.544 -0.6334  0.5428  0.4268
  162SOPE    HA18116   1.627   3.482  10.484 -2.2768  0.6824 -1.7536
  162SOPE    HB18117   1.450   3.482  10.555  0.1862  1.8526  2.2855
  162SOPE    C218118   1.516   3.317  10.445 -0.3619 -0.3332  0.9853
  162SOPE    HS18119   1.614   3.269  10.425  0.6217  2.1669 -0.7773
  162SOPE   O2118120   1.461   3.378  10.331 -0.0697  0.1724 -0.2423
  162SOPE   C2118121   1.544   3.429  10.245  0.1334  0.7646 -1.1107
  162SOPE   O2218122   1.666   3.430  10.260  0.1425  0.3133 -0.0190
  162SOPE   C2218123   1.468   3.480  10.131  0.5079 -0.2631  0.1965
  162SOPE   H2R18124   1.384   3.543  10.168  1.3667  1.4851 -0.6747
  162SOPE   H2S18125   1.412   3.400  10.078 -0.6085  0.9550 -0.5300
  162SOPE    C318126   1.422   3.207  10.497  0.0236 -0.0996 -0.6055
  162SOPE    HX18127   1.327   3.258  10.523  0.0280 -0.9240  1.1206
  162SOPE    HY18128   1.458   3.168  10.594 -1.6854  0.5605  0.3375
  162SOPE   O3118129   1.389   3.099  10.399  0.5819 -0.6485 -0.0109
  162SOPE   C3118130   1.473   3.000  10.407 -0.3954  0.7405 -0.0198
  162SOPE   O3218131   1.553   2.984  10.496 -0.5259  0.2110 -0.1704
  162SOPE   C3218132   1.445   2.906  10.288  0.0073 -0.4140 -0.0234
  162SOPE   H2X18133   1.345   2.859  10.304 -0.0298 -0.6570 -0.9503
  162SOPE   H2Y18134   1.526   2.830  10.288 -0.9829 -1.5072  0.1891
  162SOPE   C2318135   1.548   3.567  10.027  0.1465 -0.5644  0.3963
  162SOPE   H3R18136   1.638   3.512   9.992 -1.7113 -3.1609 -0.5485
  162SOPE   H3S18137   1.581   3.658  10.081 -1.1117  0.8233 -1.0431
  162SOPE   C2418138   1.475   3.598   9.894  0.2874  0.8371 -0.1335
  162SOPE   H4R18139   1.451   3.510   9.831  0.4825 -0.3940  1.4498
  162SOPE   H4S18140   1.381   3.656   9.909  0.2961  0.4535  1.6948
  162SOPE   C2518141   1.574   3.674   9.806  0.6689 -0.2981 -0.2207
  162SOPE   H5R18142   1.614   3.761   9.863  0.5014  0.2866 -0.9892
  162SOPE   H5S18143   1.650   3.597   9.783 -2.1563 -4.6685  3.2760
  162SOPE   C2618144   1.518   3.726   9.675  0.2309  0.3085  0.5796
  162SOPE   H6R18145   1.492   3.637   9.614 -1.2211  1.0353  0.0779
  162SOPE   H6S18146   1.420   3.780   9.679  0.3585  0.5573  0.3628
  162SOPE   C2718147   1.618   3.801   9.576 -0.5468  1.0663 -0.9033
  162SOPE   H7R18148   1.620   3.909   9.605 -1.5985  1.1448 -1.0825
  162SOPE   H7S18149   1.719   3.759   9.593 -1.1234 -0.1545 -0.3877
  162SOPE   C2818150   1.576   3.802   9.430 -0.4082 -0.1797  0.3468
  162SOPE   H8R18151   1.533   3.702   9.407  0.0353 -0.1927 -0.4607
  162SOPE   H8S18152   1.492   3.874   9.428 -0.5639 -0.3680  0.1766
  162SOPE   C2918153   1.672   3.849   9.324  0.1576 -0.7016  0.2708
  162SOPE   H9118154   1.671   3.958   9.305 -1.8802 -0.5791  0.8090
  162SOPE  C21018155   1.760   3.781   9.244  0.1170 -0.1070  0.1755
  162SOPE  H10118156   1.841   3.832   9.190  0.6186 -0.7080  0.3531
  162SOPE  C21118157   1.783   3.635   9.244 -0.0731 -0.1687  0.1974
  162SOPE  H11R18158   1.689   3.580   9.219 -0.7214  1.8436 -2.2883
  162SOPE  H11S18159   1.832   3.614   9.341 -1.1744 -1.1922  0.5571
  162SOPE  C21218160   1.889   3.598   9.143  0.3181  0.6052  0.8256
  162SOPE  H12R18161   1.914   3.490   9.155  2.0320  0.8939  0.0838
  162SOPE  H12S18162   1.983   3.654   9.161 -0.1423  1.2015  1.4146
  162SOPE  C21318163   1.836   3.603   8.998 -0.0800 -0.3479 -0.1464
  162SOPE  H13R18164   1.794   3.702   8.970 -2.1799 -1.1950 -0.1510
  162SOPE  H13S18165   1.756   3.526   8.987 -0.5579  0.0803  0.2560
  162SOPE  C21418166   1.952   3.562   8.914 -0.4931  0.4096 -0.2013
  162SOPE  H14R18167   1.994   3.460   8.927 -0.2025  0.2779 -1.9238
  162SOPE  H14S18168   2.040   3.624   8.941  0.5274 -0.9614 -0.2821
  162SOPE  C21518169   1.940   3.585   8.764  0.5181  0.5332  0.1578
  162SOPE  H15R18170   2.043   3.573   8.723  0.2434 -2.0643  0.1048
  162SOPE  H15S18171   1.903   3.682   8.724  1.1287  1.9666  2.8473
  162SOPE  C21618172   1.862   3.474   8.683  0.0522 -0.1555 -0.3290
  162SOPE  H16R18173   1.755   3.482   8.709  0.2811  0.2630  0.5482
  162SOPE  H16S18174   1.901   3.378   8.724  1.8402 -1.0194 -3.6253
  162SOPE  C21718175   1.882   3.483   8.533  0.3679  0.1729  0.4348
  162SOPE  H17R18176   1.827   3.395   8.493 -0.8195  0.2121  1.9174
  162SOPE  H17S18177   1.987   3.460   8.504  0.3955  0.1362  0.5608
  162SOPE  C21818178   1.839   3.614   8.467 -0.9232  0.2780 -1.3392
  162SOPE  H18R18179   1.893   3.706   8.495 -0.5381  0.2585 -2.0062
  162SOPE  H18S18180   1.732   3.631   8.491 -0.9216 -0.3690 -0.8364
  162SOPE  H18T18181   1.853   3.606   8.357 -2.0901  1.0331 -1.5534
  162SOPE   C3318182   1.451   2.986  10.158  0.4211  0.9783 -0.4525
  162SOPE   H3X18183   1.544   3.046  10.159  0.7030  0.5594  1.1955
  162SOPE   H3Y18184   1.366   3.056  10.145  0.6196  1.3282  0.1143
  162SOPE   C3418185   1.460   2.898  10.039  0.0041 -0.0368  0.6647
  162SOPE   H4X18186   1.378   2.823  10.031  1.4554 -1.5179 -1.6427
  162SOPE   H4Y18187   1.547   2.830  10.037 -0.3039 -0.4389  0.6658
  162SOPE   C3518188   1.449   2.968   9.900  0.1772 -0.1101  0.5760
  162SOPE   H5X18189   1.522   3.052   9.893 -0.8944  0.7707 -0.2455
  162SOPE   H5Y18190   1.347   3.004   9.874 -1.3577 -5.2654 -1.7425
  162SOPE   C3618191   1.482   2.880   9.779  0.3849 -0.1678  0.1919
  162SOPE   H6X18192   1.443   2.776   9.781 -0.6896  0.2029 -0.3075
  162SOPE   H6Y18193   1.592   2.872   9.782  0.8821  4.3597  0.7047
  162SOPE   C3718194   1.450   2.948   9.643  0.1173  0.2416  0.3878
  162SOPE   H7X18195   1.512   3.036   9.617 -4.0594  3.3275 -0.0974
  162SOPE   H7Y18196   1.346   2.984   9.632 -0.4980 -1.8029 -1.2019
  162SOPE   C3818197   1.456   2.854   9.521 -0.5261  0.8194  0.3702
  162SOPE   H8X18198   1.394   2.762   9.534  0.3761  0.2271  0.6204
  162SOPE   H8Y18199   1.561   2.821   9.507 -0.4711  1.1990 -0.1360
  162SOPE   C3918200   1.398   2.920   9.394  0.8335  0.5452  0.5211
  162SOPE   H9X18201   1.457   3.012   9.378  1.0983  0.5265  1.3251
  162SOPE   H9Y18202   1.293   2.946   9.419  0.1256 -0.4743 -1.2517
  162SOPE  C31018203   1.394   2.841   9.263 -0.2678  0.7714  0.3573
  162SOPE  H10X18204   1.349   2.740   9.262  1.8048 -0.2395 -2.2477
  162SOPE  H10Y18205   1.498   2.822   9.228 -0.3143  1.1535  0.0034
  162SOPE  C31118206   1.329   2.926   9.151 -0.0414 -0.0812 -0.3651
  162SOPE  H11X18207   1.353   2.886   9.051 -0.6532  1.1634 -1.0326
  162SOPE  H11Y18208   1.355   3.034   9.154  0.3573 -0.1903  1.2406
  162SOPE  C31218209   1.172   2.921   9.174 -0.7047  0.0843 -0.5552
  162SOPE  H12X18210   1.161   2.986   9.263 -0.5215 -0.5541 -0.0569
  162SOPE  H12Y18211   1.148   2.825   9.225  0.1401 -0.4537 -1.1345
  162SOPE  C31318212   1.074   2.961   9.059  0.3603  0.3794  1.3994
  162SOPE  H13X18213   0.967   2.963   9.089 -0.2319 -1.9277 -0.2211
  162SOPE  H13Y18214   1.086   2.880   8.983  3.9664  2.0431 -0.0067
  162SOPE  C31418215   1.129   3.088   8.980 -0.2285  0.6019 -0.4508
  162SOPE  H14X18216   1.234   3.066   8.953 -0.3349 -0.1937 -0.2534
  162SOPE  H14Y18217   1.128   3.167   9.058  0.2207 -1.4719  1.7879
  162SOPE  C31518218   1.060   3.123   8.852 -0.8962 -0.6849  0.9504
  162SOPE  H15X18219   0.953   3.141   8.876 -0.5895  0.7347  1.3315
  162SOPE  H15Y18220   1.057   3.029   8.793 -0.1613  1.1177 -2.1175
  162SOPE  C31618221   1.127   3.241   8.776  0.0258 -0.2073 -0.2217
  162SOPE  H16X18222   1.237   3.232   8.786  0.2757  2.4388  0.1545
  162SOPE  H16Y18223   1.097   3.335   8.828  1.7257  0.1118  0.2350
  162SOPE  C31718224   1.089   3.258   8.629 -0.9185  0.4586  0.1030
  162SOPE  H17X18225   1.116   3.172   8.564  1.3441  0.4679  0.9191
  162SOPE  H17Y18226   1.138   3.355   8.605 -1.9185  1.1424  0.7901
  162SOPE  C31818227   0.939   3.283   8.612  0.3491  0.4109  0.1302
  162SOPE  H18X18228   0.932   3.370   8.679  0.8427  1.5965 -1.3037
  162SOPE  H18Y18229   0.881   3.202   8.662  0.0398  0.7206  0.2751
  162SOPE  H18Z18230   0.922   3.295   8.503 -0.3270 -0.8787  0.0655
  163SOPE     N18231   2.448   1.208  10.731  1.1379 -0.4302 -0.0398
  163SOPE   HN118232   2.372   1.241  10.793 -1.7399 -0.4693 -3.2076
  163SOPE   HN218233   2.466   1.275  10.652  0.5777  0.3216  0.4530
  163SOPE   HN318234   2.408   1.121  10.691 -0.5119 -0.9547  2.5496
  163SOPE   C1218235   2.571   1.188  10.813  0.1159  0.2929 -0.2775
  163SOPE  H12A18236   2.657   1.175  10.743  2.0783 -3.4897  2.4540
  163SOPE  H12B18237   2.557   1.095  10.872 -1.0613 -0.6061 -1.8808
  163SOPE   C1118238   2.597   1.312  10.888  0.3415 -0.7455 -0.6624
  163SOPE  H11A18239   2.696   1.298  10.935  0.0954 -0.2263  0.0377
  163SOPE  H11B18240   2.518   1.330  10.964 -0.6240 -3.4319 -0.9419
  163SOPE     P18241   2.650   1.561  10.842 -0.0745 -0.1525 -0.4040
  163SOPE   O1318242   2.790   1.556  10.895 -0.4487  0.1537  0.2229
  163SOPE   O1418243   2.543   1.631  10.918 -0.0410 -0.5622 -0.1041
  163SOPE   O1218244   2.602   1.424  10.800  0.4359  0.0529  0.5787
  163SOPE   O1118245   2.660   1.646  10.707  0.7084 -0.9078 -0.2073
  163SOPE    C118246   2.571   1.619  10.600 -0.2616  0.0106  0.5446
  163SOPE    HA18247   2.470   1.663  10.613  0.0132  1.0187 -0.5736
  163SOPE    HB18248   2.572   1.510  10.579  0.3206  0.4148 -1.8527
  163SOPE    C218249   2.616   1.685  10.474  0.1374 -0.1107  0.3986
  163SOPE    HS18250   2.585   1.791  10.489 -1.9844 -0.4669 -1.1586
  163SOPE   O2118251   2.558   1.630  10.351  0.0289  0.1468  0.1059
  163SOPE   C2118252   2.461   1.700  10.303 -0.3465 -0.8773  0.6357
  163SOPE   O2218253   2.402   1.790  10.366 -0.1298 -0.2675 -0.6196
  163SOPE   C2218254   2.432   1.660  10.158  0.4848 -0.4990  0.6964
  163SOPE   H2R18255   2.357   1.578  10.158 -0.7401  0.5766  0.1045
  163SOPE   H2S18256   2.521   1.621  10.104 -1.2671 -2.1382 -1.2294
  163SOPE    C318257   2.775   1.686  10.446 -0.4648  0.2881  0.1813
  163SOPE    HX18258   2.821   1.586  10.453  0.1603  0.4639 -1.0770
  163SOPE    HY18259   2.828   1.739  10.528  3.7440 -1.9215 -0.8307
  163SOPE   O3118260   2.806   1.755  10.327  0.5805  0.0558  0.6434
  163SOPE   C3118261   2.832   1.689  10.211 -0.1390  0.0854 -0.6092
  163SOPE   O3218262   2.837   1.567  10.199 -0.0724 -0.4041  0.4554
  163SOPE   C3218263   2.843   1.790  10.100 -0.5228  0.4413 -0.0431
  163SOPE   H2X18264   2.909   1.876  10.125 -0.6912  0.9539 -1.2937
  163SOPE   H2Y18265   2.740   1.830  10.089 -0.3567  1.4366  1.5775
  163SOPE   C2318266   2.384   1.780  10.075  0.0572 -0.2429  0.0467
  163SOPE   H3R18267   2.452   1.867  10.093  0.4855 -0.6318  0.3211
  163SOPE   H3S18268   2.286   1.824  10.102  1.0956  1.3373  1.4852
  163SOPE   C2418269   2.375   1.753   9.927 -0.2195 -0.2264  0.3886
  163SOPE   H4R18270   2.319   1.658   9.913  0.1874 -0.4608  0.3494
  163SOPE   H4S18271   2.315   1.833   9.878 -1.1221 -0.8789  0.4067
  163SOPE   C2518272   2.499   1.719   9.853 -0.3443  1.4442 -0.1350
  163SOPE   H5R18273   2.580   1.791   9.876  2.5234 -1.2141 -1.2103
  163SOPE   H5S18274   2.535   1.617   9.879 -1.0987  1.5234  1.3361
  163SOPE   C2618275   2.476   1.717   9.697 -0.3460 -0.0344 -0.2447
  163SOPE   H6R18276   2.386   1.656   9.675  0.2465 -0.7967 -0.6140
  163SOPE   H6S18277   2.456   1.820   9.662  0.7770  0.1718 -0.3363
  163SOPE   C2718278   2.596   1.655   9.639  0.3680  0.5711  0.1929
  163SOPE   H7R18279   2.684   1.722   9.640  1.1711 -0.4354 -0.4608
  163SOPE   H7S18280   2.627   1.557   9.681 -1.2989 -0.1775 -0.2122
  163SOPE   C2818281   2.582   1.619   9.490  0.4940 -0.4400  0.6057
  163SOPE   H8R18282   2.490   1.561   9.469 -0.2453  0.4055  1.4560
  163SOPE   H8S18283   2.558   1.714   9.437 -2.4021 -1.4536 -0.0500
  163SOPE   C2918284   2.702   1.549   9.424  0.3868  0.1602  0.2156
  163SOPE   H9118285   2.731   1.455   9.475 -2.2890 -0.0477  1.5602
  163SOPE  C21018286   2.767   1.582   9.311 -0.3131 -0.5444 -0.0761
  163SOPE  H10118287   2.853   1.516   9.294  0.3301 -0.2236  1.7047
  163SOPE  C21118288   2.748   1.707   9.219  0.2305  0.1814  0.3433
  163SOPE  H11R18289   2.817   1.791   9.239 -0.0070  0.5807 -0.4939
  163SOPE  H11S18290   2.650   1.755   9.241  0.1670 -0.2414  1.0260
  163SOPE  C21218291   2.755   1.686   9.062  0.6777  0.0435  0.1221
  163SOPE  H12R18292   2.675   1.614   9.032 -0.0602  0.3938  1.1855
  163SOPE  H12S18293   2.850   1.645   9.023 -0.9392 -1.6605 -2.3155
  163SOPE  C21318294   2.740   1.815   8.978 -0.7645 -0.4715 -0.6669
  163SOPE  H13R18295   2.818   1.886   9.012 -1.3540 -0.0223 -0.2154
  163SOPE  H13S18296   2.643   1.855   9.015 -0.0216 -1.2742  2.4923
  163SOPE  C21418297   2.740   1.814   8.826 -0.5644 -0.2321  0.5141
  163SOPE  H14R18298   2.834   1.762   8.798 -0.8837 -0.4941 -0.0660
  163SOPE  H14S18299   2.751   1.921   8.797  1.3110 -0.4161  0.4253
  163SOPE  C21518300   2.618   1.747   8.764  0.6702  0.5217  0.0546
  163SOPE  H15R18301   2.520   1.792   8.791 -0.6825 -2.2964  0.2740
  163SOPE  H15S18302   2.598   1.642   8.795 -1.2864  0.0815 -2.3609
  163SOPE  C21618303   2.612   1.741   8.605 -0.2748 -0.7282  0.0512
  163SOPE  H16R18304   2.626   1.842   8.560 -0.6184 -1.5594 -2.0474
  163SOPE  H16S18305   2.506   1.720   8.580 -0.8309  0.8941  0.9038
  163SOPE  C21718306   2.704   1.648   8.542 -0.4086 -0.0330 -0.0047
  163SOPE  H17R18307   2.672   1.544   8.562  1.6210 -1.2526 -2.5048
  163SOPE  H17S18308   2.805   1.666   8.583  0.0111 -2.2159  0.0230
  163SOPE  C21818309   2.726   1.660   8.392 -0.2092 -0.1260 -0.1010
  163SOPE  H18R18310   2.814   1.602   8.358 -0.3453 -0.0450 -0.6177
  163SOPE  H18S18311   2.750   1.766   8.367  4.3498 -0.8642  0.4457
  163SOPE  H18T18312   2.634   1.630   8.337 -0.2670 -0.1307 -0.0009
  163SOPE   C3318313   2.890   1.738   9.963 -0.5804  0.2880  0.1021
  163SOPE   H3X18314   2.821   1.657   9.930 -2.4854  0.6781  2.8035
  163SOPE   H3Y18315   2.989   1.696   9.992 -0.3433  1.2380  0.6880
  163SOPE   C3418316   2.905   1.854   9.861  0.1675 -0.6786 -0.3327
  163SOPE   H4X18317   2.978   1.922   9.910 -0.0804 -1.0015  0.4901
  163SOPE   H4Y18318   2.809   1.907   9.850  0.8539  0.9148  0.9897
  163SOPE   C3518319   2.965   1.789   9.734  0.6280  0.2410  0.1955
  163SOPE   H5X18320   2.902   1.707   9.693 -1.8348  1.4900  1.3064
  163SOPE   H5Y18321   3.058   1.739   9.769  0.3401 -0.8267 -0.5070
  163SOPE   C3618322   2.999   1.881   9.625 -0.5595 -0.7822  0.0504
  163SOPE   H6X18323   3.082   1.949   9.653 -0.8058 -1.2484  2.0132
  163SOPE   H6Y18324   2.910   1.943   9.603 -0.2567  1.0921  3.4958
  163SOPE   C3718325   3.045   1.809   9.500 -0.6569 -0.3129  0.3341
  163SOPE   H7X18326   2.961   1.749   9.459 -0.2913 -1.0965  0.7216
  163SOPE   H7Y18327   3.128   1.744   9.535 -2.2777 -2.2853  0.6565
  163SOPE   C3818328   3.082   1.910   9.390  0.0437  0.0420  0.3606
  163SOPE   H8X18329   3.173   1.969   9.411  0.6796 -1.4050  1.9820
  163SOPE   H8Y18330   2.999   1.984   9.386 -1.8264 -1.9181  0.6710
  163SOPE   C3918331   3.113   1.845   9.254  0.7443 -0.2602 -0.6139
  163SOPE   H9X18332   3.022   1.788   9.225  1.3665 -2.4723  1.4563
  163SOPE   H9Y18333   3.191   1.766   9.250  0.2562 -0.7358 -0.9047
  163SOPE  C31018334   3.153   1.948   9.148 -0.2536 -0.5210  0.1602
  163SOPE  H10X18335   3.250   1.999   9.165 -1.3180  1.4407  0.6149
  163SOPE  H10Y18336   3.078   2.029   9.148  0.9231  0.5996 -0.0268
  163SOPE  C31118337   3.156   1.881   9.005  0.2856 -0.0649 -0.1202
  163SOPE  H11X18338   3.071   1.810   9.011 -0.6313  1.1442  2.9242
  163SOPE  H11Y18339   3.251   1.823   9.004  0.8134  0.7504 -2.2236
  163SOPE  C31218340   3.155   1.976   8.886  0.8317 -0.1891  0.0607
  163SOPE  H12X18341   3.234   2.054   8.892  0.0892  0.6739 -1.1079
  163SOPE  H12Y18342   3.058   2.030   8.888 -0.3980 -2.3057  0.3626
  163SOPE  C31318343   3.158   1.903   8.750 -0.7737 -0.2898 -0.1232
  163SOPE  H13X18344   3.067   1.840   8.751 -3.0881  2.7670 -0.8943
  163SOPE  H13Y18345   3.247   1.837   8.750 -0.7485 -0.3057 -2.0313
  163SOPE  C31418346   3.163   1.992   8.627  0.2929 -0.2382  0.1639
  163SOPE  H14X18347   3.239   2.070   8.648 -3.3886  3.2270  1.8824
  163SOPE  H14Y18348   3.060   2.027   8.604  0.1955 -1.1067 -0.7996
  163SOPE  C31518349   3.202   1.906   8.504 -0.8843  0.3897  0.1666
  163SOPE  H15X18350   3.290   1.840   8.520 -0.9452  0.3739  0.4559
  163SOPE  H15Y18351   3.217   1.976   8.419  1.0690  1.6259  1.4238
  163SOPE  C31618352   3.093   1.803   8.458 -0.9010 -0.3600  0.3976
  163SOPE  H16X18353   3.033   1.853   8.379  0.6547  0.9532 -0.0022
  163SOPE  H16Y18354   3.028   1.774   8.543 -0.7611  2.5221  1.5951
  163SOPE  C31718355   3.146   1.674   8.393 -0.8795  0.3680 -0.0196
  163SOPE  H17X18356   3.062   1.613   8.354  1.7049 -1.7963 -2.7358
  163SOPE  H17Y18357   3.207   1.619   8.468  1.5599  2.5947 -0.2021
  163SOPE  C31818358   3.238   1.695   8.273 -0.3739 -0.3646  0.0054
  163SOPE  H18X18359   3.190   1.768   8.204  0.1284  2.0510  2.0716
  163SOPE  H18Y18360   3.260   1.606   8.210  2.2012 -0.1834  0.5338
  163SOPE  H18Z18361   3.336   1.735   8.307 -0.6463 -0.0960  0.4783
  164SOPE     N18362   6.449   6.205  10.409  0.0637  0.0463 -0.0161
  164SOPE   HN118363   6.524   6.256  10.358 -1.1027 -0.6800 -2.6364
  164SOPE   HN218364   6.486   6.111  10.436 -0.8987  0.0357  1.3886
  164SOPE   HN318365   6.363   6.200  10.351 -1.7050  1.4666  2.3097
  164SOPE   C1218366   6.419   6.274  10.541  0.1864 -0.5340  0.2588
  164SOPE  H12A18367   6.381   6.376  10.518 -0.7160 -1.1281 -0.9879
  164SOPE  H12B18368   6.515   6.290  10.595 -1.0320 -0.3524  2.4749
  164SOPE   C1118369   6.317   6.188  10.622  0.2260  0.1106  0.1921
  164SOPE  H11A18370   6.320   6.232  10.724  2.4931 -0.8295  0.5915
  164SOPE  H11B18371   6.351   6.083  10.630  0.8782  0.2740 -0.3616
  164SOPE     P18372   6.059   6.124  10.627  0.2084  0.2999 -0.4980
  164SOPE   O1318373   6.017   6.205  10.742 -0.3544  0.5115  0.0624
  164SOPE   O1418374   6.071   5.978  10.653 -0.2786 -0.3363  0.2529
  164SOPE   O1218375   6.189   6.189  10.564 -0.5812  0.2039  0.6606
  164SOPE   O1118376   5.937   6.149  10.522  0.1845 -0.7341  0.1057
  164SOPE    C118377   5.932   6.219  10.403 -0.1228  0.2096 -0.3277
  164SOPE    HA18378   5.879   6.159  10.326  0.3957 -2.3676  1.1941
  164SOPE    HB18379   6.033   6.231  10.359 -0.0402  0.3194 -0.1138
  164SOPE    C218380   5.878   6.364  10.419 -0.1955  0.3828  0.0890
  164SOPE    HS18381   5.795   6.354  10.492 -0.3348  2.2693  0.2373
  164SOPE   O2118382   5.830   6.391  10.289 -0.1119  0.2313 -0.3939
  164SOPE   C2118383   5.725   6.471  10.276  0.4765  0.2203  0.8113
  164SOPE   O2218384   5.658   6.511  10.366  0.0030 -0.3307 -0.7330
  164SOPE   C2218385   5.685   6.483  10.123  0.0614  0.6672 -0.5334
  164SOPE   H2R18386   5.623   6.399  10.085  0.8728  1.0220 -2.7894
  164SOPE   H2S18387   5.780   6.476  10.064 -0.7064  0.0460 -1.7353
  164SOPE    C318388   5.980   6.471  10.470  0.1679 -0.0119  0.2797
  164SOPE    HX18389   6.022   6.436  10.567  1.9042  0.9485 -0.0936
  164SOPE    HY18390   5.930   6.565  10.499  0.3432 -0.3009  1.5972
  164SOPE   O3118391   6.086   6.485  10.370  1.0494  0.5837  0.0403
  164SOPE   C3118392   6.069   6.588  10.287 -0.3716  0.1706  0.1946
  164SOPE   O3218393   5.972   6.660  10.275  0.1530  0.3307 -0.2596
  164SOPE   C3218394   6.200   6.591  10.202  0.8470  0.3477  0.0078
  164SOPE   H2X18395   6.239   6.487  10.200 -1.4058 -0.6192  1.6351
  164SOPE   H2Y18396   6.273   6.650  10.261  0.3322  0.8842  0.1183
  164SOPE   C2318397   5.630   6.624  10.095  0.0511  0.4883  0.7547
  164SOPE   H3R18398   5.699   6.695  10.144  0.0748  1.4176 -0.5532
  164SOPE   H3S18399   5.528   6.640  10.136 -0.9226 -1.0390 -0.8995
  164SOPE   C2418400   5.623   6.644   9.939  0.0617 -0.1024  0.1860
  164SOPE   H4R18401   5.587   6.750   9.934 -0.4987 -0.2431  0.9699
  164SOPE   H4S18402   5.722   6.631   9.892  0.4464 -0.6857  1.1411
  164SOPE   C2518403   5.523   6.562   9.859  0.6284 -0.1761 -0.4375
  164SOPE   H5R18404   5.575   6.467   9.835  2.4743  0.3423  1.2689
  164SOPE   H5S18405   5.436   6.541   9.925  0.4325  1.7284 -0.0141
  164SOPE   C2618406   5.473   6.641   9.744  0.9674 -0.0782  1.0582
  164SOPE   H6R18407   5.377   6.608   9.698  1.3839  2.9876 -2.5446
  164SOPE   H6S18408   5.453   6.747   9.772  1.6575  1.0968 -2.3344
  164SOPE   C2718409   5.575   6.643   9.630  0.2707  0.1324  0.1689
  164SOPE   H7R18410   5.653   6.716   9.661  0.9069 -1.0722  1.5167
  164SOPE   H7S18411   5.635   6.552   9.610  0.3306 -0.0424  1.1169
  164SOPE   C2818412   5.509   6.676   9.488 -0.2856  0.2667 -0.0473
  164SOPE   H8R18413   5.573   6.632   9.408  0.5277  0.6226  0.3933
  164SOPE   H8S18414   5.412   6.622   9.487 -0.5344  0.7117 -0.4359
  164SOPE   C2918415   5.474   6.819   9.494 -0.0866  0.0657  0.5890
  164SOPE   H9118416   5.457   6.856   9.596  0.4736  0.3776  0.5726
  164SOPE  C21018417   5.471   6.913   9.398  0.8561 -0.4701  0.6352
  164SOPE  H10118418   5.441   7.015   9.425  1.9749 -0.2363  1.0401
  164SOPE  C21118419   5.502   6.896   9.251  0.0771 -0.4834  0.1766
  164SOPE  H11R18420   5.524   6.791   9.223 -0.8765 -0.9640  1.1412
  164SOPE  H11S18421   5.600   6.943   9.229  0.0526 -0.2528  0.5499
  164SOPE  C21218422   5.388   6.959   9.166 -0.0910  0.0303  0.2217
  164SOPE  H12R18423   5.414   6.977   9.060 -0.8238  1.1102  0.2049
  164SOPE  H12S18424   5.376   7.065   9.197 -1.1303 -0.8082  2.9793
  164SOPE  C21318425   5.251   6.887   9.178 -0.6431  0.0558 -0.1804
  164SOPE  H13R18426   5.218   6.900   9.283  0.0939  2.1983 -0.1642
  164SOPE  H13S18427   5.262   6.780   9.152  0.8998  0.1387  0.0476
  164SOPE  C21418428   5.144   6.955   9.082  0.1907  0.2487  0.1274
  164SOPE  H14R18429   5.046   6.903   9.085  0.1041  0.4386  0.6099
  164SOPE  H14S18430   5.174   6.943   8.976 -0.9076 -0.9004 -0.0847
  164SOPE  C21518431   5.125   7.104   9.084  0.1768 -0.0315 -0.7000
  164SOPE  H15R18432   5.164   7.128   9.186 -0.4797  0.7635 -0.6241
  164SOPE  H15S18433   5.019   7.135   9.082  0.7934  2.2261 -2.1508
  164SOPE  C21618434   5.202   7.190   8.981  0.6172  0.4330 -0.8360
  164SOPE  H16R18435   5.146   7.176   8.886 -2.0413  1.0944  0.5395
  164SOPE  H16S18436   5.305   7.149   8.969  0.1396 -0.8273 -0.6778
  164SOPE  C21718437   5.194   7.338   9.011  0.6346  0.1570  0.0626
  164SOPE  H17R18438   5.241   7.354   9.110  0.9450  0.8568 -0.1930
  164SOPE  H17S18439   5.086   7.363   9.006 -0.1156 -2.6243  0.3154
  164SOPE  C21818440   5.259   7.422   8.901  0.1638 -0.7561  0.4203
  164SOPE  H18R18441   5.365   7.445   8.923 -0.4629  0.1371  2.7542
  164SOPE  H18S18442   5.219   7.525   8.916  2.7637  0.6504 -1.4399
  164SOPE  H18T18443   5.245   7.389   8.796 -3.0773  1.4512 -0.0046
  164SOPE   C3318444   6.180   6.646  10.066  0.2416 -0.2158  0.2807
  164SOPE   H3X18445   6.283   6.657  10.025 -0.6372  2.1421 -1.4994
  164SOPE   H3Y18446   6.129   6.745  10.071  1.8691  0.6071  1.6583
  164SOPE   C3418447   6.104   6.553   9.958  0.2679 -0.0725  0.3347
  164SOPE   H4X18448   5.998   6.559   9.988  0.1832  2.8049 -0.2966
  164SOPE   H4Y18449   6.138   6.447   9.966  0.2017  0.0281  2.5535
  164SOPE   C3518450   6.115   6.600   9.810 -0.1563 -0.3983 -0.3112
  164SOPE   H5X18451   6.222   6.586   9.780  0.9665  0.8145  2.7230
  164SOPE   H5Y18452   6.096   6.709   9.821 -1.6580 -0.6274 -0.5219
  164SOPE   C3618453   6.025   6.520   9.722  0.9034  0.0621  0.2803
  164SOPE   H6X18454   5.932   6.495   9.778  1.2291  1.1786  1.3391
  164SOPE   H6Y18455   6.071   6.419   9.719 -1.5121 -1.1397  1.2273
  164SOPE   C3718456   6.016   6.594   9.593  0.3469  0.4367  0.2181
  164SOPE   H7X18457   5.959   6.688   9.609 -0.1162  0.2888 -0.4898
  164SOPE   H7Y18458   5.953   6.532   9.525 -0.8726  2.6485 -0.8006
  164SOPE   C3818459   6.146   6.631   9.520  0.7989 -0.4296 -0.5104
  164SOPE   H8X18460   6.189   6.534   9.488 -0.2069 -0.9923 -0.2068
  164SOPE   H8Y18461   6.219   6.672   9.593 -2.6385  1.3471  2.1940
  164SOPE   C3918462   6.123   6.725   9.405 -0.4278  0.3613 -0.5687
  164SOPE   H9X18463   6.217   6.732   9.346 -0.6246 -1.3795 -1.1624
  164SOPE   H9Y18464   6.096   6.819   9.458 -0.3097 -0.7468  1.5680
  164SOPE  C31018465   6.008   6.691   9.303  0.1662  0.4895 -0.4235
  164SOPE  H10X18466   5.917   6.661   9.359  1.1317  1.5271  1.8124
  164SOPE  H10Y18467   6.028   6.604   9.237 -0.4084  0.6779 -0.8468
  164SOPE  C31118468   5.967   6.812   9.221 -0.4873  0.6413 -0.0406
  164SOPE  H11X18469   6.065   6.847   9.184  0.2541 -0.9812  0.2735
  164SOPE  H11Y18470   5.928   6.902   9.273 -1.4376 -0.1659  0.7121
  164SOPE  C31218471   5.874   6.769   9.107 -0.5479  0.2059 -0.6277
  164SOPE  H12X18472   5.784   6.723   9.152  0.8669 -0.1513  2.1004
  164SOPE  H12Y18473   5.921   6.685   9.052 -3.7205 -1.6370 -0.7593
  164SOPE  C31318474   5.844   6.887   9.017 -0.5529  0.6840  0.5398
  164SOPE  H13X18475   5.937   6.940   8.990  1.2007 -1.0877  2.6788
  164SOPE  H13Y18476   5.771   6.951   9.073  0.7134  2.2535  0.4476
  164SOPE  C31418477   5.772   6.846   8.896  0.3792 -0.1456  0.1868
  164SOPE  H14X18478   5.826   6.783   8.822 -2.7058 -0.7432 -1.7676
  164SOPE  H14Y18479   5.740   6.939   8.845  0.9459  0.0847  0.2540
  164SOPE  C31518480   5.638   6.779   8.930 -0.0366  0.1805 -0.1067
  164SOPE  H15X18481   5.574   6.825   9.008 -0.2370 -1.4974  0.7617
  164SOPE  H15Y18482   5.658   6.679   8.973  0.9667  1.5979  3.0996
  164SOPE  C31618483   5.546   6.770   8.806 -0.7273 -0.2934 -0.1327
  164SOPE  H16X18484   5.591   6.720   8.717 -1.1275  0.2499 -0.6441
  164SOPE  H16Y18485   5.525   6.876   8.781 -0.3191 -0.3427 -0.7009
  164SOPE  C31718486   5.413   6.699   8.843  0.1849  0.0996 -0.8990
  164SOPE  H17X18487   5.360   6.755   8.923 -0.7460 -1.3339 -0.4908
  164SOPE  H17Y18488   5.426   6.598   8.887 -0.0701  0.9341  1.2268
  164SOPE  C31818489   5.314   6.698   8.724 -0.1843 -0.4928  0.0932
  164SOPE  H18X18490   5.359   6.627   8.652  1.2300  1.7786 -1.3845
  164SOPE  H18Y18491   5.297   6.799   8.679  0.2468 -1.0338 -1.3347
  164SOPE  H18Z18492   5.214   6.675   8.766 -0.2615  4.1388  3.2790
  165SOPE     N18493   3.523   0.442  11.030  0.6606  0.2453  0.3125
  165SOPE   HN118494   3.561   0.514  11.095  1.1990  0.6953 -0.4774
  165SOPE   HN218495   3.451   0.491  10.972  0.9852 -1.1681 -1.3679
  165SOPE   HN318496   3.478   0.363  11.078  0.3692 -0.7511 -1.5219
  165SOPE   C1218497   3.633   0.394  10.939 -0.2804 -0.9348  0.6257
  165SOPE  H12A18498   3.717   0.369  11.006 -0.9409 -0.4457  1.6691
  165SOPE  H12B18499   3.653   0.479  10.869  0.8419 -2.1843 -0.6191
  165SOPE   C1118500   3.599   0.273  10.850  0.0121  0.2517  0.1074
  165SOPE  H11A18501   3.499   0.299  10.810 -0.5399  0.4568  1.5501
  165SOPE  H11B18502   3.558   0.194  10.917 -5.3975  3.6263  1.4301
  165SOPE     P18503   3.746   0.308  10.638  0.1047 -0.1837  0.0869
  165SOPE   O1318504   3.874   0.257  10.585 -0.0277 -0.5889 -0.7007
  165SOPE   O1418505   3.743   0.456  10.648 -0.4998 -0.0277 -0.2165
  165SOPE   O1218506   3.712   0.238  10.767  0.5372  0.1270 -0.5242
  165SOPE   O1118507   3.633   0.270  10.544  0.2692 -0.3389 -0.4501
  165SOPE    C118508   3.650   0.151  10.467  0.1709  0.4742  0.7282
  165SOPE    HA18509   3.559   0.089  10.459  0.2560  0.0325  2.6563
  165SOPE    HB18510   3.723   0.082  10.514  1.3502  1.7788  0.8858
  165SOPE    C218511   3.697   0.186  10.320 -0.5849 -0.2077 -0.4305
  165SOPE    HS18512   3.777   0.263  10.323  0.8837 -1.5345 -2.4908
  165SOPE   O2118513   3.590   0.224  10.231  0.1422 -0.0386  0.3345
  165SOPE   C2118514   3.486   0.142  10.196 -0.4673 -0.0062  0.4742
  165SOPE   O2218515   3.479   0.023  10.216  0.2593 -0.2664  0.0774
  165SOPE   C2218516   3.371   0.226  10.139 -0.2878  0.1801  0.0045
  165SOPE   H2R18517   3.321   0.250  10.235 -0.3693 -2.3547  0.6571
  165SOPE   H2S18518   3.305   0.157  10.082 -0.2424 -1.4718  1.8858
  165SOPE    C318519   3.779   0.060  10.255  0.2778  0.1431  0.0618
  165SOPE    HX18520   3.713  -0.028  10.268  1.1058 -0.5892 -0.5567
  165SOPE    HY18521   3.866   0.040  10.321 -0.0927  2.2914  1.3091
  165SOPE   O3118522   3.807   0.071  10.113 -0.3176  0.1066  0.3552
  165SOPE   C3118523   3.883   0.168  10.085  0.0466 -0.2204 -0.1436
  165SOPE   O3218524   3.941   0.239  10.168  0.1508 -0.4820  0.0089
  165SOPE   C3218525   3.875   0.194   9.939 -0.0498  0.2798 -0.2328
  165SOPE   H2X18526   3.893   0.109   9.869  0.2599  1.0974 -1.1728
  165SOPE   H2Y18527   3.941   0.281   9.919 -2.3120  2.1842  0.1991
  165SOPE   C2318528   3.408   0.355  10.054 -0.4344 -0.0759  0.4432
  165SOPE   H3R18529   3.465   0.339   9.960  0.3478  0.7123  0.7712
  165SOPE   H3S18530   3.483   0.410  10.114 -0.2670  1.5161 -1.1494
  165SOPE   C2418531   3.289   0.440  10.025 -0.2735  0.0490  0.2965
  165SOPE   H4R18532   3.246   0.458  10.126  1.3379 -0.8711  1.1769
  165SOPE   H4S18533   3.335   0.528   9.975  0.4875  0.0532  0.9745
  165SOPE   C2518534   3.181   0.367   9.933 -0.5476 -0.2689 -0.1443
  165SOPE   H5R18535   3.238   0.292   9.874 -2.1995 -0.8854 -1.0224
  165SOPE   H5S18536   3.111   0.304   9.993 -1.7595  0.3131 -0.9208
  165SOPE   C2618537   3.108   0.465   9.839 -0.7572  0.0489  0.3478
  165SOPE   H6R18538   3.079   0.556   9.894  2.3347 -0.5433  3.2720
  165SOPE   H6S18539   3.179   0.494   9.758 -0.8366 -0.5150  0.0655
  165SOPE   C2718540   2.989   0.414   9.761  0.5485  0.0300 -0.0692
  165SOPE   H7R18541   3.009   0.311   9.726  1.9016 -0.3063  1.5511
  165SOPE   H7S18542   2.906   0.400   9.834  1.7198  1.1785  1.5769
  165SOPE   C2818543   2.921   0.515   9.657 -0.0795  0.3827 -0.1923
  165SOPE   H8R18544   2.812   0.501   9.644  0.0372  0.4674 -1.3409
  165SOPE   H8S18545   2.927   0.617   9.702  0.7697 -0.2658  1.2387
  165SOPE   C2918546   2.994   0.503   9.527  0.1290  0.0079  0.3857
  165SOPE   H9118547   2.967   0.415   9.467  1.7805 -0.0363 -0.3509
  165SOPE  C21018548   3.070   0.598   9.464  0.5327  0.2211 -0.1115
  165SOPE  H10118549   3.103   0.575   9.362 -1.0933 -0.6857 -0.4810
  165SOPE  C21118550   3.109   0.729   9.515 -0.4451 -0.3791  0.4276
  165SOPE  H11R18551   3.218   0.730   9.537  0.1377  0.5631 -2.0833
  165SOPE  H11S18552   3.060   0.765   9.608  0.2975 -0.1534  0.7340
  165SOPE  C21218553   3.094   0.846   9.419 -0.1808  0.2646  0.6429
  165SOPE  H12R18554   3.129   0.942   9.463 -0.5523  0.5691  0.2813
  165SOPE  H12S18555   2.994   0.863   9.375  0.8901 -1.2087 -2.7067
  165SOPE  C21318556   3.194   0.827   9.298 -0.5684  0.3263 -0.1944
  165SOPE  H13R18557   3.172   0.735   9.240  0.7287 -0.0068 -0.1943
  165SOPE  H13S18558   3.298   0.819   9.336 -0.1012 -1.3129 -1.6871
  165SOPE  C21418559   3.187   0.941   9.207  0.1611 -0.1182  0.3321
  165SOPE  H14R18560   3.218   1.031   9.263  1.0212  0.7179 -1.4213
  165SOPE  H14S18561   3.084   0.963   9.173  0.3037 -1.3764 -1.0200
  165SOPE  C21518562   3.272   0.915   9.083  0.2993  0.0880 -0.4930
  165SOPE  H15R18563   3.234   0.821   9.037 -0.6495  1.3149 -2.3502
  165SOPE  H15S18564   3.376   0.901   9.118 -1.0546 -1.8109  3.4568
  165SOPE  C21618565   3.277   1.035   8.984 -0.2202  0.1938 -0.1456
  165SOPE  H16R18566   3.303   1.125   9.045  0.9251 -0.5323  0.4635
  165SOPE  H16S18567   3.173   1.040   8.944 -0.4797  2.6498  0.6070
  165SOPE  C21718568   3.375   1.026   8.868 -0.3198 -0.4986 -0.4227
  165SOPE  H17R18569   3.350   0.936   8.808  2.2682 -2.3880  1.1446
  165SOPE  H17S18570   3.481   1.020   8.899 -0.2005  0.2805 -0.6618
  165SOPE  C21818571   3.367   1.140   8.768 -0.1151 -0.7668  0.3466
  165SOPE  H18R18572   3.271   1.142   8.711  0.5085 -1.3391 -0.7744
  165SOPE  H18S18573   3.452   1.143   8.697 -0.6504  1.8018 -0.2737
  165SOPE  H18T18574   3.382   1.237   8.819  2.7457 -1.3696  0.8210
  165SOPE   C3318575   3.737   0.258   9.902 -0.0718  0.0781  0.2003
  165SOPE   H3X18576   3.704   0.342   9.968  0.9777  1.3746 -0.8518
  165SOPE   H3Y18577   3.660   0.185   9.934  0.5449 -0.8252 -0.3292
  165SOPE   C3418578   3.730   0.300   9.758 -0.0605  0.1173  0.2316
  165SOPE   H4X18579   3.733   0.212   9.690 -0.3237  0.2021  0.1048
  165SOPE   H4Y18580   3.823   0.353   9.728  0.7295 -1.5637 -0.4260
  165SOPE   C3518581   3.615   0.385   9.711 -0.2936 -0.0591 -0.2225
  165SOPE   H5X18582   3.636   0.488   9.749 -1.9517 -0.4241  1.8479
  165SOPE   H5Y18583   3.526   0.354   9.768 -0.9562 -1.2354 -1.8465
  165SOPE   C3618584   3.572   0.376   9.564 -0.0101  0.1501  0.1280
  165SOPE   H6X18585   3.518   0.280   9.550 -2.0936  0.7949  2.7312
  165SOPE   H6Y18586   3.664   0.378   9.502  0.5616 -0.8652  0.9193
  165SOPE   C3718587   3.471   0.481   9.512 -0.6322 -0.5533  0.2017
  165SOPE   H7X18588   3.510   0.585   9.507 -0.1994 -0.7752 -1.8758
  165SOPE   H7Y18589   3.380   0.484   9.576 -2.1779 -0.8428 -1.8516
  165SOPE   C3818590   3.427   0.450   9.364 -0.3139  0.5709  0.0501
  165SOPE   H8X18591   3.342   0.518   9.341 -1.0205 -0.9119 -2.0411
  165SOPE   H8Y18592   3.391   0.347   9.346  2.1094  0.0369 -2.4678
  165SOPE   C3918593   3.538   0.473   9.264 -0.5739 -0.8235  0.5709
  165SOPE   H9X18594   3.630   0.421   9.297 -0.5198 -2.4642 -1.8623
  165SOPE   H9Y18595   3.573   0.577   9.245  1.5754 -2.0094 -2.9583
  165SOPE  C31018596   3.509   0.416   9.122  0.0585  0.1722  0.2225
  165SOPE  H10X18597   3.491   0.307   9.126  0.7031 -0.0377 -1.5325
  165SOPE  H10Y18598   3.602   0.426   9.061  1.5060 -0.0643  2.2942
  165SOPE  C31118599   3.399   0.499   9.056  0.2788  0.3746 -0.5488
  165SOPE  H11X18600   3.413   0.608   9.070 -2.8875  0.8487 -0.3425
  165SOPE  H11Y18601   3.309   0.475   9.116  0.2087 -0.4698 -0.9828
  165SOPE  C31218602   3.369   0.476   8.913  0.5192  0.6314 -0.1526
  165SOPE  H12X18603   3.371   0.365   8.899 -0.6954  0.8051 -2.0305
  165SOPE  H12Y18604   3.458   0.508   8.855  0.4151  0.2325 -0.5434
  165SOPE  C31318605   3.237   0.543   8.875 -0.8316  0.1421  0.0885
  165SOPE  H13X18606   3.244   0.654   8.874 -2.6401  0.2812 -0.8061
  165SOPE  H13Y18607   3.156   0.505   8.940 -1.7184  0.0179 -1.0473
  165SOPE  C31418608   3.184   0.506   8.732 -0.1303 -0.0540 -0.4777
  165SOPE  H14X18609   3.104   0.580   8.710  0.3789  1.0202  1.0683
  165SOPE  H14Y18610   3.133   0.408   8.736 -0.4814  0.1685  1.1237
  165SOPE  C31518611   3.300   0.503   8.623  0.6684  0.7010 -0.4943
  165SOPE  H15X18612   3.363   0.417   8.656  0.4170  0.0356 -1.6712
  165SOPE  H15Y18613   3.375   0.584   8.636  2.1650 -0.7808  0.5154
  165SOPE  C31618614   3.244   0.488   8.483 -0.4379 -0.1244 -0.5623
  165SOPE  H16X18615   3.207   0.587   8.449 -1.0178  0.2705  1.1134
  165SOPE  H16Y18616   3.161   0.415   8.487 -1.9617  1.4828 -1.2830
  165SOPE  C31718617   3.344   0.434   8.377  0.2017  0.3527 -0.0219
  165SOPE  H17X18618   3.372   0.327   8.392  0.9690  0.5735  0.1594
  165SOPE  H17Y18619   3.437   0.494   8.385  0.2247  0.5736 -1.5602
  165SOPE  C31818620   3.290   0.441   8.228  0.1823  0.2682 -1.4674
  165SOPE  H18X18621   3.353   0.385   8.156 -0.4151 -0.9847 -1.0334
  165SOPE  H18Y18622   3.285   0.546   8.192  0.5806  1.2105  1.0405
  165SOPE  H18Z18623   3.188   0.397   8.226  0.0865  0.3179  0.4551
  166SOPE     N18624   6.730   2.531  10.699  0.0325  0.5353 -0.5806
  166SOPE   HN118625   6.789   2.580  10.769 -2.9078  1.3007  1.5683
  166SOPE   HN218626   6.776   2.509  10.609  1.3925  2.0202 -0.2766
  166SOPE   HN318627   6.644   2.583  10.672  0.8288  2.0709 -0.2476
  166SOPE   C1218628   6.685   2.402  10.769  0.8229  0.5602 -0.3243
  166SOPE  H12A18629   6.646   2.329  10.696 -3.6797 -0.1332  2.4137
  166SOPE  H12B18630   6.597   2.418  10.834  1.1875  0.2446  0.2544
  166SOPE   C1118631   6.790   2.349  10.867  0.2528 -0.6866  0.2189
  166SOPE  H11A18632   6.757   2.256  10.918  2.9832  0.1189  3.9417
  166SOPE  H11B18633   6.785   2.422  10.951  2.6976  0.5778 -0.6394
  166SOPE     P18634   7.000   2.209  10.798  0.0547 -0.6345 -0.3726
  166SOPE   O1318635   7.018   2.144  10.928 -0.3372 -0.1380 -0.2808
  166SOPE   O1418636   7.113   2.241  10.708  0.6353 -0.0970 -0.0915
  166SOPE   O1218637   6.922   2.352  10.820 -0.0717  0.7378 -0.7071
  166SOPE   O1118638   6.902   2.118  10.722 -0.0209 -0.0596 -0.5169
  166SOPE    C118639   6.862   2.136  10.590  0.4948 -0.6993  0.0754
  166SOPE    HA18640   6.951   2.128  10.523  0.9215  1.3888  0.3137
  166SOPE    HB18641   6.832   2.242  10.572  0.0560 -0.4842  1.9041
  166SOPE    C218642   6.736   2.050  10.567 -0.4692  1.0658  0.4804
  166SOPE    HS18643   6.671   2.057  10.657 -1.4228  0.6661 -0.1600
  166SOPE   O2118644   6.781   1.908  10.560 -0.3925  0.3680 -0.1575
  166SOPE   C2118645   6.702   1.807  10.538 -0.5598 -0.4507  0.8873
  166SOPE   O2218646   6.583   1.806  10.551  0.7538 -0.2686  0.4034
  166SOPE   C2218647   6.782   1.674  10.493  0.0182 -0.1789  0.5825
  166SOPE   H2R18648   6.789   1.622  10.591  1.0258 -0.9853  0.1143
  166SOPE   H2S18649   6.885   1.703  10.463 -0.1867 -0.3704 -0.3626
  166SOPE    C318650   6.647   2.089  10.446 -0.4680 -0.1153 -0.0927
  166SOPE    HX18651   6.618   2.195  10.463 -2.0408 -0.4416 -0.5423
  166SOPE    HY18652   6.556   2.026  10.450  0.4297 -1.5499 -1.3200
  166SOPE   O3118653   6.711   2.066  10.323  0.1390  0.1042 -0.3243
  166SOPE   C3118654   6.777   2.156  10.262  0.6184  0.0246  0.5618
  166SOPE   O3218655   6.793   2.274  10.295 -0.3811  0.4379 -0.3851
  166SOPE   C3218656   6.839   2.095  10.139  0.0368  0.0201  0.0365
  166SOPE   H2X18657   6.774   2.035  10.072 -1.0374  1.6526 -0.4419
  166SOPE   H2Y18658   6.918   2.023  10.170  1.1036 -0.6836 -3.7409
  166SOPE   C2318659   6.697   1.592  10.398 -0.1179  0.4063  0.7746
  166SOPE   H3R18660   6.590   1.593  10.428 -0.2667  2.1644  0.2876
  166SOPE   H3S18661   6.737   1.489  10.408 -0.7390 -0.0285 -0.8912
  166SOPE   C2418662   6.703   1.621  10.245  0.2106  0.4019 -0.2201
  166SOPE   H4R18663   6.677   1.727  10.230  1.7783  0.9302  0.5410
  166SOPE   H4S18664   6.810   1.609  10.215  0.0581 -2.2956  0.0704
  166SOPE   C2518665   6.616   1.520  10.167 -0.0447  0.0124  0.3471
  166SOPE   H5R18666   6.631   1.420  10.214 -0.9853  0.3496  1.4259
  166SOPE   H5S18667   6.506   1.535  10.174 -0.1654 -0.1432 -0.9847
  166SOPE   C2618668   6.651   1.516  10.020 -0.5966  0.4167 -0.0600
  166SOPE   H6R18669   6.663   1.620   9.981  1.4761 -0.3167 -1.5349
  166SOPE   H6S18670   6.749   1.472   9.993 -0.7666  0.4369 -0.7321
  166SOPE   C2718671   6.542   1.440   9.940 -0.4164  0.5742 -0.2412
  166SOPE   H7R18672   6.529   1.343   9.992  0.0761  1.0967  0.9016
  166SOPE   H7S18673   6.445   1.495   9.936 -0.0651  1.3427  1.1862
  166SOPE   C2818674   6.590   1.424   9.788  0.0705 -0.3397 -0.5686
  166SOPE   H8R18675   6.686   1.368   9.786  2.4373  3.3999 -2.1357
  166SOPE   H8S18676   6.514   1.367   9.729  0.5032  0.0684 -1.5486
  166SOPE   C2918677   6.614   1.556   9.722  0.3394 -0.5308 -0.9197
  166SOPE   H9118678   6.547   1.634   9.761  1.0412  0.1594 -1.0790
  166SOPE  C21018679   6.685   1.585   9.614  0.2308  0.6928 -0.1936
  166SOPE  H10118680   6.690   1.686   9.571 -1.5274  1.7467  1.8790
  166SOPE  C21118681   6.770   1.482   9.537  0.0664 -0.6424 -0.5094
  166SOPE  H11R18682   6.806   1.402   9.605  0.7128 -0.1861 -0.3015
  166SOPE  H11S18683   6.865   1.529   9.503 -0.8125  0.0697 -2.0940
  166SOPE  C21218684   6.690   1.421   9.423 -0.0393  0.0938  0.0862
  166SOPE  H12R18685   6.608   1.365   9.472  0.1481 -1.1359 -0.9554
  166SOPE  H12S18686   6.750   1.344   9.370  0.2335 -2.3580  3.6152
  166SOPE  C21318687   6.618   1.522   9.331 -0.3492  0.0848  0.9792
  166SOPE  H13R18688   6.532   1.575   9.379  0.5319  2.1202  0.4200
  166SOPE  H13S18689   6.572   1.469   9.244  1.0549 -0.8078  0.7548
  166SOPE  C21418690   6.714   1.620   9.259 -0.2160  0.2886 -0.5550
  166SOPE  H14R18691   6.771   1.563   9.184 -0.2866  0.1850 -0.5293
  166SOPE  H14S18692   6.790   1.671   9.323 -0.2646  0.3629 -0.5555
  166SOPE  C21518693   6.633   1.724   9.183  0.3202  0.1667  0.6497
  166SOPE  H15R18694   6.557   1.774   9.247 -1.3564 -1.5160  0.0844
  166SOPE  H15S18695   6.573   1.673   9.105 -0.7832  0.2723  1.4066
  166SOPE  C21618696   6.718   1.826   9.103  0.6161  0.1646 -0.2708
  166SOPE  H16R18697   6.781   1.776   9.027  1.7142 -2.2829  2.0909
  166SOPE  H16S18698   6.786   1.886   9.167  3.2830 -1.6244 -1.2696
  166SOPE  C21718699   6.628   1.934   9.043  0.0640 -0.2608 -0.2416
  166SOPE  H17R18700   6.552   1.961   9.119  0.4972 -1.5832  0.6936
  166SOPE  H17S18701   6.578   1.881   8.958 -1.9433 -1.8544  1.8010
  166SOPE  C21818702   6.707   2.051   8.993  0.0348 -0.4226 -0.0360
  166SOPE  H18R18703   6.764   2.015   8.904 -0.4969 -1.8263  0.1630
  166SOPE  H18S18704   6.787   2.094   9.056  0.4716 -1.1658 -0.0632
  166SOPE  H18T18705   6.650   2.139   8.957  0.8329 -0.1444 -0.6537
  166SOPE   C3318706   6.889   2.205  10.034  0.0183  0.4508 -0.4337
  166SOPE   H3X18707   6.964   2.260  10.095 -0.1798 -0.9883  1.1894
  166SOPE   H3Y18708   6.800   2.271  10.021 -0.0997  1.4151  3.7434
  166SOPE   C3418709   6.953   2.146   9.904 -0.1782 -0.9362  0.0515
  166SOPE   H4X18710   7.040   2.084   9.932 -0.2368 -1.5077 -0.9981
  166SOPE   H4Y18711   6.984   2.237   9.847 -1.6348 -0.9683 -0.8558
  166SOPE   C3518712   6.865   2.055   9.816 -0.6962  0.2291 -0.4865
  166SOPE   H5X18713   6.766   2.105   9.808 -0.6722  0.2043 -0.9664
  166SOPE   H5Y18714   6.841   1.960   9.869 -0.5361  0.8512  0.7392
  166SOPE   C3618715   6.934   2.036   9.677  0.1244 -0.1480 -0.5407
  166SOPE   H6X18716   7.036   2.002   9.706  0.5118  1.2466 -0.1777
  166SOPE   H6Y18717   6.948   2.130   9.620  1.9812 -0.4864 -0.6943
  166SOPE   C3718718   6.872   1.923   9.583  0.3016 -0.3101 -0.6055
  166SOPE   H7X18719   6.769   1.958   9.560  0.0092 -1.0784 -0.4938
  166SOPE   H7Y18720   6.856   1.827   9.635 -1.1758 -0.7876 -1.8818
  166SOPE   C3818721   6.948   1.900   9.457 -0.3943  0.5987 -0.5637
  166SOPE   H8X18722   6.967   2.000   9.412  0.3286  1.5294  1.6984
  166SOPE   H8Y18723   6.903   1.829   9.384  1.6558 -0.5090 -0.8298
  166SOPE   C3918724   7.090   1.836   9.489 -0.2346  0.0065  0.4447
  166SOPE   H9X18725   7.070   1.728   9.506  1.8108 -0.4814  0.0778
  166SOPE   H9Y18726   7.143   1.873   9.580 -1.0138  1.2264  0.4218
  166SOPE  C31018727   7.197   1.840   9.375 -0.4736 -0.7331  1.5117
  166SOPE  H10X18728   7.280   1.766   9.379  0.5829  0.4309  2.0124
  166SOPE  H10Y18729   7.246   1.939   9.360  0.2249 -1.2324  0.2630
  166SOPE  C31118730   7.129   1.820   9.223 -0.1492  0.4611 -0.5253
  166SOPE  H11X18731   7.044   1.891   9.208 -0.2094 -0.1071 -3.3448
  166SOPE  H11Y18732   7.084   1.719   9.229 -2.3676  1.4803  2.6459
  166SOPE  C31218733   7.225   1.830   9.109 -0.1586  0.3406  0.1241
  166SOPE  H12X18734   7.301   1.749   9.111 -1.6935 -1.2080  2.5702
  166SOPE  H12Y18735   7.281   1.926   9.109 -1.5019  1.1503  0.1974
  166SOPE  C31318736   7.149   1.814   8.974 -0.5702  1.0818  0.1416
  166SOPE  H13X18737   7.212   1.828   8.884 -0.0430  0.7960  0.4608
  166SOPE  H13Y18738   7.075   1.896   8.963 -0.6750  1.1357  1.1569
  166SOPE  C31418739   7.073   1.683   8.960 -0.8259  0.9542  0.3959
  166SOPE  H14X18740   7.006   1.666   9.047 -0.9568 -1.2649 -0.0836
  166SOPE  H14Y18741   7.149   1.603   8.959 -1.7343  0.0138 -1.8719
  166SOPE  C31518742   6.990   1.672   8.834  0.1823  0.4095 -0.3885
  166SOPE  H15X18743   7.048   1.708   8.746  1.9434 -1.1711  0.0565
  166SOPE  H15Y18744   6.900   1.737   8.838 -0.6792 -0.7128 -0.9539
  166SOPE  C31618745   6.949   1.530   8.806  0.1572 -0.1834 -0.4274
  166SOPE  H16X18746   7.034   1.458   8.803  0.4899  0.1932 -0.2369
  166SOPE  H16Y18747   6.896   1.530   8.709 -2.1898 -1.0200  0.7898
  166SOPE  C31718748   6.844   1.480   8.918 -0.6870 -0.4635  0.4196
  166SOPE  H17X18749   6.769   1.562   8.923  1.4091  1.5197  1.0368
  166SOPE  H17Y18750   6.900   1.492   9.013  0.4370  0.2363 -0.2989
  166SOPE  C31818751   6.787   1.344   8.906  0.1115  0.0416  0.2518
  166SOPE  H18X18752   6.866   1.269   8.929 -0.0499  0.4310  2.2336
  166SOPE  H18Y18753   6.751   1.315   8.805 -3.2812 -2.0969  1.9148
  166SOPE  H18Z18754   6.711   1.334   8.986  1.0495 -2.5004  0.9207
  167SOPE     N18755   0.985   4.736   6.172  0.5694 -0.2215  0.4542
  167SOPE   HN118756   1.069   4.775   6.125 -0.2137  0.2939 -0.5613
  167SOPE   HN218757   0.990   4.633   6.181 -2.2199 -0.5597 -0.7404
  167SOPE   HN318758   0.898   4.753   6.117  0.8335 -0.4335 -0.0375
  167SOPE   C1218759   0.974   4.785   6.311 -0.3431 -0.5539 -0.0634
  167SOPE  H12A18760   1.063   4.746   6.366  0.3022  1.3170  0.2957
  167SOPE  H12B18761   0.885   4.743   6.362 -0.1358  0.6635  1.3699
  167SOPE   C1118762   0.974   4.936   6.338 -0.6725  0.1863  0.5263
  167SOPE  H11A18763   0.995   4.966   6.443 -1.5043 -0.0515  0.7684
  167SOPE  H11B18764   0.870   4.965   6.309 -1.7675 -3.5004  0.2169
  167SOPE     P18765   1.066   5.134   6.190 -0.0698  0.3674 -0.1617
  167SOPE   O1318766   0.928   5.158   6.162 -0.1607 -0.0128  0.3412
  167SOPE   O1418767   1.162   5.144   6.076 -0.2844  0.1407 -0.4970
  167SOPE   O1218768   1.083   4.994   6.253 -0.2882 -0.5754 -0.3178
  167SOPE   O1118769   1.107   5.240   6.292 -0.1389 -0.0625 -0.3012
  167SOPE    C118770   1.242   5.240   6.341 -0.4244  0.5320 -0.1629
  167SOPE    HA18771   1.266   5.342   6.377 -0.9946  0.9053 -0.8234
  167SOPE    HB18772   1.322   5.221   6.267  0.3144  0.6691  0.5837
  167SOPE    C218773   1.266   5.138   6.464 -0.3088 -0.3315  0.2720
  167SOPE    HS18774   1.166   5.095   6.487 -0.7137  0.6323  0.3747
  167SOPE   O2118775   1.295   5.218   6.582 -0.7962  0.0563  0.2421
  167SOPE   C2118776   1.412   5.275   6.602  0.4187 -0.0665  0.0217
  167SOPE   O2218777   1.510   5.279   6.531  0.4433  0.1146  0.1294
  167SOPE   C2218778   1.420   5.330   6.749 -0.4021 -0.5133 -0.1719
  167SOPE   H2R18779   1.448   5.434   6.722 -0.4460 -0.7101 -0.9868
  167SOPE   H2S18780   1.510   5.282   6.793  2.3765  0.8899 -3.7595
  167SOPE    C318781   1.363   5.023   6.434  0.4939  0.1246 -0.5520
  167SOPE    HX18782   1.449   5.069   6.382 -0.2266  0.9996 -0.9773
  167SOPE    HY18783   1.309   4.951   6.368 -0.0743 -0.6825  0.7473
  167SOPE   O3118784   1.420   4.957   6.549 -0.3621 -0.4039  0.4408
  167SOPE   C3118785   1.346   4.880   6.621  0.3343  0.5700  0.5468
  167SOPE   O3218786   1.230   4.850   6.598 -0.0426  0.6262  0.5581
  167SOPE   C3218787   1.439   4.811   6.722 -0.2090  0.7314 -0.0088
  167SOPE   H2X18788   1.491   4.896   6.771  0.7601 -1.3386  2.8528
  167SOPE   H2Y18789   1.507   4.742   6.668 -0.8046 -0.6558  0.9583
  167SOPE   C2318790   1.293   5.317   6.829 -0.2409  0.6755  0.4886
  167SOPE   H3R18791   1.267   5.211   6.845 -0.7217  0.9293  1.4651
  167SOPE   H3S18792   1.217   5.369   6.766  0.0090 -2.0876 -2.3368
  167SOPE   C2418793   1.293   5.380   6.969 -0.0113  0.9214 -0.4129
  167SOPE   H4R18794   1.332   5.484   6.962  0.4400  0.7160 -1.0185
  167SOPE   H4S18795   1.197   5.405   7.019  0.8076  0.7279  1.3615
  167SOPE   C2518796   1.371   5.290   7.069  0.3690  0.5550  0.6538
  167SOPE   H5R18797   1.318   5.193   7.076  1.7181 -0.2141  0.5160
  167SOPE   H5S18798   1.480   5.272   7.055  0.5486  1.3094  1.0433
  167SOPE   C2618799   1.369   5.350   7.215 -1.0775 -0.2882  0.4669
  167SOPE   H6R18800   1.408   5.453   7.212  0.6307 -0.8921  0.6894
  167SOPE   H6S18801   1.266   5.347   7.255 -1.2652  1.8190  0.2341
  167SOPE   C2718802   1.459   5.266   7.314 -0.0473  0.3955 -0.6380
  167SOPE   H7R18803   1.416   5.165   7.301 -0.9144  0.7348 -0.4828
  167SOPE   H7S18804   1.565   5.252   7.283  0.3577 -1.0283  1.2722
  167SOPE   C2818805   1.453   5.314   7.465  0.2370  1.1106  1.0762
  167SOPE   H8R18806   1.511   5.408   7.482  0.7124  0.5514  2.7602
  167SOPE   H8S18807   1.348   5.338   7.491  0.2505 -0.5222  2.8581
  167SOPE   C2918808   1.503   5.205   7.555 -0.1037  0.1204  0.0272
  167SOPE   H9118809   1.596   5.155   7.527 -0.5574 -1.5405  1.3775
  167SOPE  C21018810   1.447   5.166   7.666  0.7943 -0.5359 -0.7379
  167SOPE  H10118811   1.499   5.084   7.719  1.3516 -0.7710 -1.6258
  167SOPE  C21118812   1.315   5.225   7.713 -0.0876 -0.6375 -0.0550
  167SOPE  H11R18813   1.229   5.189   7.652  0.1627 -1.7417  0.2181
  167SOPE  H11S18814   1.309   5.335   7.720 -0.9440 -0.7883  2.2105
  167SOPE  C21218815   1.282   5.180   7.856 -0.0798 -0.7313  0.1675
  167SOPE  H12R18816   1.276   5.069   7.864  2.0398 -0.9288 -0.4646
  167SOPE  H12S18817   1.180   5.222   7.871  0.3200 -0.4504  2.6239
  167SOPE  C21318818   1.367   5.249   7.963  0.2906 -0.1788 -0.0858
  167SOPE  H13R18819   1.353   5.359   7.958 -3.5793 -0.3002  3.3849
  167SOPE  H13S18820   1.473   5.220   7.944 -0.1665 -0.5731 -2.2749
  167SOPE  C21418821   1.306   5.236   8.103 -0.2523 -0.0761  0.2408
  167SOPE  H14R18822   1.200   5.266   8.092 -0.0596  0.4399 -0.2578
  167SOPE  H14S18823   1.353   5.306   8.175 -0.0412 -0.6728  0.6932
  167SOPE  C21518824   1.322   5.090   8.160  0.0314 -0.2314  0.4840
  167SOPE  H15R18825   1.432   5.078   8.169 -0.1811 -0.7951  3.1350
  167SOPE  H15S18826   1.280   5.014   8.091  0.8026 -0.9356  0.7677
  167SOPE  C21618827   1.258   5.069   8.300  0.5611 -0.3734  0.7757
  167SOPE  H16R18828   1.300   5.144   8.371 -3.0276  0.9981  1.6932
  167SOPE  H16S18829   1.296   4.971   8.336  0.4776 -0.8869 -0.4585
  167SOPE  C21718830   1.103   5.072   8.304  0.3461  0.5783  0.3853
  167SOPE  H17R18831   1.046   5.009   8.232 -1.6927  0.9036  1.6294
  167SOPE  H17S18832   1.076   5.178   8.283 -0.7980  0.5908  1.7610
  167SOPE  C21818833   1.049   5.038   8.440 -0.3513 -0.1157 -0.3708
  167SOPE  H18R18834   0.940   5.057   8.445 -0.2263  0.3753  1.0317
  167SOPE  H18S18835   1.109   5.103   8.507  0.4914 -2.0588  0.8439
  167SOPE  H18T18836   1.075   4.934   8.471  0.1479 -0.0732 -0.6323
  167SOPE   C3318837   1.381   4.738   6.843  0.0603 -0.2233 -0.2623
  167SOPE   H3X18838   1.467   4.683   6.886  1.0150  2.2379  1.1633
  167SOPE   H3Y18839   1.307   4.669   6.797 -0.9078  1.1780 -0.8741
  167SOPE   C3418840   1.313   4.827   6.950 -0.2782 -0.1872  0.1899
  167SOPE   H4X18841   1.224   4.882   6.911  0.4580  1.7065  1.0322
  167SOPE   H4Y18842   1.380   4.906   6.990  0.9080 -0.8878 -0.3678
  167SOPE   C3518843   1.271   4.748   7.080 -0.5607  0.4385 -0.2787
  167SOPE   H5X18844   1.371   4.717   7.119 -0.3838  0.8516 -0.3970
  167SOPE   H5Y18845   1.216   4.657   7.050  0.1353 -0.8207  1.9973
  167SOPE   C3618846   1.203   4.843   7.181 -0.0433 -0.2609 -0.8351
  167SOPE   H6X18847   1.123   4.902   7.131 -2.2024 -0.5848  1.9554
  167SOPE   H6Y18848   1.278   4.920   7.208 -1.8433  1.3175 -0.1425
  167SOPE   C3718849   1.139   4.754   7.299  0.2840 -1.0669  0.2080
  167SOPE   H7X18850   1.209   4.705   7.369 -1.4325 -2.7381  0.8575
  167SOPE   H7Y18851   1.060   4.684   7.262 -0.4275 -1.2500  1.9859
  167SOPE   C3818852   1.063   4.853   7.385  0.1007 -0.6461  0.4064
  167SOPE   H8X18853   0.977   4.892   7.326  0.6719 -0.0890 -0.0556
  167SOPE   H8Y18854   1.133   4.935   7.409 -0.7629 -0.0056  0.8137
  167SOPE   C3918855   0.996   4.792   7.511 -0.0506 -0.4908 -0.2840
  167SOPE   H9X18856   1.056   4.725   7.577 -0.3113 -0.1005  0.3549
  167SOPE   H9Y18857   0.916   4.720   7.482  0.5796 -2.0012  1.5000
  167SOPE  C31018858   0.929   4.900   7.604 -0.0870 -0.3008 -0.0065
  167SOPE  H10X18859   0.854   4.965   7.554 -0.1468  0.2498  0.7919
  167SOPE  H10Y18860   1.005   4.977   7.630  0.8817 -1.2266 -0.0081
  167SOPE  C31118861   0.885   4.843   7.737  0.1381  0.1622  0.3485
  167SOPE  H11X18862   0.956   4.767   7.776  0.9516  0.0674 -1.2357
  167SOPE  H11Y18863   0.788   4.795   7.712 -1.0701  2.9416 -0.6896
  167SOPE  C31218864   0.871   4.966   7.824 -1.1568  0.5993 -0.0045
  167SOPE  H12X18865   0.807   5.045   7.778  0.1195  1.6330 -0.0627
  167SOPE  H12Y18866   0.975   5.006   7.834 -0.0507 -1.9237 -0.7709
  167SOPE  C31318867   0.804   4.929   7.956  0.4221 -0.0276  0.5098
  167SOPE  H13X18868   0.849   4.842   8.010 -2.7116 -0.2054  3.1868
  167SOPE  H13Y18869   0.694   4.917   7.942 -0.2980  2.4904  3.0575
  167SOPE  C31418870   0.823   5.050   8.048  0.6304  0.0190 -0.2106
  167SOPE  H14X18871   0.766   5.139   8.013  2.5618  1.1912 -0.4989
  167SOPE  H14Y18872   0.928   5.086   8.048  0.4469  0.6113 -1.4500
  167SOPE  C31518873   0.765   5.013   8.187 -0.3204 -0.0397 -0.0411
  167SOPE  H15X18874   0.771   5.113   8.236 -2.4125 -0.6496  1.5916
  167SOPE  H15Y18875   0.841   4.946   8.232  0.4235 -0.9329 -2.4834
  167SOPE  C31618876   0.624   4.957   8.197  0.0857 -0.4217  0.4863
  167SOPE  H16X18877   0.608   4.874   8.125  1.4323  1.2481 -1.8861
  167SOPE  H16Y18878   0.546   5.030   8.164 -1.2952 -0.2931  3.6369
  167SOPE  C31718879   0.576   4.913   8.338  0.2745 -0.2802 -0.9079
  167SOPE  H17X18880   0.498   4.836   8.323  1.4132 -1.9009  1.0498
  167SOPE  H17Y18881   0.530   5.002   8.387 -2.0413 -1.9014  0.0539
  167SOPE  C31818882   0.668   4.840   8.437 -0.1927  0.3949 -0.0620
  167SOPE  H18X18883   0.602   4.826   8.525 -0.1373  0.8062  0.0466
  167SOPE  H18Y18884   0.748   4.898   8.488 -1.9469  1.3187  1.7343
  167SOPE  H18Z18885   0.698   4.742   8.393 -1.6571  0.0500 -0.3320
  168SOPE     N18886   1.916   1.445   6.126 -1.0747 -0.0944 -0.3402
  168SOPE   HN118887   2.004   1.398   6.153 -1.4536 -0.8380 -0.3783
  168SOPE   HN218888   1.872   1.403   6.042  0.2314  0.2109 -1.2070
  168SOPE   HN318889   1.933   1.544   6.096  0.8499 -0.1798  0.3381
  168SOPE   C1218890   1.835   1.436   6.252 -0.5101  0.2411  0.2163
  168SOPE  H12A18891   1.903   1.438   6.340 -0.2699  0.7518  0.0255
  168SOPE  H12B18892   1.782   1.339   6.243 -1.4954  0.5821  1.8895
  168SOPE   C1118893   1.723   1.544   6.262 -0.3539 -0.0544  0.2058
  168SOPE  H11A18894   1.769   1.644   6.255 -0.3413 -0.1598 -2.2155
  168SOPE  H11B18895   1.667   1.511   6.351  0.4772 -1.4223  0.2523
  168SOPE     P18896   1.493   1.474   6.135  0.0677 -0.3838  0.5010
  168SOPE   O1318897   1.493   1.334   6.113 -0.5305  0.6794  0.3523
  168SOPE   O1418898   1.429   1.559   6.032  0.8179  0.0294 -0.1080
  168SOPE   O1218899   1.638   1.530   6.144  0.1336  0.4461  0.0015
  168SOPE   O1118900   1.440   1.495   6.282  0.1831 -0.0816  0.6834
  168SOPE    C118901   1.353   1.605   6.314 -0.2738  0.1182 -0.2697
  168SOPE    HA18902   1.256   1.596   6.262  0.4747  0.9994 -1.8750
  168SOPE    HB18903   1.388   1.707   6.288  0.0780  0.5383  1.6485
  168SOPE    C218904   1.329   1.606   6.465 -0.3408  0.5182 -0.4527
  168SOPE    HS18905   1.268   1.695   6.492 -2.0643 -0.8017  0.1226
  168SOPE   O2118906   1.457   1.597   6.536 -0.6455 -0.1487 -0.3496
  168SOPE   C2118907   1.517   1.713   6.544  0.6331  0.8184  0.3284
  168SOPE   O2218908   1.476   1.822   6.505  0.3064  0.2923 -0.0472
  168SOPE   C2218909   1.653   1.698   6.618  0.0365  0.4592  0.7568
  168SOPE   H2R18910   1.696   1.800   6.612  1.3475 -0.0654  0.7845
  168SOPE   H2S18911   1.711   1.623   6.560  0.2929 -0.1923  1.8091
  168SOPE    C318912   1.244   1.483   6.499  0.2316 -0.6463 -0.2831
  168SOPE    HX18913   1.297   1.394   6.459 -1.0309 -1.5791  0.0547
  168SOPE    HY18914   1.136   1.490   6.473 -0.2536 -1.8776  1.2549
  168SOPE   O3118915   1.239   1.463   6.640 -0.0281 -0.2239  0.1012
  168SOPE   C3118916   1.179   1.355   6.678  0.4288  0.8888 -0.3917
  168SOPE   O3218917   1.105   1.283   6.610 -0.3909  0.0730 -1.2644
  168SOPE   C3218918   1.204   1.328   6.830 -0.3708  0.2178 -0.5303
  168SOPE   H2X18919   1.206   1.427   6.880  0.6704  1.5699 -3.0610
  168SOPE   H2Y18920   1.309   1.289   6.829 -0.1430  0.8219 -0.6278
  168SOPE   C2318921   1.642   1.649   6.770 -0.0994 -0.4619  0.0191
  168SOPE   H3R18922   1.578   1.727   6.817  1.2755  0.2259  0.8063
  168SOPE   H3S18923   1.743   1.663   6.814 -0.1271  2.6251 -0.7003
  168SOPE   C2418924   1.588   1.504   6.796 -0.1741 -0.2083 -0.5511
  168SOPE   H4R18925   1.483   1.502   6.758  0.1361 -2.2457 -1.4063
  168SOPE   H4S18926   1.641   1.426   6.737  0.2155  0.6873 -1.4312
  168SOPE   C2518927   1.593   1.471   6.947 -0.4919 -0.4060  0.2699
  168SOPE   H5R18928   1.551   1.558   7.003  0.3737  1.0460 -1.2524
  168SOPE   H5S18929   1.528   1.385   6.974  0.6835 -0.8674  1.7844
  168SOPE   C2618930   1.733   1.432   7.002  0.6369  0.1157  0.3694
  168SOPE   H6R18931   1.763   1.350   6.933 -1.5457  0.5296 -1.1496
  168SOPE   H6S18932   1.798   1.523   6.997 -0.1060  0.9735  3.7433
  168SOPE   C2718933   1.717   1.384   7.154  0.5846 -0.2107  0.5233
  168SOPE   H7R18934   1.709   1.470   7.223  1.6760 -1.9267  2.9448
  168SOPE   H7S18935   1.632   1.316   7.174 -0.0695  0.7400  1.0204
  168SOPE   C2818936   1.844   1.318   7.211  0.8777 -0.2545  0.1081
  168SOPE   H8R18937   1.813   1.260   7.301 -0.1085 -0.0470 -0.0945
  168SOPE   H8S18938   1.879   1.235   7.146  0.2793 -2.3435  2.2969
  168SOPE   C2918939   1.950   1.418   7.247  0.2805 -0.4897  0.4097
  168SOPE   H9118940   1.980   1.488   7.167 -1.4075  0.8960  0.9271
  168SOPE  C21018941   1.996   1.438   7.371  0.5258 -0.2121  0.5494
  168SOPE  H10118942   2.078   1.510   7.386  0.5152  0.0271 -0.4444
  168SOPE  C21118943   1.968   1.353   7.494  0.8490  0.1884  0.0549
  168SOPE  H11R18944   2.052   1.361   7.566  1.2691 -0.7995 -0.3054
  168SOPE  H11S18945   1.975   1.245   7.469  1.5071 -0.5968  3.1921
  168SOPE  C21218946   1.839   1.390   7.559  0.0241 -0.0087 -0.6569
  168SOPE  H12R18947   1.753   1.370   7.491 -0.9278  0.0413  0.4997
  168SOPE  H12S18948   1.845   1.497   7.587 -0.4823 -0.3813  1.0070
  168SOPE  C21318949   1.800   1.301   7.679  0.7181  0.2696  0.0400
  168SOPE  H13R18950   1.828   1.197   7.653  0.5941  0.1256  0.4849
  168SOPE  H13S18951   1.692   1.318   7.699  0.9053 -0.7286  2.1314
  168SOPE  C21418952   1.875   1.342   7.804  0.3203 -0.3577  0.2764
  168SOPE  H14R18953   1.855   1.448   7.827  0.8247 -0.0901 -0.4810
  168SOPE  H14S18954   1.981   1.331   7.774  0.0348 -1.3858 -0.4374
  168SOPE  C21518955   1.825   1.260   7.929  0.0749  0.3817  0.2811
  168SOPE  H15R18956   1.720   1.286   7.956 -0.1696 -0.3754  0.0877
  168SOPE  H15S18957   1.901   1.281   8.007  1.1268 -0.9401 -0.3342
  168SOPE  C21618958   1.827   1.110   7.913 -0.3496 -0.5762 -0.3342
  168SOPE  H16R18959   1.927   1.083   7.874  0.7804  3.4973 -0.7065
  168SOPE  H16S18960   1.745   1.075   7.847  0.2308 -2.4916 -0.1056
  168SOPE  C21718961   1.808   1.036   8.049 -0.0269  0.9845  0.8555
  168SOPE  H17R18962   1.890   1.079   8.110  2.0529  0.9911 -1.7751
  168SOPE  H17S18963   1.828   0.930   8.022  0.1845  1.0707  0.6691
  168SOPE  C21818964   1.664   1.062   8.109  0.2057  0.0116 -0.7164
  168SOPE  H18R18965   1.646   1.004   8.202 -0.3521 -1.9392 -1.9972
  168SOPE  H18S18966   1.586   1.041   8.033  1.0811 -1.8355 -1.1669
  168SOPE  H18T18967   1.664   1.168   8.143 -0.6852 -0.0049 -0.6582
  168SOPE   C3318968   1.123   1.221   6.904  0.3072 -0.1285  0.2912
  168SOPE   H3X18969   1.097   1.144   6.828  2.1064  2.9720 -3.8405
  168SOPE   H3Y18970   1.026   1.261   6.942  1.5534  1.8684  1.5291
  168SOPE   C3418971   1.197   1.160   7.020  0.7678 -0.0764 -0.2371
  168SOPE   H4X18972   1.207   1.236   7.101 -0.6964  0.2592 -0.3394
  168SOPE   H4Y18973   1.302   1.132   6.998  1.3105  0.0885  1.8644
  168SOPE   C3518974   1.120   1.033   7.080  0.3675  0.3444  0.6703
  168SOPE   H5X18975   1.088   0.957   7.007  1.9571 -1.6181  1.9075
  168SOPE   H5Y18976   1.017   1.063   7.108  0.2132  0.1249  0.3341
  168SOPE   C3618977   1.185   0.971   7.202  0.7222 -0.2371 -0.0665
  168SOPE   H6X18978   1.296   0.984   7.199  0.7095  0.6947  1.8150
  168SOPE   H6Y18979   1.155   0.864   7.198  0.7685 -0.2368 -3.6669
  168SOPE   C3718980   1.156   1.042   7.339 -0.5012 -0.6898 -0.8970
  168SOPE   H7X18981   1.050   1.025   7.367 -0.5283  0.8155  0.0200
  168SOPE   H7Y18982   1.174   1.151   7.344 -0.6358 -0.7326  1.3340
  168SOPE   C3818983   1.250   0.992   7.452  0.1920  0.0142  0.2042
  168SOPE   H8X18984   1.355   1.016   7.425  0.4080  1.0314  1.8086
  168SOPE   H8Y18985   1.232   0.883   7.458 -0.6593  0.2370  2.3694
  168SOPE   C3918986   1.205   1.067   7.575  0.5307 -0.1070 -0.1033
  168SOPE   H9X18987   1.107   1.022   7.599 -0.1467  1.2841 -0.1673
  168SOPE   H9Y18988   1.184   1.174   7.553 -0.4794 -0.0084  1.2622
  168SOPE  C31018989   1.309   1.060   7.686 -0.0060  0.3122  0.1064
  168SOPE  H10X18990   1.268   1.128   7.764 -0.0909 -2.3573  2.5358
  168SOPE  H10Y18991   1.408   1.102   7.660 -0.1848  1.3059  0.9368
  168SOPE  C31118992   1.314   0.920   7.743 -0.3952 -0.8263 -0.1995
  168SOPE  H11X18993   1.367   0.847   7.679 -0.7174  0.2244 -1.7253
  168SOPE  H11Y18994   1.211   0.880   7.759 -1.1367  1.6022  1.7635
  168SOPE  C31218995   1.383   0.919   7.886 -1.0104 -0.3892 -0.1993
  168SOPE  H12X18996   1.363   1.007   7.950  0.8517  1.1057 -1.5474
  168SOPE  H12Y18997   1.491   0.933   7.865 -0.9117  0.4225  0.7740
  168SOPE  C31318998   1.379   0.781   7.956 -0.5224 -0.0728  0.0381
  168SOPE  H13X18999   1.422   0.705   7.887 -2.3462 -0.9079 -0.2275
  168SOPE  H13Y19000   1.272   0.761   7.979 -0.6275 -1.8980 -1.7078
  168SOPE  C31419001   1.455   0.771   8.085 -0.0413 -0.1525 -0.1492
  168SOPE  H14X19002   1.561   0.801   8.073  0.0786  1.2664  3.3173
  168SOPE  H14Y19003   1.462   0.663   8.112  2.5063 -0.3635 -1.3571
  168SOPE  C31519004   1.379   0.841   8.204 -0.9911  0.6355  0.2955
  168SOPE  H15X19005   1.280   0.793   8.217 -0.2688 -0.4322  2.4003
  168SOPE  H15Y19006   1.369   0.948   8.179  0.4244  0.6561 -0.3361
  168SOPE  C31619007   1.436   0.811   8.343 -0.0859  0.0603 -0.1474
  168SOPE  H16X19008   1.543   0.838   8.339  0.0987  0.4031  3.6702
  168SOPE  H16Y19009   1.445   0.701   8.354 -2.3603 -0.2715 -1.0654
  168SOPE  C31719010   1.374   0.878   8.471 -0.0302 -0.3106  1.0644
  168SOPE  H17X19011   1.267   0.848   8.483 -0.5268  1.1789  0.6617
  168SOPE  H17Y19012   1.366   0.986   8.447  5.1757 -0.0399 -0.6371
  168SOPE  C31819013   1.444   0.861   8.604  0.0372 -0.1372 -0.1118
  168SOPE  H18X19014   1.384   0.895   8.691 -0.4661  0.6820 -0.7619
  168SOPE  H18Y19015   1.537   0.922   8.604  0.2988 -0.4795  1.9854
  168SOPE  H18Z19016   1.473   0.756   8.628  0.6826  0.5328  2.2585
  169SOPE     N19017   3.357   4.227   6.218 -0.1146 -0.2616  0.1766
  169SOPE   HN119018   3.259   4.192   6.219  1.0293 -3.9721  0.2897
  169SOPE   HN219019   3.414   4.162   6.276  0.4079  1.0238  1.1496
  169SOPE   HN319020   3.351   4.321   6.261 -2.4876 -1.0215  1.7349
  169SOPE   C1219021   3.416   4.240   6.080 -0.3605 -0.3218 -0.1690
  169SOPE  H12A19022   3.343   4.194   6.010  0.7429 -0.9741 -0.9225
  169SOPE  H12B19023   3.507   4.177   6.072 -0.1574 -0.4262  2.2583
  169SOPE   C1119024   3.450   4.388   6.061 -0.2679 -0.3347 -0.6608
  169SOPE  H11A19025   3.359   4.451   6.068  1.2421  1.9352 -0.3264
  169SOPE  H11B19026   3.483   4.398   5.956  0.4861 -3.3406 -0.7950
  169SOPE     P19027   3.712   4.439   6.099  0.2280 -0.0279  0.0958
  169SOPE   O1319028   3.726   4.560   6.009 -0.0115 -0.2307  0.3913
  169SOPE   O1419029   3.745   4.301   6.051 -0.5335 -0.2971 -0.5978
  169SOPE   O1219030   3.558   4.436   6.153 -0.6753  0.4079 -0.0239
  169SOPE   O1119031   3.788   4.455   6.233 -0.0633 -0.5328 -0.3291
  169SOPE    C119032   3.795   4.350   6.323  0.6807  0.3123 -1.1188
  169SOPE    HA19033   3.875   4.284   6.282  0.5555 -1.4480  1.2703
  169SOPE    HB19034   3.703   4.291   6.337  0.9630  0.0207 -0.4172
  169SOPE    C219035   3.851   4.397   6.460  0.2458 -0.0535 -0.4210
  169SOPE    HS19036   3.843   4.307   6.524 -1.9439  0.2568 -0.1532
  169SOPE   O2119037   3.776   4.508   6.512 -0.3032  0.2527 -0.2132
  169SOPE   C2119038   3.666   4.471   6.570  0.1741 -0.4213 -0.2511
  169SOPE   O2219039   3.617   4.358   6.582  0.1208 -0.1025  0.2398
  169SOPE   C2219040   3.595   4.599   6.625 -0.4121 -0.3379  0.3563
  169SOPE   H2R19041   3.556   4.663   6.544  2.1252  0.8712  0.0008
  169SOPE   H2S19042   3.666   4.667   6.678  1.5364 -1.2526 -0.9791
  169SOPE    C319043   3.998   4.440   6.451  0.5232  0.2284  0.0812
  169SOPE    HX19044   4.002   4.532   6.389  1.9132  0.6505  0.7615
  169SOPE    HY19045   4.067   4.367   6.406  0.4029 -0.6578  1.2835
  169SOPE   O3119046   4.047   4.474   6.581 -0.1667 -0.5179 -0.1823
  169SOPE   C3119047   4.081   4.375   6.654  0.5785 -0.0521 -0.2485
  169SOPE   O3219048   4.067   4.256   6.624  0.4855 -0.1602 -0.0421
  169SOPE   C3219049   4.148   4.425   6.781 -0.0369  0.3726  0.0324
  169SOPE   H2X19050   4.076   4.487   6.838 -1.4578 -1.4600  0.3342
  169SOPE   H2Y19051   4.231   4.485   6.739  0.3686 -2.2819 -3.3952
  169SOPE   C2319052   3.482   4.558   6.717  0.2060  0.4408  0.0167
  169SOPE   H3R19053   3.519   4.480   6.787  0.9193  0.9259  0.1905
  169SOPE   H3S19054   3.404   4.507   6.656 -1.7277  1.2120  1.7145
  169SOPE   C2419055   3.407   4.675   6.781  0.3980 -0.5433  0.2939
  169SOPE   H4R19056   3.476   4.750   6.826 -1.7629  2.2616 -0.7796
  169SOPE   H4S19057   3.358   4.723   6.693  0.3862  1.8193  1.4920
  169SOPE   C2519058   3.298   4.635   6.877 -0.5967 -0.0872  1.0000
  169SOPE   H5R19059   3.226   4.573   6.820 -0.8494  0.9905  0.1158
  169SOPE   H5S19060   3.352   4.578   6.956 -1.1149  1.4960  2.5871
  169SOPE   C2619061   3.224   4.753   6.945  0.2030 -0.8391 -0.5899
  169SOPE   H6R19062   3.288   4.806   7.019 -0.2594  1.6898 -1.8559
  169SOPE   H6S19063   3.179   4.826   6.873 -2.1866  0.7406  2.2973
  169SOPE   C2719064   3.113   4.711   7.041  0.8745  0.1508  0.3114
  169SOPE   H7R19065   3.048   4.645   6.981  0.8401 -0.2070  0.7351
  169SOPE   H7S19066   3.148   4.653   7.129 -2.2963 -0.8072  1.0969
  169SOPE   C2819067   3.034   4.833   7.099 -0.1024  0.0932 -0.5468
  169SOPE   H8R19068   3.099   4.917   7.133  1.5859 -1.3102 -0.1999
  169SOPE   H8S19069   2.974   4.872   7.013  0.6004 -0.8307 -1.4739
  169SOPE   C2919070   2.947   4.783   7.213 -0.3329 -0.0809  0.0780
  169SOPE   H9119071   2.985   4.697   7.268 -2.2002 -1.1641 -0.2163
  169SOPE  C21019072   2.813   4.816   7.226 -0.4738  0.2752  0.8663
  169SOPE  H10119073   2.763   4.755   7.302 -0.2090 -0.2921  0.5852
  169SOPE  C21119074   2.723   4.914   7.152  0.6552 -0.4369 -0.0542
  169SOPE  H11R19075   2.625   4.871   7.119 -0.2565  1.9705 -0.7227
  169SOPE  H11S19076   2.770   4.951   7.058  1.7646  2.1202  1.4177
  169SOPE  C21219077   2.695   5.042   7.242  0.1938 -0.0829  0.4420
  169SOPE  H12R19078   2.643   5.128   7.194  0.7780  0.1873  0.2845
  169SOPE  H12S19079   2.793   5.086   7.269 -0.7376  1.0392  2.1646
  169SOPE  C21319080   2.625   5.021   7.383 -0.6115  0.2278  0.3703
  169SOPE  H13R19081   2.681   4.953   7.451 -0.2699 -2.0667 -2.0011
  169SOPE  H13S19082   2.530   4.965   7.366 -2.1171  2.9076 -0.6006
  169SOPE  C21419083   2.592   5.155   7.449  0.4842 -0.0925 -0.2742
  169SOPE  H14R19084   2.517   5.211   7.389 -0.0737  0.9494  1.3254
  169SOPE  H14S19085   2.692   5.202   7.448  0.9214 -1.0147 -0.7250
  169SOPE  C21519086   2.542   5.154   7.595  0.6475  0.1369  0.6777
  169SOPE  H15R19087   2.469   5.072   7.608 -0.3537  0.8653 -0.2010
  169SOPE  H15S19088   2.477   5.241   7.616  0.8107 -0.1679  2.6300
  169SOPE  C21619089   2.646   5.165   7.709  0.0550  0.1182 -0.0620
  169SOPE  H16R19090   2.685   5.269   7.719  2.9822 -0.9266  0.4780
  169SOPE  H16S19091   2.737   5.104   7.687 -0.2405  0.2436 -1.7997
  169SOPE  C21719092   2.600   5.114   7.846 -0.0511  0.1728  0.2309
  169SOPE  H17R19093   2.545   5.018   7.836 -2.2364  1.5075 -1.2750
  169SOPE  H17S19094   2.535   5.199   7.876  0.8891  1.7896 -2.0972
  169SOPE  C21819095   2.712   5.079   7.940 -0.0657  0.1193 -0.0214
  169SOPE  H18R19096   2.682   5.010   8.021  1.8822  0.7110  1.2621
  169SOPE  H18S19097   2.744   5.171   7.993  1.8190 -0.9667  0.8326
  169SOPE  H18T19098   2.802   5.035   7.893  1.5057  1.0744  1.9417
  169SOPE   C3319099   4.194   4.304   6.862 -0.3082  0.2979 -0.1658
  169SOPE   H3X19100   4.264   4.236   6.808  0.5941  1.3810 -0.3947
  169SOPE   H3Y19101   4.107   4.242   6.893 -0.7601  0.0393 -1.8687
  169SOPE   C3419102   4.268   4.349   6.995  0.0978  0.1242  0.4476
  169SOPE   H4X19103   4.189   4.401   7.052 -1.0201  0.5596 -1.4227
  169SOPE   H4Y19104   4.352   4.421   6.982  0.7570 -0.2092  2.4704
  169SOPE   C3519105   4.301   4.228   7.081 -0.4905 -0.6461 -0.6737
  169SOPE   H5X19106   4.356   4.152   7.022 -0.9568 -1.5650  0.0538
  169SOPE   H5Y19107   4.206   4.181   7.117  0.2836 -1.2707  0.6301
  169SOPE   C3619108   4.363   4.265   7.215 -0.1440 -0.5888  0.2930
  169SOPE   H6X19109   4.297   4.328   7.279  0.9578  0.3107  0.5848
  169SOPE   H6Y19110   4.448   4.336   7.205 -1.1308  0.6748  0.5061
  169SOPE   C3719111   4.420   4.144   7.298 -0.0709  0.9678 -0.3546
  169SOPE   H7X19112   4.485   4.094   7.223 -1.4550  0.4393 -1.2351
  169SOPE   H7Y19113   4.337   4.077   7.327 -0.2304  1.3159  0.0128
  169SOPE   C3819114   4.475   4.190   7.432  0.7506  0.2606 -1.1801
  169SOPE   H8X19115   4.545   4.108   7.457 -0.4589 -0.8386 -1.2471
  169SOPE   H8Y19116   4.544   4.276   7.423 -1.0190  1.8831  0.0395
  169SOPE   C3919117   4.367   4.202   7.538  0.2465  0.1036 -0.1429
  169SOPE   H9X19118   4.321   4.105   7.568 -1.9676  1.5010  1.3271
  169SOPE   H9Y19119   4.283   4.263   7.498 -0.6129 -0.8715  0.0988
  169SOPE  C31019120   4.422   4.280   7.673 -0.2946  0.3269  0.4698
  169SOPE  H10X19121   4.448   4.382   7.638  3.6634 -1.4707 -2.6370
  169SOPE  H10Y19122   4.517   4.234   7.706  0.0886 -1.8715 -3.1296
  169SOPE  C31119123   4.316   4.291   7.788 -0.3585 -0.2152  1.1275
  169SOPE  H11X19124   4.294   4.191   7.831 -0.2290 -0.0204  1.6566
  169SOPE  H11Y19125   4.228   4.326   7.730  0.4828 -0.5014 -0.3834
  169SOPE  C31219126   4.345   4.400   7.889  0.5331 -0.0205  0.2942
  169SOPE  H12X19127   4.334   4.496   7.833  1.5828  0.0126  0.1223
  169SOPE  H12Y19128   4.443   4.394   7.941  1.3933  0.6576 -1.1884
  169SOPE  C31319129   4.243   4.406   8.000  0.7065  0.4261 -0.1298
  169SOPE  H13X19130   4.285   4.469   8.081  0.8820  1.3446 -0.9133
  169SOPE  H13Y19131   4.221   4.303   8.035  1.6737  0.5432  0.8969
  169SOPE  C31419132   4.112   4.480   7.962 -0.1723 -0.1289 -0.0363
  169SOPE  H14X19133   4.062   4.416   7.887  0.3295 -0.4883 -0.0644
  169SOPE  H14Y19134   4.126   4.580   7.915 -0.0142  0.5957  1.4836
  169SOPE  C31519135   4.013   4.510   8.078 -0.1446 -0.3943  0.0743
  169SOPE  H15X19136   3.983   4.410   8.115 -2.7768  1.4039  3.3386
  169SOPE  H15Y19137   3.923   4.565   8.044  0.1613 -0.0291 -0.1641
  169SOPE  C31619138   4.078   4.596   8.189 -0.6195  0.3911 -0.5688
  169SOPE  H16X19139   4.130   4.677   8.135  1.2024 -1.7731 -2.2618
  169SOPE  H16Y19140   4.160   4.540   8.239  1.0305 -0.7439 -4.1974
  169SOPE  C31719141   3.973   4.641   8.290 -0.4305 -0.1972 -0.1759
  169SOPE  H17X19142   4.021   4.680   8.382 -0.1934  0.4476 -0.5690
  169SOPE  H17Y19143   3.919   4.547   8.318  2.3801 -1.8675 -0.0326
  169SOPE  C31819144   3.885   4.746   8.232  0.3386 -0.6234 -0.2678
  169SOPE  H18X19145   3.811   4.713   8.156  1.2806  0.5524 -1.7621
  169SOPE  H18Y19146   3.934   4.823   8.169 -1.0917  0.0030 -0.6450
  169SOPE  H18Z19147   3.831   4.791   8.318 -0.5126 -2.8887  0.4449
  170SOPE     N19148   4.040   2.616   5.994 -0.7793  0.2853 -0.3235
  170SOPE   HN119149   4.074   2.672   5.912 -1.5067  1.9429  0.4598
  170SOPE   HN219150   3.968   2.549   5.962  0.5281 -0.3278 -2.2103
  170SOPE   HN319151   4.001   2.692   6.053  0.5313 -0.3871  1.4904
  170SOPE   C1219152   4.156   2.558   6.075  0.1936 -0.3521 -0.0998
  170SOPE  H12A19153   4.237   2.634   6.077  0.6174 -0.7921 -0.3414
  170SOPE  H12B19154   4.190   2.466   6.025 -3.1276 -1.9047  0.2367
  170SOPE   C1119155   4.104   2.523   6.216 -0.4061 -0.2287  0.8344
  170SOPE  H11A19156   4.072   2.618   6.263  1.8226  0.0226  1.9964
  170SOPE  H11B19157   4.186   2.484   6.280  1.3245  0.2959 -0.9578
  170SOPE     P19158   3.876   2.414   6.288 -0.0844 -0.0687  0.6849
  170SOPE   O1319159   3.792   2.298   6.244 -0.4722  0.4358 -0.3078
  170SOPE   O1419160   3.815   2.546   6.275 -0.6995  0.0216 -0.0285
  170SOPE   O1219161   4.006   2.417   6.207 -0.1836  0.0391  1.0630
  170SOPE   O1119162   3.924   2.389   6.435  0.2133 -0.4869  0.3801
  170SOPE    C119163   4.034   2.307   6.472 -0.3146 -0.3345 -0.4412
  170SOPE    HA19164   4.064   2.340   6.574 -0.9953 -1.5345  0.1702
  170SOPE    HB19165   4.122   2.313   6.405 -0.2064  0.2553 -0.2522
  170SOPE    C219166   3.985   2.165   6.496 -0.2052  0.0437  0.1574
  170SOPE    HS19167   3.951   2.119   6.401 -0.0113  1.1893 -0.4915
  170SOPE   O2119168   3.884   2.173   6.591 -0.0472 -0.3535 -0.4434
  170SOPE   C2119169   3.810   2.061   6.598 -0.0828 -0.1644 -0.0037
  170SOPE   O2219170   3.816   1.963   6.524  0.0706  0.3410 -0.4743
  170SOPE   C2219171   3.711   2.090   6.713  0.4803  0.3616  0.2092
  170SOPE   H2R19172   3.628   2.147   6.667 -0.4640 -2.7868 -2.4588
  170SOPE   H2S19173   3.765   2.144   6.793  0.7756 -0.3425  0.4908
  170SOPE    C319174   4.110   2.086   6.545 -0.3980  0.4140  0.0330
  170SOPE    HX19175   4.189   2.071   6.468  2.4520  0.3831  2.7734
  170SOPE    HY19176   4.068   1.986   6.568 -0.5412 -0.8804 -4.7556
  170SOPE   O3119177   4.178   2.129   6.666 -0.3140 -0.2531 -0.1740
  170SOPE   C3119178   4.305   2.184   6.643 -0.7819  0.4408 -0.2971
  170SOPE   O3219179   4.348   2.216   6.536 -0.0946 -0.6766  0.5969
  170SOPE   C3219180   4.388   2.196   6.771  0.0608  0.0034  0.8269
  170SOPE   H2X19181   4.493   2.208   6.737 -0.2356 -0.4255 -0.2690
  170SOPE   H2Y19182   4.380   2.102   6.829 -0.0499  0.1917  1.1220
  170SOPE   C2319183   3.652   1.951   6.776  0.0141 -0.6366  0.4701
  170SOPE   H3R19184   3.742   1.895   6.809  0.9115  0.2913 -0.3057
  170SOPE   H3S19185   3.611   1.889   6.693  0.7400  1.7553 -1.8498
  170SOPE   C2419186   3.569   1.970   6.898 -0.9555 -0.2474 -0.5233
  170SOPE   H4R19187   3.614   2.055   6.953 -1.5435 -0.1457 -0.1899
  170SOPE   H4S19188   3.465   1.999   6.869 -0.3802  1.7077 -0.7440
  170SOPE   C2519189   3.552   1.847   6.980 -0.5772 -0.3407  0.3657
  170SOPE   H5R19190   3.467   1.850   7.051 -0.7072  2.0023  0.1808
  170SOPE   H5S19191   3.520   1.773   6.904 -2.4687  1.0302 -0.2238
  170SOPE   C2619192   3.667   1.799   7.062  0.1507  1.1598 -0.5715
  170SOPE   H6R19193   3.766   1.801   7.012  0.2375 -0.1692 -0.4930
  170SOPE   H6S19194   3.686   1.855   7.156  0.5455 -0.8757  0.6309
  170SOPE   C2719195   3.645   1.651   7.102  0.0898  0.2948  0.3997
  170SOPE   H7R19196   3.541   1.638   7.140 -0.6340  2.2146 -0.7882
  170SOPE   H7S19197   3.653   1.600   7.003 -0.7436 -0.6450  0.7923
  170SOPE   C2819198   3.754   1.597   7.199 -0.0754  0.2338  0.2505
  170SOPE   H8R19199   3.753   1.487   7.190 -0.2879  0.3660 -2.0477
  170SOPE   H8S19200   3.852   1.626   7.154  0.0776  1.0208  1.0581
  170SOPE   C2919201   3.732   1.652   7.337 -0.7784 -0.2901  0.2862
  170SOPE   H9119202   3.632   1.643   7.383 -1.4643  0.1344 -1.0650
  170SOPE  C21019203   3.824   1.708   7.412  0.3576 -0.2538 -0.1829
  170SOPE  H10119204   3.803   1.749   7.512 -0.4667  0.4386 -0.6221
  170SOPE  C21119205   3.969   1.723   7.375 -0.1959 -0.1480  0.0919
  170SOPE  H11R19206   3.985   1.755   7.269 -1.5777 -0.4582 -0.2261
  170SOPE  H11S19207   4.027   1.628   7.371  0.0922 -0.0190  0.9895
  170SOPE  C21219208   4.049   1.813   7.467 -0.7503  0.3404 -0.8180
  170SOPE  H12R19209   3.989   1.905   7.479 -1.0293 -0.1078  2.2979
  170SOPE  H12S19210   4.148   1.831   7.421 -0.3353  0.4474  0.0986
  170SOPE  C21319211   4.076   1.749   7.606 -0.1363  0.3067 -0.2640
  170SOPE  H13R19212   4.105   1.643   7.593 -2.3936 -0.3433 -0.3295
  170SOPE  H13S19213   3.976   1.733   7.651 -0.9498 -0.3614 -2.2097
  170SOPE  C21419214   4.165   1.830   7.710  0.7448  0.2962  0.0912
  170SOPE  H14R19215   4.125   1.933   7.722  1.4738  0.9118 -2.3150
  170SOPE  H14S19216   4.269   1.833   7.672  0.2915  1.2180 -1.1399
  170SOPE  C21519217   4.151   1.773   7.846 -0.9991 -0.1615 -0.5867
  170SOPE  H15R19218   4.234   1.823   7.900 -0.8826 -0.7598 -0.2067
  170SOPE  H15S19219   4.175   1.665   7.839  1.7701  0.2889  0.7553
  170SOPE  C21619220   4.022   1.805   7.918  0.2930  0.0011 -0.1298
  170SOPE  H16R19221   3.930   1.783   7.859 -1.6394 -0.2107  2.7566
  170SOPE  H16S19222   4.024   1.916   7.925  1.6508 -0.0340  0.4170
  170SOPE  C21719223   3.998   1.719   8.048 -0.6409  0.4470  1.3833
  170SOPE  H17R19224   4.090   1.719   8.110 -0.1726 -2.3022  0.8124
  170SOPE  H17S19225   3.994   1.611   8.019  1.5474  1.0336 -1.5833
  170SOPE  C21819226   3.881   1.762   8.134  0.3390  0.0367  0.4853
  170SOPE  H18R19227   3.881   1.866   8.174 -2.3085  0.9796 -1.6750
  170SOPE  H18S19228   3.867   1.684   8.211  1.3393 -1.6530 -0.9749
  170SOPE  H18T19229   3.784   1.762   8.080  0.3863 -3.1285  0.2422
  170SOPE   C3319230   4.357   2.328   6.852 -0.1009 -0.4821 -0.5071
  170SOPE   H3X19231   4.372   2.294   6.956  2.1255  0.6398 -0.4094
  170SOPE   H3Y19232   4.250   2.356   6.837  0.4233  1.6028 -0.7062
  170SOPE   C3419233   4.448   2.443   6.806  0.4419  0.9636 -0.2397
  170SOPE   H4X19234   4.418   2.539   6.854  3.0516  2.6724 -1.7750
  170SOPE   H4Y19235   4.423   2.458   6.699 -0.8655  1.0859  0.0709
  170SOPE   C3519236   4.592   2.418   6.839 -0.0700 -0.2063 -0.0961
  170SOPE   H5X19237   4.656   2.430   6.748  1.7483  1.8526  1.3480
  170SOPE   H5Y19238   4.598   2.317   6.885  0.5632 -0.3781 -0.5336
  170SOPE   C3619239   4.643   2.513   6.946  0.1663  0.2618 -0.2695
  170SOPE   H6X19240   4.636   2.620   6.918 -0.3765  0.1310 -0.6575
  170SOPE   H6Y19241   4.747   2.476   6.959 -0.9783 -2.3201  3.0066
  170SOPE   C3719242   4.572   2.499   7.084  0.4039  1.1924 -0.4372
  170SOPE   H7X19243   4.546   2.396   7.115 -0.3425  0.2301 -3.8120
  170SOPE   H7Y19244   4.474   2.552   7.074 -0.0137  0.4363 -0.3937
  170SOPE   C3819245   4.654   2.573   7.188  0.5377  0.1126 -0.2538
  170SOPE   H8X19246   4.677   2.678   7.161  4.0006 -0.6918 -0.9222
  170SOPE   H8Y19247   4.754   2.525   7.199 -0.2704 -1.5356  0.1233
  170SOPE   C3919248   4.583   2.559   7.327  0.1106  1.6539  0.8735
  170SOPE   H9X19249   4.595   2.451   7.351  0.5587  0.6688 -3.0754
  170SOPE   H9Y19250   4.478   2.596   7.323 -0.7208 -0.6182 -1.3834
  170SOPE  C31019251   4.660   2.630   7.438  0.3287  0.4304  0.0126
  170SOPE  H10X19252   4.648   2.738   7.415 -4.5891 -0.1626 -1.4210
  170SOPE  H10Y19253   4.760   2.584   7.443 -0.2952 -0.9682 -0.0099
  170SOPE  C31119254   4.592   2.618   7.574  0.4946 -0.1949  0.0708
  170SOPE  H11X19255   4.583   2.510   7.599 -0.0001 -0.1675  0.0152
  170SOPE  H11Y19256   4.489   2.659   7.568  0.9490  0.8461 -1.1612
  170SOPE  C31219257   4.673   2.679   7.697  0.3588  0.3605  0.1287
  170SOPE  H12X19258   4.675   2.789   7.681 -0.3191  0.0849 -2.1807
  170SOPE  H12Y19259   4.780   2.650   7.699  0.0006 -1.0473 -0.2575
  170SOPE  C31319260   4.592   2.664   7.830  0.4177  0.3989  0.0027
  170SOPE  H13X19261   4.590   2.554   7.849  3.1741 -0.1946 -2.5315
  170SOPE  H13Y19262   4.488   2.700   7.817  1.1243  1.9607 -1.6573
  170SOPE  C31419263   4.650   2.732   7.947  1.0105  0.3770 -0.3996
  170SOPE  H14X19264   4.675   2.838   7.925  1.0479  0.8671  1.7529
  170SOPE  H14Y19265   4.748   2.687   7.974  0.8672  0.9075  1.1203
  170SOPE  C31519266   4.563   2.711   8.076 -0.0526  0.3904 -0.1680
  170SOPE  H15X19267   4.564   2.603   8.102  3.0973 -0.0178 -1.5942
  170SOPE  H15Y19268   4.462   2.741   8.039  0.0624  0.0174 -0.8054
  170SOPE  C31619269   4.603   2.783   8.203 -0.5829 -0.9617 -0.0666
  170SOPE  H16X19270   4.598   2.893   8.193  1.0911 -1.0179 -2.2320
  170SOPE  H16Y19271   4.707   2.745   8.206 -0.9348 -1.8844  1.6183
  170SOPE  C31719272   4.537   2.738   8.337 -0.3627 -0.0074  0.6567
  170SOPE  H17X19273   4.523   2.628   8.329 -3.5427  0.4314 -2.1480
  170SOPE  H17Y19274   4.433   2.774   8.357 -0.8669 -1.3928  0.6482
  170SOPE  C31819275   4.624   2.789   8.458 -0.2327 -0.3737  0.2554
  170SOPE  H18X19276   4.730   2.768   8.433 -0.7678 -1.6989 -1.0760
  170SOPE  H18Y19277   4.598   2.728   8.547  0.2668 -0.2311  0.4966
  170SOPE  H18Z19278   4.599   2.894   8.481 -1.6336 -0.3923 -1.0028
  171SOPE     N19279   4.581   0.322   6.245  0.5022  0.6371  0.0012
  171SOPE   HN119280   4.602   0.419   6.212 -0.3158  0.2234 -1.8784
  171SOPE   HN219281   4.484   0.321   6.283 -0.2346 -0.0699 -1.7804
  171SOPE   HN319282   4.655   0.296   6.313  2.3499 -1.2406 -2.5290
  171SOPE   C1219283   4.579   0.223   6.132 -0.5947 -0.7001  0.5714
  171SOPE  H12A19284   4.681   0.239   6.091  0.2006  1.1381  3.0113
  171SOPE  H12B19285   4.502   0.251   6.056  1.3465  0.8298 -0.9458
  171SOPE   C1119286   4.561   0.077   6.165  0.0780  0.1941 -0.2949
  171SOPE  H11A19287   4.636   0.061   6.246  0.1532  0.8324 -0.2372
  171SOPE  H11B19288   4.602   0.019   6.080  1.8271  0.0342  0.6205
  171SOPE     P19289   4.382  -0.102   6.199  0.1334  0.1855  0.3644
  171SOPE   O1319290   4.411  -0.159   6.067  0.1623 -0.0218  0.2799
  171SOPE   O1419291   4.242  -0.105   6.250 -0.7273 -0.6684  0.0698
  171SOPE   O1219292   4.424   0.049   6.198  0.7387  0.4397  0.4567
  171SOPE   O1119293   4.484  -0.170   6.304 -0.1372 -0.0935  0.0528
  171SOPE    C119294   4.518  -0.100   6.423  0.2699  0.0767  0.3767
  171SOPE    HA19295   4.453  -0.016   6.456 -0.2256 -0.5999  1.1961
  171SOPE    HB19296   4.621  -0.061   6.408  1.1312 -2.3764 -0.6531
  171SOPE    C219297   4.513  -0.191   6.551 -0.2995  0.2492 -0.7750
  171SOPE    HS19298   4.610  -0.245   6.547 -1.2363 -1.4811 -1.1680
  171SOPE   O2119299   4.414  -0.301   6.542  0.1249 -0.9473  0.0876
  171SOPE   C2119300   4.287  -0.269   6.552 -0.1818 -0.4305 -0.2011
  171SOPE   O2219301   4.240  -0.164   6.589 -0.2429  0.1226  0.5172
  171SOPE   C2219302   4.209  -0.388   6.522 -0.0520  0.2838  0.3707
  171SOPE   H2R19303   4.232  -0.422   6.419  0.9290  0.8809  0.3772
  171SOPE   H2S19304   4.103  -0.356   6.526  0.4920  2.0729  2.0309
  171SOPE    C319305   4.499  -0.112   6.679 -0.3268  0.2363  0.2289
  171SOPE    HX19306   4.413  -0.042   6.668 -0.1928  0.0579 -3.0439
  171SOPE    HY19307   4.587  -0.045   6.692 -0.5091  0.6448 -0.5639
  171SOPE   O3119308   4.502  -0.194   6.794  0.3112  0.1997  0.1772
  171SOPE   C3119309   4.403  -0.174   6.886 -0.0013 -0.4263  0.0796
  171SOPE   O3219310   4.340  -0.073   6.898  0.0161 -0.5967  0.0957
  171SOPE   C3219311   4.402  -0.298   6.973  0.3860 -0.3430  0.2238
  171SOPE   H2X19312   4.493  -0.302   7.036 -0.6589  1.3100  1.9496
  171SOPE   H2Y19313   4.402  -0.386   6.906 -2.5286  1.3628 -2.2942
  171SOPE   C2319314   4.223  -0.503   6.629  0.2079  0.1971 -0.4338
  171SOPE   H3R19315   4.128  -0.562   6.631 -0.1483  0.7686 -0.4036
  171SOPE   H3S19316   4.227  -0.464   6.733 -4.0595 -0.8219  0.2919
  171SOPE   C2419317   4.344  -0.595   6.607  0.2959  0.2402 -0.5324
  171SOPE   H4R19318   4.335  -0.667   6.523 -0.2463 -1.3458  0.8390
  171SOPE   H4S19319   4.436  -0.542   6.573  0.0051  1.0681 -0.0577
  171SOPE   C2519320   4.369  -0.676   6.730 -0.0604  0.2780 -0.0287
  171SOPE   H5R19321   4.467  -0.729   6.729 -0.5239 -0.9940  3.8693
  171SOPE   H5S19322   4.358  -0.613   6.821 -1.5846 -2.6963  2.0249
  171SOPE   C2619323   4.266  -0.786   6.761 -0.6640  0.1330  0.5659
  171SOPE   H6R19324   4.277  -0.812   6.869  2.4945 -0.7707  0.1225
  171SOPE   H6S19325   4.159  -0.761   6.745 -0.5143  0.3295 -0.1574
  171SOPE   C2719326   4.296  -0.922   6.684  0.2977 -0.0506 -0.4300
  171SOPE   H7R19327   4.314  -0.901   6.576 -0.8032  1.1598 -0.3936
  171SOPE   H7S19328   4.386  -0.963   6.735 -0.7139  1.0583  2.4368
  171SOPE   C2819329   4.183  -1.032   6.713 -0.4258  0.0836 -0.3504
  171SOPE   H8R19330   4.244  -1.119   6.683  0.3350  0.4908 -0.0108
  171SOPE   H8S19331   4.159  -1.044   6.821  0.3050  2.3551  0.1197
  171SOPE   C2919332   4.063  -1.009   6.627 -1.1461 -0.4608 -0.6563
  171SOPE   H9119333   4.086  -0.961   6.530  1.0931 -0.7955 -0.3513
  171SOPE  C21019334   3.942  -1.054   6.657 -0.0188  0.2928 -0.1527
  171SOPE  H10119335   3.858  -1.037   6.589  1.0289 -2.0652 -2.1926
  171SOPE  C21119336   3.903  -1.140   6.777  0.8786  0.5575  0.4338
  171SOPE  H11R19337   3.984  -1.189   6.836 -0.3000  1.9347  3.4010
  171SOPE  H11S19338   3.852  -1.232   6.741  0.4794 -0.1200  2.5682
  171SOPE  C21219339   3.798  -1.073   6.866 -0.1367 -0.1100  0.0776
  171SOPE  H12R19340   3.707  -1.053   6.807 -0.0140 -1.1147 -0.4840
  171SOPE  H12S19341   3.838  -0.972   6.889 -1.6755  0.2170  1.5680
  171SOPE  C21319342   3.776  -1.143   6.992  0.6272 -0.2016 -0.2838
  171SOPE  H13R19343   3.734  -1.246   6.983 -2.0156  0.7346  0.3265
  171SOPE  H13S19344   3.707  -1.077   7.049  2.5733  0.3468  1.5674
  171SOPE  C21419345   3.901  -1.154   7.085  0.5208  0.7055  0.7124
  171SOPE  H14R19346   3.940  -1.050   7.091  0.5409  0.6877  0.8842
  171SOPE  H14S19347   3.989  -1.208   7.044 -0.1211  1.1255 -1.3632
  171SOPE  C21519348   3.868  -1.191   7.227  0.3968 -0.1840  0.2137
  171SOPE  H15R19349   3.813  -1.287   7.240 -0.0563  0.2776  2.0508
  171SOPE  H15S19350   3.799  -1.113   7.265 -2.1729 -2.7396  1.2192
  171SOPE  C21619351   3.984  -1.190   7.326 -0.5798  0.5588 -0.0866
  171SOPE  H16R19352   4.030  -1.089   7.312  0.1852 -0.0352 -2.2342
  171SOPE  H16S19353   4.063  -1.261   7.294  0.4314  0.7584  1.8343
  171SOPE  C21719354   3.945  -1.194   7.472 -0.6053  0.1326  0.3631
  171SOPE  H17R19355   3.897  -1.281   7.523  0.2212  0.9788  2.7172
  171SOPE  H17S19356   3.885  -1.104   7.494  1.2891  1.1580  1.6113
  171SOPE  C21819357   4.072  -1.187   7.565 -0.2236  0.0373 -0.1255
  171SOPE  H18R19358   4.110  -1.083   7.554 -1.6023  0.4398 -1.4792
  171SOPE  H18S19359   4.150  -1.258   7.531  1.8348  0.8358  2.5988
  171SOPE  H18T19360   4.052  -1.212   7.671  1.9712 -0.0820  0.3096
  171SOPE   C3319361   4.273  -0.300   7.061 -0.1533 -0.8459 -0.0461
  171SOPE   H3X19362   4.184  -0.303   6.994 -0.1562  2.7029 -0.4009
  171SOPE   H3Y19363   4.267  -0.205   7.118 -3.0168 -0.3163 -1.0609
  171SOPE   C3419364   4.276  -0.415   7.164 -0.5829  0.3983 -0.0943
  171SOPE   H4X19365   4.304  -0.513   7.120 -1.8216  0.4920 -1.1579
  171SOPE   H4Y19366   4.177  -0.414   7.214  0.0004 -0.4630  1.1215
  171SOPE   C3519367   4.367  -0.383   7.283  0.3377 -0.2885 -0.4995
  171SOPE   H5X19368   4.338  -0.280   7.311  0.7529  0.0433 -1.2407
  171SOPE   H5Y19369   4.476  -0.373   7.264  1.1772  0.1711  3.6438
  171SOPE   C3619370   4.355  -0.487   7.395 -0.0940 -0.6037  0.7675
  171SOPE   H6X19371   4.389  -0.584   7.352  3.7351  0.8916  0.0080
  171SOPE   H6Y19372   4.249  -0.499   7.427 -0.1355 -1.2315  0.4101
  171SOPE   C3719373   4.442  -0.452   7.514 -0.7286 -0.0846 -0.4697
  171SOPE   H7X19374   4.429  -0.344   7.539  0.0770 -0.2003  0.5080
  171SOPE   H7Y19375   4.550  -0.467   7.495 -0.7241  0.9408 -1.3828
  171SOPE   C3819376   4.400  -0.536   7.635 -0.0601 -0.6044  0.1621
  171SOPE   H8X19377   4.417  -0.644   7.616 -2.2727 -0.6876 -1.9035
  171SOPE   H8Y19378   4.294  -0.510   7.655  0.5061  1.8919  0.2633
  171SOPE   C3919379   4.464  -0.493   7.770 -0.1984 -0.1324  0.5032
  171SOPE   H9X19380   4.447  -0.384   7.780 -1.3810  0.0121 -2.1903
  171SOPE   H9Y19381   4.571  -0.512   7.750  0.6957  2.4368  2.2848
  171SOPE  C31019382   4.409  -0.562   7.892 -1.2322 -0.8076 -0.2966
  171SOPE  H10X19383   4.429  -0.670   7.904 -0.6925 -0.7385 -0.5196
  171SOPE  H10Y19384   4.298  -0.558   7.891 -1.2306 -0.3363 -1.7488
  171SOPE  C31119385   4.448  -0.484   8.012 -0.2651  0.0899 -0.7589
  171SOPE  H11X19386   4.401  -0.385   7.993 -2.0242 -0.0169  2.3263
  171SOPE  H11Y19387   4.557  -0.463   8.015 -0.4812  1.3090 -0.6416
  171SOPE  C31219388   4.410  -0.553   8.147  0.1351  0.5487 -0.3081
  171SOPE  H12X19389   4.460  -0.652   8.143  0.4341  0.7355 -1.8483
  171SOPE  H12Y19390   4.301  -0.567   8.158  0.5105 -0.6401  2.5117
  171SOPE  C31319391   4.470  -0.490   8.273  1.3845 -0.8245 -0.0619
  171SOPE  H13X19392   4.423  -0.392   8.295 -0.1746 -1.6100  0.3135
  171SOPE  H13Y19393   4.575  -0.460   8.253  0.3674  2.8295 -0.5568
  171SOPE  C31419394   4.454  -0.575   8.396 -0.3051 -0.0069 -0.3525
  171SOPE  H14X19395   4.523  -0.661   8.385  1.8374  1.6477 -0.4122
  171SOPE  H14Y19396   4.350  -0.613   8.409 -0.1443  0.2451  2.3932
  171SOPE  C31519397   4.491  -0.509   8.527 -0.4282  0.3571  0.6396
  171SOPE  H15X19398   4.405  -0.444   8.556  1.2220  3.2463 -0.5574
  171SOPE  H15Y19399   4.583  -0.452   8.506  0.5521 -1.4525 -0.2293
  171SOPE  C31619400   4.525  -0.612   8.638  0.5742  0.0884  0.3072
  171SOPE  H16X19401   4.558  -0.561   8.731  0.1193  0.1256  0.4482
  171SOPE  H16Y19402   4.612  -0.676   8.613 -0.1588 -0.4477 -0.9386
  171SOPE  C31719403   4.408  -0.706   8.668 -0.1120 -0.2189  0.0031
  171SOPE  H17X19404   4.406  -0.780   8.586  3.9293 -0.9311  0.3788
  171SOPE  H17Y19405   4.308  -0.658   8.675  0.1655  0.3907 -0.1424
  171SOPE  C31819406   4.439  -0.790   8.794  0.0522 -0.0687  0.1991
  171SOPE  H18X19407   4.535  -0.842   8.771  0.4955  1.2419 -1.0708
  171SOPE  H18Y19408   4.353  -0.861   8.795 -1.5206  1.7669  0.0185
  171SOPE  H18Z19409   4.450  -0.732   8.888  1.9497 -1.0074  0.6171
  172SOPE     N19410   3.843   0.465   6.505 -0.0920 -0.7188  0.3151
  172SOPE   HN119411   3.918   0.395   6.489  0.8846  0.2329  0.6068
  172SOPE   HN219412   3.848   0.485   6.607  1.1193  1.2876 -0.0667
  172SOPE   HN319413   3.749   0.427   6.482 -0.0920 -0.6680  0.2323
  172SOPE   C1219414   3.876   0.586   6.412 -0.3266 -0.4549 -0.2168
  172SOPE  H12A19415   3.810   0.667   6.448 -0.3899  0.4095 -2.1514
  172SOPE  H12B19416   3.842   0.559   6.310 -0.6628  0.8624 -0.4714
  172SOPE   C1119417   4.031   0.621   6.416  0.9010  0.2485  0.1363
  172SOPE  H11A19418   4.026   0.684   6.507 -3.0385 -2.0540  1.7756
  172SOPE  H11B19419   4.048   0.688   6.329 -1.7953  2.6343  1.2699
  172SOPE     P19420   4.277   0.520   6.422  0.2791 -0.4252 -0.0339
  172SOPE   O1319421   4.316   0.657   6.395  0.3345 -0.2962 -0.3433
  172SOPE   O1419422   4.332   0.419   6.337 -0.2349  0.3924  0.2801
  172SOPE   O1219423   4.116   0.505   6.430 -0.9524 -0.1197  0.2818
  172SOPE   O1119424   4.330   0.494   6.568  0.1484  0.1686 -0.3141
  172SOPE    C119425   4.427   0.584   6.618 -0.1508 -0.9939  0.7618
  172SOPE    HA19426   4.409   0.692   6.606  1.7724 -0.8578 -2.0471
  172SOPE    HB19427   4.525   0.560   6.571 -0.0336  0.8822 -0.0321
  172SOPE    C219428   4.461   0.575   6.767 -0.1104  0.4506  0.4292
  172SOPE    HS19429   4.555   0.622   6.803  0.1747 -0.5427  1.0367
  172SOPE   O2119430   4.468   0.439   6.799 -0.3416 -0.5464  0.3070
  172SOPE   C2119431   4.584   0.384   6.785  0.1522  0.7918  0.0102
  172SOPE   O2219432   4.690   0.420   6.735  0.2373 -0.2923 -0.0040
  172SOPE   C2219433   4.567   0.237   6.844 -0.1719 -0.2930  0.0737
  172SOPE   H2R19434   4.608   0.169   6.767 -0.8914 -2.6874  1.6693
  172SOPE   H2S19435   4.461   0.207   6.861 -0.6945 -0.9040 -3.4971
  172SOPE    C319436   4.339   0.634   6.843 -0.3202 -0.3621 -0.1317
  172SOPE    HX19437   4.262   0.559   6.817  2.9600 -3.9158 -0.4075
  172SOPE    HY19438   4.304   0.728   6.796 -2.3511 -1.7402 -1.5038
  172SOPE   O3119439   4.368   0.649   6.986 -0.7490 -0.3690 -0.4629
  172SOPE   C3119440   4.424   0.765   7.027  0.2766 -0.3349  0.0362
  172SOPE   O3219441   4.479   0.846   6.953 -0.3221  0.2832 -0.8275
  172SOPE   C3219442   4.414   0.757   7.174 -0.3150  0.0683  0.7432
  172SOPE   H2X19443   4.490   0.683   7.207 -0.1491  0.2209  0.7088
  172SOPE   H2Y19444   4.313   0.712   7.186  0.2235 -1.4395 -0.1220
  172SOPE   C2319445   4.640   0.233   6.982 -0.2556 -0.1285 -0.2591
  172SOPE   H3R19446   4.597   0.311   7.049 -1.5729 -0.3409 -0.8170
  172SOPE   H3S19447   4.748   0.248   6.959 -0.0675 -0.5922  0.3118
  172SOPE   C2419448   4.616   0.094   7.043  1.0247 -0.6298  0.4628
  172SOPE   H4R19449   4.508   0.095   7.071  0.6027  0.8309 -1.0606
  172SOPE   H4S19450   4.641   0.006   6.980 -1.9163 -1.7300  0.6528
  172SOPE   C2519451   4.692   0.071   7.173 -0.5593 -0.4364 -0.2228
  172SOPE   H5R19452   4.797   0.051   7.144 -1.1250 -0.9286 -2.0753
  172SOPE   H5S19453   4.701   0.154   7.246  1.8225 -3.2891  3.0561
  172SOPE   C2619454   4.651  -0.051   7.252 -0.2797 -0.2213 -0.1448
  172SOPE   H6R19455   4.544  -0.033   7.273 -0.5762 -2.0876  0.1419
  172SOPE   H6S19456   4.648  -0.141   7.187 -0.0235  0.1716 -0.7059
  172SOPE   C2719457   4.744  -0.074   7.372  0.0497 -0.0916 -0.1105
  172SOPE   H7R19458   4.839  -0.109   7.327 -0.8752 -1.2613 -1.2311
  172SOPE   H7S19459   4.764   0.022   7.425  0.0014  0.2788 -0.7431
  172SOPE   C2819460   4.693  -0.188   7.468 -0.3718 -0.3089 -0.2589
  172SOPE   H8R19461   4.631  -0.131   7.540  1.5722 -1.0538  2.1482
  172SOPE   H8S19462   4.630  -0.253   7.403 -2.1022  1.4420 -0.4327
  172SOPE   C2919463   4.800  -0.277   7.528  0.4436 -0.1583  0.1099
  172SOPE   H9119464   4.873  -0.312   7.454  1.1711  0.6926  0.4240
  172SOPE  C21019465   4.823  -0.312   7.660  0.0343 -0.3970  0.6261
  172SOPE  H10119466   4.899  -0.386   7.691 -0.0263  0.0545  1.9334
  172SOPE  C21119467   4.743  -0.277   7.782  0.5344  0.1566 -0.2318
  172SOPE  H11R19468   4.718  -0.367   7.842 -0.6589  1.3071  1.0933
  172SOPE  H11S19469   4.645  -0.228   7.764  2.1846  3.7667 -0.2864
  172SOPE  C21219470   4.814  -0.194   7.886  0.6778 -0.2454  0.1293
  172SOPE  H12R19471   4.746  -0.186   7.973  2.2203 -1.9097  1.5647
  172SOPE  H12S19472   4.837  -0.094   7.841  1.3672 -0.3117  0.3134
  172SOPE  C21319473   4.942  -0.263   7.941  0.5639 -0.0097  0.2218
  172SOPE  H13R19474   5.007  -0.304   7.861  0.8660  0.1142  0.4056
  172SOPE  H13S19475   4.921  -0.348   8.008 -2.0263  0.2100 -0.1961
  172SOPE  C21419476   5.030  -0.177   8.033  0.6801  0.4315  0.0816
  172SOPE  H14R19477   4.961  -0.136   8.111  0.9610 -0.1533  0.6437
  172SOPE  H14S19478   5.067  -0.088   7.978  1.4060 -1.3028 -2.3876
  172SOPE  C21519479   5.154  -0.239   8.087  0.0760  0.0480 -0.2467
  172SOPE  H15R19480   5.216  -0.274   8.002  1.2193 -1.3026  1.0816
  172SOPE  H15S19481   5.136  -0.329   8.149  1.8140  0.3407  0.7649
  172SOPE  C21619482   5.232  -0.139   8.174 -0.5644  0.1689 -0.2143
  172SOPE  H16R19483   5.172  -0.081   8.246  1.2341  1.4523  0.3081
  172SOPE  H16S19484   5.294  -0.070   8.113  2.0426 -1.7722  0.0694
  172SOPE  C21719485   5.351  -0.214   8.244 -0.0363 -0.1767  0.1242
  172SOPE  H17R19486   5.423  -0.248   8.167 -0.1977 -0.9690  0.3158
  172SOPE  H17S19487   5.309  -0.299   8.303 -0.0193  1.3301  2.4448
  172SOPE  C21819488   5.430  -0.132   8.347  0.4406 -0.0009  0.3431
  172SOPE  H18R19489   5.498  -0.064   8.292  2.1762 -1.6271  0.3822
  172SOPE  H18S19490   5.486  -0.196   8.418  0.0832  2.6001  3.1625
  172SOPE  H18T19491   5.356  -0.066   8.396 -0.5494  1.1961 -2.5407
  172SOPE   C3319492   4.431   0.890   7.252  0.2667 -0.1031 -0.7572
  172SOPE   H3X19493   4.328   0.928   7.235  0.6503  1.4919  0.2985
  172SOPE   H3Y19494   4.496   0.969   7.207 -0.5444 -0.0129 -1.8055
  172SOPE   C3419495   4.474   0.881   7.405 -0.4446  0.2256 -0.7630
  172SOPE   H4X19496   4.414   0.801   7.453  1.1682 -0.7865 -0.3522
  172SOPE   H4Y19497   4.446   0.973   7.459 -0.2361 -0.9148  1.4029
  172SOPE   C3519498   4.623   0.848   7.426 -0.2403  0.1312 -0.0333
  172SOPE   H5X19499   4.698   0.929   7.418 -0.0314 -0.1008 -0.4839
  172SOPE   H5Y19500   4.646   0.770   7.350 -0.0287 -0.6996  0.8656
  172SOPE   C3619501   4.656   0.797   7.570  0.7599 -0.2130  0.2173
  172SOPE   H6X19502   4.647   0.874   7.650 -2.5445 -0.3380  0.1096
  172SOPE   H6Y19503   4.766   0.785   7.572  1.1065  2.3997  0.4200
  172SOPE   C3719504   4.591   0.665   7.603  0.3384 -0.2728  0.1077
  172SOPE   H7X19505   4.590   0.585   7.526 -0.6777 -0.4740  0.3203
  172SOPE   H7Y19506   4.494   0.696   7.646  1.7855  1.3970  2.4685
  172SOPE   C3819507   4.650   0.582   7.718 -0.3236 -0.1084  0.0854
  172SOPE   H8X19508   4.754   0.558   7.686 -0.2805  1.4467 -1.0382
  172SOPE   H8Y19509   4.583   0.494   7.726 -1.4058  0.2192 -3.4214
  172SOPE   C3919510   4.651   0.656   7.854  0.1312 -0.7174  0.0910
  172SOPE   H9X19511   4.548   0.679   7.889 -0.0747 -0.9502 -0.3488
  172SOPE   H9Y19512   4.704   0.753   7.850  1.6090 -1.4628  0.7386
  172SOPE  C31019513   4.701   0.567   7.967 -0.5813 -0.8250  0.9264
  172SOPE  H10X19514   4.811   0.578   7.972 -0.5601 -0.5292 -0.0206
  172SOPE  H10Y19515   4.683   0.460   7.946 -1.8135 -1.0515  2.8492
  172SOPE  C31119516   4.646   0.606   8.105  0.5524 -0.4486 -0.5282
  172SOPE  H11X19517   4.653   0.516   8.169  0.3247  1.6151  2.6343
  172SOPE  H11Y19518   4.538   0.631   8.093  0.7328 -0.3028 -2.0297
  172SOPE  C31219519   4.713   0.717   8.181  0.0151 -0.0104  0.0024
  172SOPE  H12X19520   4.701   0.818   8.136  0.5905  0.7780  1.5483
  172SOPE  H12Y19521   4.821   0.694   8.177  0.7076  2.9234 -0.6933
  172SOPE  C31319522   4.657   0.712   8.330 -0.3511 -0.5748  0.4220
  172SOPE  H13X19523   4.655   0.607   8.367  1.1991 -0.8012 -0.0691
  172SOPE  H13Y19524   4.552   0.749   8.325  0.1701  0.8389 -0.9020
  172SOPE  C31419525   4.743   0.812   8.412  0.1984  0.0551 -0.4382
  172SOPE  H14X19526   4.708   0.912   8.378  0.1259  0.5366  0.9746
  172SOPE  H14Y19527   4.853   0.805   8.393  0.2139 -1.1684  0.0184
  172SOPE  C31519528   4.713   0.819   8.559  0.1881 -0.0656 -0.2442
  172SOPE  H15X19529   4.603   0.831   8.561  0.1025 -0.7068 -0.6051
  172SOPE  H15Y19530   4.762   0.907   8.606  0.3042 -0.7094  0.8763
  172SOPE  C31619531   4.751   0.693   8.632 -0.8031  1.1560 -0.4187
  172SOPE  H16X19532   4.857   0.671   8.606 -1.3839 -3.5606  0.2471
  172SOPE  H16Y19533   4.687   0.612   8.592 -2.0816  2.2121 -0.5672
  172SOPE  C31719534   4.723   0.706   8.775  0.4054  0.3738  0.3399
  172SOPE  H17X19535   4.614   0.689   8.783  0.3169  0.8882  0.2568
  172SOPE  H17Y19536   4.756   0.805   8.814 -0.3962  0.0753  1.8602
  172SOPE  C31819537   4.804   0.609   8.858  0.6104 -0.6132 -0.5256
  172SOPE  H18X19538   4.775   0.503   8.843  2.6938 -1.1242 -1.3816
  172SOPE  H18Y19539   4.779   0.638   8.962 -0.0201  0.9184 -1.0642
  172SOPE  H18Z19540   4.914   0.609   8.839  0.7597 -2.1545  0.2554
  173SAPI   C1219541   1.292   5.260  10.882 -0.4116  0.9399 -0.1645
  173SAPI    H219542   1.302   5.150  10.866 -2.4146  0.4143  1.6543
  173SAPI    O219543   1.215   5.264  11.001 -0.2270  0.4644  0.6145
  173SAPI   HO219544   1.186   5.174  11.019  0.3661 -0.5727 -2.8640
  173SAPI   C1319545   1.430   5.315  10.912 -0.2547  0.5414  0.1557
  173SAPI    H319546   1.501   5.310  10.828 -1.6322 -1.6223 -0.9687
  173SAPI    O319547   1.506   5.247  11.015  0.1112 -0.3609  0.1204
  173SAPI   HO319548   1.479   5.253  11.107 -0.2789 -2.9154  0.2550
  173SAPI   C1419549   1.428   5.464  10.945 -0.0687  0.4079 -0.0700
  173SAPI    H419550   1.355   5.478  11.027 -2.5774  1.2652 -2.3009
  173SAPI    O419551   1.556   5.513  10.986  0.4891  0.5671  1.0420
  173SAPI   HO419552   1.620   5.510  10.915 -0.3031 -2.4121  0.3072
  173SAPI   C1519553   1.363   5.544  10.826 -0.0845  0.6039 -0.6073
  173SAPI    H519554   1.426   5.520  10.738  2.4501 -0.6296  1.3917
  173SAPI    O519555   1.365   5.685  10.841  0.2897 -0.1436  0.0541
  173SAPI   HO519556   1.369   5.731  10.757  1.7378  0.1943  0.2814
  173SAPI   C1619557   1.222   5.480  10.789  0.1851  0.3765 -0.2164
  173SAPI    H619558   1.149   5.496  10.872 -0.0183 -2.8675  0.3358
  173SAPI    O619559   1.180   5.549  10.672  0.1206  0.3782 -0.2620
  173SAPI   HO619560   1.085   5.558  10.685  0.3891  0.9724  1.6057
  173SAPI   C1119561   1.234   5.331  10.760 -0.2085 -0.9849  0.2405
  173SAPI    H119562   1.317   5.336  10.686  1.5402  2.1642  2.1635
  173SAPI     P19563   1.114   5.128  10.630  0.2132 -0.2826 -0.1001
  173SAPI   O1319564   0.989   5.049  10.655  0.5098 -0.3209  0.3595
  173SAPI   O1419565   1.238   5.048  10.636 -0.2708 -0.0511  0.4163
  173SAPI   O1219566   1.118   5.264  10.728  0.1856  0.3789 -0.3955
  173SAPI   O1119567   1.102   5.191  10.484  0.4300 -0.3646  0.2274
  173SAPI    C119568   0.989   5.273  10.452  0.8768  0.2806  0.7084
  173SAPI    HA19569   0.897   5.219  10.484  1.1968 -1.0156 -0.4451
  173SAPI    HB19570   0.989   5.373  10.500 -0.8028  0.0218  1.3170
  173SAPI    C219571   0.972   5.290  10.294  0.6590 -0.1623  0.3900
  173SAPI    HS19572   0.870   5.329  10.272  1.2105  0.8144 -0.5501
  173SAPI   O2119573   0.980   5.159  10.239  0.1029  0.2783 -0.1306
  173SAPI   C2119574   0.873   5.086  10.235  0.7131 -0.1519  0.8713
  173SAPI   O2219575   0.765   5.115  10.281  0.5508  0.0957 -0.0343
  173SAPI   C2219576   0.900   4.955  10.162  0.2550 -0.0750  0.5885
  173SAPI   H2R19577   0.982   4.899  10.210  0.9670  1.8031  1.6698
  173SAPI   H2S19578   0.804   4.900  10.164  1.0898 -1.5766  0.3481
  173SAPI    C319579   1.075   5.392  10.239 -0.8165 -0.2811 -0.9276
  173SAPI    HX19580   1.171   5.362  10.286 -0.6203 -3.6222 -3.1152
  173SAPI    HY19581   1.053   5.491  10.284  0.9794  0.0773 -0.7820
  173SAPI   O3119582   1.074   5.389  10.094  0.2177  0.1694  0.1602
  173SAPI   C3119583   1.164   5.303  10.047  0.1576 -0.4547 -0.0476
  173SAPI   O3219584   1.248   5.240  10.115  0.2148 -0.2347 -0.0369
  173SAPI   C3219585   1.145   5.300   9.900  0.4631  0.0681  0.2493
  173SAPI   H2X19586   1.191   5.387   9.850 -0.7133  0.4847 -0.1497
  173SAPI   H2Y19587   1.038   5.304   9.871  0.2024 -4.5990 -0.2266
  173SAPI   C2319588   0.924   4.990  10.007  0.3283 -0.6758  0.3046
  173SAPI   H3R19589   1.013   5.055   9.996 -0.7548  1.1474  1.6783
  173SAPI   H3S19590   0.846   5.065   9.983 -1.0304 -1.1520  2.7850
  173SAPI   C2419591   0.919   4.874   9.899 -0.4033  0.6070  0.4295
  173SAPI   H4R19592   1.017   4.821   9.899 -0.6176 -0.0512 -3.4479
  173SAPI   H4S19593   0.907   4.915   9.797 -1.2677  1.2823  0.7898
  173SAPI   C2519594   0.801   4.779   9.925  0.1433  0.2969 -0.3089
  173SAPI   H5R19595   0.813   4.716  10.015 -0.4963 -0.0703 -0.4687
  173SAPI   C2619596   0.694   4.760   9.845  0.8319 -0.0312  0.2197
  173SAPI   H6R19597   0.612   4.696   9.882  0.3903 -0.2757 -1.1174
  173SAPI   C2719598   0.668   4.845   9.719  0.9977  0.5191 -0.1821
  173SAPI   H7R19599   0.704   4.948   9.740 -0.7940  1.6267 -2.2410
  173SAPI   H7S19600   0.564   4.873   9.692  0.9282 -1.6231 -2.4829
  173SAPI   C2819601   0.717   4.803   9.585  0.0012 -0.1397  0.5751
  173SAPI   H8R19602   0.697   4.698   9.560  0.0116  0.0154 -0.1150
  173SAPI   C2919603   0.788   4.862   9.490 -0.0042 -0.4802 -0.5790
  173SAPI   H9R19604   0.795   4.807   9.394 -0.5782 -1.6157  0.0081
  173SAPI  C21019605   0.838   5.002   9.488 -0.1530  0.0751 -0.0807
  173SAPI  H10R19606   0.935   5.007   9.542 -0.7930  2.3221  0.9925
  173SAPI  H10S19607   0.766   5.063   9.547  0.7155  2.2500 -1.1594
  173SAPI  C21119608   0.841   5.065   9.348 -0.6456  0.7158 -0.2890
  173SAPI  H11R19609   0.918   5.014   9.288  0.1443 -0.1931  1.4176
  173SAPI  C21219610   0.748   5.143   9.290  0.4475  0.1562  0.7299
  173SAPI  H12R19611   0.770   5.179   9.188  0.7863  2.2491  1.4884
  173SAPI  C21319612   0.619   5.190   9.350 -0.0606  0.2172 -0.3216
  173SAPI  H13R19613   0.591   5.140   9.445  1.2231  0.0605  0.0040
  173SAPI  H13S19614   0.536   5.150   9.289 -0.2262  0.1898 -0.0834
  173SAPI  C21419615   0.617   5.338   9.382 -0.2504  0.6981 -0.3191
  173SAPI  H14R19616   0.713   5.389   9.401  0.2754  0.3532 -1.9039
  173SAPI  C21519617   0.509   5.412   9.407  0.2726  0.1707  0.0337
  173SAPI  H15R19618   0.533   5.517   9.428  0.0411  0.2707 -0.2057
  173SAPI  C21619619   0.364   5.369   9.389 -0.0264  0.0097 -0.8711
  173SAPI  H16R19620   0.295   5.449   9.425  0.2921  0.0397 -0.3187
  173SAPI  H16S19621   0.333   5.274   9.437 -1.4744  1.6275  1.6535
  173SAPI  C21719622   0.336   5.354   9.236 -0.3659 -0.6777  0.3805
  173SAPI  H17R19623   0.395   5.269   9.196 -1.2796 -1.2486  0.1977
  173SAPI  H17S19624   0.357   5.451   9.187 -0.8199 -0.5261  0.4770
  173SAPI  C21819625   0.188   5.335   9.205 -0.2267  0.1754  0.2358
  173SAPI  H18R19626   0.124   5.422   9.231  0.2561  0.2936  1.0560
  173SAPI  H18S19627   0.157   5.249   9.268  1.5770 -0.3650  0.4523
  173SAPI  C21919628   0.160   5.298   9.057 -0.3698  0.2455 -0.5608
  173SAPI  H19R19629   0.231   5.215   9.034  1.6771  0.8515  2.9567
  173SAPI  H19S19630   0.161   5.393   9.000  2.7741  0.2621 -0.6904
  173SAPI  C22019631   0.019   5.237   9.053 -0.3456  0.6207  0.8385
  173SAPI  H20R19632  -0.012   5.223   8.947  0.7533 -0.9672  0.6980
  173SAPI  H20S19633  -0.062   5.303   9.093 -0.0756  1.3106  0.2776
  173SAPI  H20T19634   0.016   5.136   9.098  0.5930 -0.4502 -1.3629
  173SAPI   C3319635   1.214   5.184   9.819 -0.1009  0.5014 -0.5354
  173SAPI   H3X19636   1.193   5.086   9.868 -2.0551  0.3517 -1.5627
  173SAPI   H3Y19637   1.321   5.210   9.805 -0.2246  2.1440  1.1102
  173SAPI   C3419638   1.157   5.180   9.678 -0.0773  0.4248 -0.5150
  173SAPI   H4X19639   1.172   5.282   9.637 -0.3396  1.8083  2.5313
  173SAPI   H4Y19640   1.048   5.163   9.694  0.1525 -0.1607  0.4739
  173SAPI   C3519641   1.216   5.068   9.590 -0.4019  0.0901 -0.5973
  173SAPI   H5X19642   1.165   4.974   9.620 -0.7400  0.5827  0.4519
  173SAPI   H5Y19643   1.323   5.063   9.618 -0.6901  0.6977  0.6790
  173SAPI   C3619644   1.170   5.094   9.446 -0.4347 -0.8821  0.2138
  173SAPI   H6X19645   1.069   5.139   9.450 -0.9850 -2.1388  1.0673
  173SAPI   H6Y19646   1.182   4.998   9.391 -0.4387 -0.5793 -0.3158
  173SAPI   C3719647   1.270   5.188   9.370  0.5225 -0.1494 -0.8100
  173SAPI   H7X19648   1.370   5.159   9.409  0.1805 -1.3268 -0.7589
  173SAPI   H7Y19649   1.259   5.293   9.404 -1.3397 -0.3761 -0.6048
  173SAPI   C3819650   1.254   5.180   9.214  0.0666 -0.7080 -0.5779
  173SAPI   H8X19651   1.294   5.083   9.179 -1.1066 -0.9746 -1.2134
  173SAPI   H8Y19652   1.319   5.263   9.178  1.9556 -0.9351  1.9810
  173SAPI   C3919653   1.113   5.212   9.170 -0.5092  0.9748 -0.0670
  173SAPI   H9X19654   1.076   5.301   9.226 -0.1147  0.3386  1.2329
  173SAPI   H9Y19655   1.053   5.125   9.202 -0.1529  0.7330 -0.0548
  173SAPI  C31019656   1.101   5.236   9.018  0.3207 -0.4827  0.8448
  173SAPI  H10X19657   0.993   5.231   8.995  0.7339 -1.4654 -1.0129
  173SAPI  H10Y19658   1.125   5.136   8.977 -0.5891 -1.2327  2.0652
  173SAPI  C31119659   1.167   5.361   8.955  0.0681  0.3825  0.1135
  173SAPI  H11X19660   1.276   5.346   8.973 -0.1057 -2.1636 -0.5797
  173SAPI  H11Y19661   1.121   5.449   9.006 -0.4371 -0.4106  1.0503
  173SAPI  C31219662   1.127   5.364   8.807  0.1067 -0.4529  0.0463
  173SAPI  H12X19663   1.016   5.369   8.801 -0.2908 -0.7866  4.2071
  173SAPI  H12Y19664   1.153   5.267   8.760 -0.3579  0.4693 -2.2486
  173SAPI  C31319665   1.195   5.481   8.735 -0.0636  0.3881 -0.1261
  173SAPI  H13X19666   1.301   5.469   8.766 -0.2204 -0.8980 -0.0395
  173SAPI  H13Y19667   1.156   5.577   8.776  1.6096  1.7629 -1.5935
  173SAPI  C31419668   1.183   5.470   8.584 -0.3331 -1.2413 -0.2406
  173SAPI  H14X19669   1.076   5.490   8.563  0.4060  2.3305 -1.4298
  173SAPI  H14Y19670   1.217   5.368   8.558 -2.1336 -2.0101  0.2623
  173SAPI  C31519671   1.265   5.567   8.501  0.2775 -0.5690 -0.0173
  173SAPI  H15X19672   1.368   5.565   8.544  0.4774  0.1995 -0.4426
  173SAPI  H15Y19673   1.232   5.672   8.517 -1.1384 -0.5755 -2.4530
  173SAPI  C31619674   1.286   5.536   8.349  0.0137 -0.1341  0.2161
  173SAPI  H16X19675   1.184   5.542   8.303  0.5557  2.3846 -0.8409
  173SAPI  H16Y19676   1.327   5.433   8.347  0.8923  0.2187 -0.3422
  173SAPI  C31719677   1.388   5.628   8.282  0.3741 -0.0496  0.3797
  173SAPI  H17X19678   1.480   5.631   8.344 -0.8709  1.3247  2.2635
  173SAPI  H17Y19679   1.354   5.732   8.300  0.9251 -0.0293  1.3582
  173SAPI  C31819680   1.405   5.606   8.132 -0.3805  0.1100 -0.1086
  173SAPI  H18X19681   1.462   5.692   8.090  0.3448  0.3677  1.3361
  173SAPI  H18Y19682   1.310   5.618   8.077  0.6022  2.1822 -1.4805
  173SAPI  H18Z19683   1.445   5.505   8.106  0.6956  0.0507  1.5784
  174SAPI   C1219684   3.691   5.948  10.919  0.3371 -0.3691 -0.6724
  174SAPI    H219685   3.636   5.958  10.823 -2.3823 -0.3777  0.7950
  174SAPI    O219686   3.795   6.033  10.907 -0.2050 -0.0737 -0.1398
  174SAPI   HO219687   3.773   6.109  10.852  0.4267  0.2788  0.0804
  174SAPI   C1319688   3.583   6.000  11.022 -0.6431 -0.0715 -0.4328
  174SAPI    H319689   3.494   5.934  11.008 -1.3459  0.7321  0.1681
  174SAPI    O319690   3.534   6.127  10.985 -0.1918  0.4349 -0.4401
  174SAPI   HO319691   3.604   6.194  10.987  0.3467 -0.1400  0.8806
  174SAPI   C1419692   3.636   5.986  11.167  0.4201 -0.2557 -0.0800
  174SAPI    H419693   3.718   6.060  11.161 -0.8141  1.4057  2.0921
  174SAPI    O419694   3.552   6.052  11.263 -0.4339  0.7656 -0.3632
  174SAPI   HO419695   3.482   5.992  11.288  0.1906  0.7620  1.5822
  174SAPI   C1519696   3.679   5.846  11.197  0.6051  0.5103 -0.1595
  174SAPI    H519697   3.589   5.781  11.202  1.3370 -0.4474  1.4465
  174SAPI    O519698   3.735   5.845  11.329  0.2047 -0.4477 -0.1699
  174SAPI   HO519699   3.689   5.788  11.390 -0.7898 -1.0614 -1.4389
  174SAPI   C1619700   3.780   5.810  11.095 -0.1245  0.1865  0.1338
  174SAPI    H619701   3.870   5.875  11.100  2.3932 -3.1293  1.2934
  174SAPI    O619702   3.828   5.677  11.124  0.1171 -0.6941 -0.5241
  174SAPI   HO619703   3.871   5.652  11.042 -0.6618 -0.9133 -0.8763
  174SAPI   C1119704   3.728   5.805  10.953 -0.1734 -0.2865  0.4223
  174SAPI    H119705   3.644   5.733  10.945  0.1371 -0.8804  1.9497
  174SAPI     P19706   3.809   5.674  10.725  0.4510  0.1869  0.1611
  174SAPI   O1319707   3.741   5.545  10.762 -0.0763 -0.2404  0.5366
  174SAPI   O1419708   3.939   5.661  10.655 -0.2003 -0.3187 -0.3197
  174SAPI   O1219709   3.832   5.749  10.874  0.1142  0.0927 -0.5858
  174SAPI   O1119710   3.715   5.772  10.646 -0.1284 -0.1590 -0.4064
  174SAPI    C119711   3.583   5.738  10.611 -0.7961 -0.2704  0.2999
  174SAPI    HA19712   3.550   5.633  10.626 -1.2322 -0.3324 -1.0215
  174SAPI    HB19713   3.514   5.809  10.661 -1.6649  0.1559 -1.4300
  174SAPI    C219714   3.559   5.779  10.460  0.4672 -0.5030  0.0474
  174SAPI    HS19715   3.449   5.786  10.444  0.5350  1.1042  0.1647
  174SAPI   O2119716   3.621   5.687  10.371 -0.1418  0.1033 -0.0277
  174SAPI   C2119717   3.554   5.579  10.340 -0.1345 -0.4226  0.6265
  174SAPI   O2219718   3.435   5.567  10.365 -0.2786 -0.6043  0.3959
  174SAPI   C2219719   3.639   5.471  10.278 -0.0972  0.2364 -0.7023
  174SAPI   H2R19720   3.689   5.420  10.363 -1.1688 -0.4903 -0.4891
  174SAPI   H2S19721   3.574   5.402  10.221 -2.6371  1.1857  0.8707
  174SAPI    C319722   3.612   5.921  10.429 -0.2732 -0.2313 -0.2453
  174SAPI    HX19723   3.723   5.914  10.436 -0.1523  0.5121 -1.1987
  174SAPI    HY19724   3.580   5.993  10.507  0.4965  0.3965 -0.4962
  174SAPI   O3119725   3.574   5.969  10.302  0.4241 -0.1200  0.3676
  174SAPI   C3119726   3.672   5.977  10.212  0.6841 -0.1042 -0.0552
  174SAPI   O3219727   3.792   5.964  10.228  0.2374  0.2821 -0.2643
  174SAPI   C3219728   3.604   6.009  10.076  0.2834  0.0790  0.4511
  174SAPI   H2X19729   3.588   6.118  10.074 -2.4995 -0.2562 -1.7053
  174SAPI   H2Y19730   3.503   5.961  10.084  1.3235 -2.2297  0.7134
  174SAPI   C2319731   3.746   5.526  10.180  1.0464 -0.1495  0.3129
  174SAPI   H3R19732   3.847   5.512  10.222  1.1304  1.5215  0.7118
  174SAPI   H3S19733   3.732   5.636  10.176 -1.8193 -0.4496 -3.4184
  174SAPI   C2419734   3.732   5.473  10.038  0.4139  0.2611  0.4232
  174SAPI   H4R19735   3.630   5.480   9.993  1.0005  1.7494 -0.7415
  174SAPI   H4S19736   3.747   5.366  10.064 -0.9445 -0.1206 -0.2442
  174SAPI   C2519737   3.830   5.536   9.938  0.6636 -0.6108  0.8751
  174SAPI   H5R19738   3.930   5.554   9.979 -0.1661  3.0879  1.6210
  174SAPI   C2619739   3.818   5.566   9.809 -0.4256  0.1323  0.1694
  174SAPI   H6R19740   3.907   5.619   9.774 -0.4054  0.7810  1.1656
  174SAPI   C2719741   3.702   5.555   9.719 -0.4678 -0.0751 -0.9086
  174SAPI   H7R19742   3.612   5.571   9.782  0.9492  0.9918  0.9123
  174SAPI   H7S19743   3.704   5.449   9.686  1.4514 -0.3318 -0.0921
  174SAPI   C2819744   3.709   5.652   9.606  0.2822 -0.1952 -0.1440
  174SAPI   H8R19745   3.651   5.744   9.618  0.6893  0.1887 -1.0077
  174SAPI   C2919746   3.768   5.642   9.487  0.1758  0.2081  0.4797
  174SAPI   H9R19747   3.773   5.727   9.417  3.7865 -0.2609 -0.0318
  174SAPI  C21019748   3.852   5.515   9.444  0.0294  0.1462  0.0879
  174SAPI  H10R19749   3.798   5.477   9.355 -1.9693 -0.9680  1.6873
  174SAPI  H10S19750   3.848   5.435   9.521  1.5203 -0.3911 -0.3431
  174SAPI  C21119751   3.993   5.555   9.408 -0.7087 -0.4670 -0.2524
  174SAPI  H11R19752   4.067   5.547   9.489  1.1448 -0.9877 -1.9086
  174SAPI  C21219753   4.041   5.568   9.284  0.3125 -0.2871  0.3941
  174SAPI  H12R19754   4.145   5.600   9.266 -0.1699  0.3163 -1.5044
  174SAPI  C21319755   3.958   5.562   9.158 -0.0145 -0.4526  0.0020
  174SAPI  H13R19756   3.849   5.577   9.179 -0.3821  1.8749 -2.8974
  174SAPI  H13S19757   3.948   5.456   9.127 -1.9738 -0.2971 -0.0450
  174SAPI  C21419758   4.003   5.654   9.043 -0.1475  0.2265 -0.6840
  174SAPI  H14R19759   4.055   5.744   9.080 -0.9688  0.5220 -0.2305
  174SAPI  C21519760   3.964   5.645   8.913 -0.1990 -0.8557 -0.0274
  174SAPI  H15R19761   3.991   5.714   8.832 -1.8304 -0.7918 -0.5648
  174SAPI  C21619762   3.879   5.535   8.856 -0.0311 -0.4792 -0.2379
  174SAPI  H16R19763   3.780   5.534   8.907  0.3672  2.3535  0.7793
  174SAPI  H16S19764   3.927   5.437   8.879  2.0360  0.2619 -1.1581
  174SAPI  C21719765   3.860   5.533   8.699 -0.9499 -0.5175  0.3599
  174SAPI  H17R19766   3.960   5.509   8.655 -1.0249 -1.2557  0.5794
  174SAPI  H17S19767   3.854   5.637   8.661  1.5951 -0.9314 -1.5295
  174SAPI  C21819768   3.737   5.447   8.657  0.3103 -0.5842 -0.5263
  174SAPI  H18R19769   3.649   5.483   8.714  0.0670 -0.1633 -1.1558
  174SAPI  H18S19770   3.759   5.339   8.675 -3.1329 -1.5020 -1.0344
  174SAPI  C21919771   3.710   5.456   8.505  1.0305 -0.9253  0.0207
  174SAPI  H19R19772   3.702   5.564   8.479 -1.4389 -0.8945  0.6448
  174SAPI  H19S19773   3.619   5.402   8.472  0.0211  0.9706 -0.4272
  174SAPI  C22019774   3.821   5.397   8.422  0.1964  0.0888  0.7274
  174SAPI  H20R19775   3.915   5.456   8.426  0.8142 -0.5587 -1.9755
  174SAPI  H20S19776   3.788   5.397   8.316  2.2705  1.6676  0.0142
  174SAPI  H20T19777   3.827   5.290   8.450  1.1117  0.1597  0.8240
  174SAPI   C3319778   3.673   5.950   9.949 -0.0385 -1.0322  0.1770
  174SAPI   H3X19779   3.634   5.846   9.948 -4.0608  0.2521  1.6849
  174SAPI   H3Y19780   3.782   5.950   9.968  0.0700 -0.5529 -0.4124
  174SAPI   C3419781   3.640   6.009   9.812 -0.5498  0.5598 -0.2435
  174SAPI   H4X19782   3.696   5.965   9.727 -1.0249  0.3548 -0.4529
  174SAPI   H4Y19783   3.652   6.120   9.810 -1.1456  0.6180 -1.0788
  174SAPI   C3519784   3.490   6.002   9.788 -0.5995 -0.4072  0.7156
  174SAPI   H5X19785   3.432   6.055   9.866  0.6595  0.0281  1.3758
  174SAPI   H5Y19786   3.449   5.899   9.786  0.9017 -1.0556 -1.9542
  174SAPI   C3619787   3.457   6.053   9.644 -0.5063 -0.4944 -0.6640
  174SAPI   H6X19788   3.476   6.161   9.627  0.1603 -0.5780 -0.4743
  174SAPI   H6Y19789   3.348   6.042   9.628 -0.6316  0.3991 -0.5047
  174SAPI   C3719790   3.540   5.982   9.534 -0.6745 -0.7992 -0.7484
  174SAPI   H7X19791   3.507   5.879   9.559 -0.7795  0.1207  3.7066
  174SAPI   H7Y19792   3.649   5.967   9.543 -0.6571 -0.3126 -0.0976
  174SAPI   C3819793   3.498   6.028   9.389 -0.0902 -0.5275 -0.0593
  174SAPI   H8X19794   3.523   6.135   9.372 -2.3058  0.1032  0.3283
  174SAPI   H8Y19795   3.389   6.017   9.371  0.1242 -1.3312 -0.9332
  174SAPI   C3919796   3.571   5.942   9.282  0.1400  0.4963  0.4175
  174SAPI   H9X19797   3.524   5.843   9.270 -1.1869  1.4111 -3.3706
  174SAPI   H9Y19798   3.678   5.933   9.310  0.2210 -0.4629 -0.1764
  174SAPI  C31019799   3.568   6.010   9.147  0.4895  1.0049  0.8405
  174SAPI  H10X19800   3.597   6.116   9.161  1.9541  0.5893  1.2000
  174SAPI  H10Y19801   3.464   6.004   9.111  0.0793  1.9057  1.8254
  174SAPI  C31119802   3.673   5.946   9.057  0.2774  1.0155  0.8707
  174SAPI  H11X19803   3.674   5.837   9.035  1.8132  0.9398  1.2053
  174SAPI  H11Y19804   3.770   5.961   9.109  0.4448  1.5184  0.4343
  174SAPI  C31219805   3.696   6.003   8.921  0.8452  0.0419  0.5866
  174SAPI  H12X19806   3.784   5.954   8.875 -0.2671  0.7591 -2.5924
  174SAPI  H12Y19807   3.715   6.112   8.924 -1.1089  0.4139  0.9790
  174SAPI  C31319808   3.592   5.980   8.819  0.5065  0.1184  0.9713
  174SAPI  H13X19809   3.624   6.045   8.735  1.1553  0.1567  1.2376
  174SAPI  H13Y19810   3.499   6.022   8.863  0.3646  0.3830  0.4280
  174SAPI  C31419811   3.584   5.838   8.768  0.0242  0.5506  0.4561
  174SAPI  H14X19812   3.554   5.769   8.850  1.0114 -0.4482  0.0016
  174SAPI  H14Y19813   3.688   5.815   8.737 -0.3840  1.7165 -1.9652
  174SAPI  C31519814   3.504   5.817   8.636  0.6118 -0.0098 -0.5035
  174SAPI  H15X19815   3.521   5.714   8.599  2.0198  0.1805 -0.4349
  174SAPI  H15Y19816   3.544   5.875   8.550 -3.0096  0.6920 -1.8960
  174SAPI  C31619817   3.355   5.853   8.659 -0.4072 -0.8053 -0.3092
  174SAPI  H16X19818   3.354   5.963   8.669 -2.4696 -0.8605  0.5854
  174SAPI  H16Y19819   3.329   5.822   8.762  2.7873  0.9515  1.1688
  174SAPI  C31719820   3.254   5.818   8.550  0.0587  0.4208 -0.4788
  174SAPI  H17X19821   3.301   5.854   8.456 -0.7422 -1.5295 -1.6896
  174SAPI  H17Y19822   3.163   5.880   8.563  1.2444  2.8274 -2.7922
  174SAPI  C31819823   3.226   5.667   8.540 -0.0410 -0.4756  0.2026
  174SAPI  H18X19824   3.162   5.633   8.624 -1.7738  2.2550  0.0963
  174SAPI  H18Y19825   3.322   5.611   8.550 -0.3117 -0.8708  0.5875
  174SAPI  H18Z19826   3.179   5.639   8.443  1.4319 -0.2861 -0.5968
  175SAPI   C1219827   0.113   3.917   6.334 -0.1846 -0.8737  0.0766
  175SAPI    H219828   0.044   4.004   6.344 -0.8995 -1.3919 -0.2670
  175SAPI    O219829   0.143   3.884   6.471  0.4410 -0.0606 -0.1019
  175SAPI   HO219830   0.066   3.913   6.519 -0.2253  0.8431 -1.6330
  175SAPI   C1319831   0.039   3.797   6.268 -0.1297 -0.5012 -0.3999
  175SAPI    H319832   0.007   3.812   6.163 -0.8701 -2.6836 -0.5266
  175SAPI    O319833  -0.081   3.768   6.347  0.1008 -0.2683 -0.0622
  175SAPI   HO319834  -0.154   3.789   6.288  0.2719  2.4966  0.5991
  175SAPI   C1419835   0.136   3.674   6.262 -0.0631  0.3888 -0.1786
  175SAPI    H419836   0.175   3.647   6.362  1.4092 -1.1311 -1.1333
  175SAPI    O419837   0.082   3.549   6.211  0.2643 -0.4092 -0.1969
  175SAPI   HO419838   0.001   3.564   6.161  0.1484 -0.5700 -0.0575
  175SAPI   C1519839   0.267   3.712   6.184 -0.1117  0.5882 -0.5835
  175SAPI    H519840   0.237   3.718   6.077 -0.8470  0.1835 -0.4096
  175SAPI    O519841   0.361   3.598   6.196  0.0237 -0.0414 -0.1559
  175SAPI   HO519842   0.329   3.548   6.271  0.4036 -0.8467 -0.5199
  175SAPI   C1619843   0.334   3.836   6.240  0.3596  0.3195 -0.6793
  175SAPI    H619844   0.377   3.814   6.340  0.8593  1.6272 -0.5896
  175SAPI    O619845   0.450   3.870   6.162  0.2466  0.0528 -0.2202
  175SAPI   HO619846   0.526   3.837   6.211 -0.3245 -0.4817  0.3390
  175SAPI   C1119847   0.232   3.953   6.250  0.4558 -0.4449  0.2203
  175SAPI    H119848   0.193   3.974   6.148  1.2415  0.7659  0.1472
  175SAPI     P19849   0.260   4.217   6.229 -0.0717  0.0076 -0.5052
  175SAPI   O1319850   0.193   4.215   6.100  0.4796 -0.1143 -0.2782
  175SAPI   O1419851   0.394   4.286   6.243 -0.1325  0.2647 -0.1557
  175SAPI   O1219852   0.291   4.073   6.296  0.2275  0.2974 -0.0224
  175SAPI   O1119853   0.159   4.289   6.323  0.9279  0.4725  0.4029
  175SAPI    C119854   0.200   4.335   6.449 -1.1309  1.1746 -1.2857
  175SAPI    HA19855   0.311   4.333   6.459 -1.2768  0.1837  0.5991
  175SAPI    HB19856   0.166   4.436   6.479  0.3747  0.6561  2.8350
  175SAPI    C219857   0.141   4.245   6.563  0.7923  0.2087 -0.1169
  175SAPI    HS19858   0.185   4.143   6.562  1.8068  0.6113 -2.5664
  175SAPI   O2119859  -0.003   4.254   6.551  0.5039  0.2502 -0.1105
  175SAPI   C2119860  -0.073   4.137   6.576 -0.1646  0.5093  0.1941
  175SAPI   O2219861  -0.021   4.040   6.631 -0.2702  0.3396 -0.3831
  175SAPI   C2219862  -0.220   4.148   6.517 -0.4857  0.1622 -1.0346
  175SAPI   H2R19863  -0.233   4.248   6.469 -1.0285  1.6329  1.9536
  175SAPI   H2S19864  -0.226   4.061   6.448  2.6811  0.2096 -1.5089
  175SAPI    C319865   0.179   4.299   6.703 -0.2927 -0.7086 -0.1819
  175SAPI    HX19866   0.151   4.405   6.726  2.6434 -0.5163  3.5465
  175SAPI    HY19867   0.289   4.308   6.719  0.0283  1.5716 -2.9243
  175SAPI   O3119868   0.118   4.205   6.794 -0.1595 -0.2791  0.1537
  175SAPI   C3119869   0.184   4.101   6.841 -0.6726  0.1305  0.1616
  175SAPI   O3219870   0.300   4.079   6.812 -0.5136 -0.2680 -0.0452
  175SAPI   C3219871   0.106   4.031   6.958 -0.0113  0.4868  0.5415
  175SAPI   H2X19872   0.162   3.938   6.982 -1.2210 -0.0560  1.3921
  175SAPI   H2Y19873   0.005   4.002   6.922  0.1093  2.7977 -1.9861
  175SAPI   C2319874  -0.320   4.153   6.637  0.3579 -0.3570  0.1530
  175SAPI   H3R19875  -0.292   4.079   6.714  1.4587 -2.1624 -1.8691
  175SAPI   H3S19876  -0.418   4.116   6.600  0.0425  1.7008 -1.2523
  175SAPI   C2419877  -0.338   4.297   6.697  0.4567  0.3927  1.0725
  175SAPI   H4R19878  -0.440   4.302   6.741 -0.3453 -0.4796 -0.5802
  175SAPI   H4S19879  -0.338   4.367   6.611 -1.2063 -2.3405 -1.3554
  175SAPI   C2519880  -0.234   4.327   6.793  0.3274  0.1680 -0.3961
  175SAPI   H5R19881  -0.140   4.342   6.737 -0.8105 -0.4205 -2.5515
  175SAPI   C2619882  -0.238   4.344   6.923 -0.0038  0.9789 -0.1119
  175SAPI   H6R19883  -0.142   4.361   6.974  1.0138 -1.9196 -0.8987
  175SAPI   C2719884  -0.362   4.332   7.007  0.0308  0.3108 -0.6389
  175SAPI   H7R19885  -0.454   4.339   6.945 -0.2500 -3.6036 -0.9467
  175SAPI   H7S19886  -0.367   4.418   7.077  0.3386  0.1894 -0.4659
  175SAPI   C2819887  -0.364   4.201   7.087  0.5902  0.1680 -0.1912
  175SAPI   H8R19888  -0.321   4.114   7.036 -1.7519 -1.2371  0.1138
  175SAPI   C2919889  -0.405   4.194   7.216  0.3624 -0.4540 -0.5921
  175SAPI   H9R19890  -0.422   4.093   7.255 -2.0501 -0.4608 -1.5072
  175SAPI  C21019891  -0.462   4.311   7.300 -0.7437  0.4321  0.2266
  175SAPI  H10R19892  -0.544   4.279   7.368 -0.0141  0.0493  0.9434
  175SAPI  H10S19893  -0.511   4.386   7.234 -1.1961  0.1891  0.2785
  175SAPI  C21119894  -0.341   4.384   7.354  0.2457  0.6518  0.0372
  175SAPI  H11R19895  -0.277   4.430   7.277  1.6896  1.6262  1.7325
  175SAPI  C21219896  -0.314   4.396   7.484  0.6649 -0.3556 -0.1274
  175SAPI  H12R19897  -0.212   4.429   7.510 -0.0029  0.8340  1.1058
  175SAPI  C21319898  -0.395   4.331   7.593 -0.4022 -0.2837  0.0111
  175SAPI  H13R19899  -0.497   4.309   7.555 -0.8614  0.1707  0.9281
  175SAPI  H13S19900  -0.403   4.396   7.683  1.5862 -1.9406  1.4817
  175SAPI  C21419901  -0.334   4.202   7.630  0.4105 -0.2976 -0.4176
  175SAPI  H14R19902  -0.256   4.150   7.572  0.0655 -1.2565 -0.0385
  175SAPI  C21519903  -0.341   4.145   7.747  0.3797 -0.4555  0.6039
  175SAPI  H15R19904  -0.277   4.057   7.758  0.8325 -0.0578  1.2042
  175SAPI  C21619905  -0.410   4.204   7.867  0.0256  0.3595  0.4694
  175SAPI  H16R19906  -0.441   4.126   7.939 -0.4664  2.0680  2.2149
  175SAPI  H16S19907  -0.503   4.260   7.842 -0.4721 -1.3310 -1.7169
  175SAPI  C21719908  -0.317   4.295   7.950 -0.0655 -0.1010 -0.2666
  175SAPI  H17R19909  -0.295   4.389   7.895  0.0205 -0.9064 -1.6604
  175SAPI  H17S19910  -0.220   4.241   7.961  0.0550  0.0763 -0.4469
  175SAPI  C21819911  -0.384   4.333   8.078 -0.4941 -0.5112 -0.6428
  175SAPI  H18R19912  -0.437   4.255   8.137 -0.2523  0.0710  0.3801
  175SAPI  H18S19913  -0.472   4.394   8.050 -1.7522 -0.8835  2.1449
  175SAPI  C21919914  -0.294   4.427   8.170 -0.7671 -0.5601  0.2212
  175SAPI  H19R19915  -0.208   4.371   8.211  0.1452  0.3335 -0.4204
  175SAPI  H19S19916  -0.359   4.436   8.260 -2.3182  1.1612 -0.9878
  175SAPI  C22019917  -0.253   4.569   8.124  0.8998  0.3731 -0.8280
  175SAPI  H20R19918  -0.344   4.633   8.114 -0.4375 -1.2369  0.3310
  175SAPI  H20S19919  -0.194   4.555   8.031  1.4530 -2.8717 -0.1106
  175SAPI  H20T19920  -0.190   4.626   8.196 -0.1654  0.6647 -0.0971
  175SAPI   C3319921   0.090   4.119   7.081 -0.4015  0.1428 -0.3112
  175SAPI   H3X19922  -0.006   4.172   7.068 -2.1052 -1.9203  2.8229
  175SAPI   H3Y19923   0.175   4.191   7.085 -1.0017  0.8016  1.0547
  175SAPI   C3419924   0.078   4.039   7.215  0.4613 -0.0244 -0.6304
  175SAPI   H4X19925   0.162   3.968   7.228 -0.5627 -1.0018  0.7948
  175SAPI   H4Y19926  -0.020   3.986   7.215  0.9176 -0.8849 -0.8043
  175SAPI   C3519927   0.076   4.141   7.333 -0.4506 -0.1745  0.0538
  175SAPI   H5X19928  -0.018   4.200   7.336 -0.0874  0.4071  0.1597
  175SAPI   H5Y19929   0.157   4.217   7.340 -0.0822 -0.5545 -0.0898
  175SAPI   C3619930   0.070   4.075   7.473 -0.6630 -0.3160 -0.9729
  175SAPI   H6X19931   0.157   4.011   7.496  1.3022  2.7044  0.7057
  175SAPI   H6Y19932  -0.019   4.010   7.487 -0.6312 -0.6874 -2.4026
  175SAPI   C3719933   0.079   4.166   7.594  0.5551 -0.6969 -0.1898
  175SAPI   H7X19934  -0.016   4.223   7.605  1.7265  1.0293  1.6625
  175SAPI   H7Y19935   0.158   4.237   7.560 -0.0011  0.3764  0.6802
  175SAPI   C3819936   0.127   4.103   7.731 -0.2379  0.7442 -0.1614
  175SAPI   H8X19937   0.233   4.075   7.709 -0.0930  2.5873 -2.0817
  175SAPI   H8Y19938   0.073   4.006   7.739 -0.0306  0.6023 -0.4494
  175SAPI   C3919939   0.121   4.192   7.856 -0.5986  0.3065  0.2244
  175SAPI   H9X19940   0.016   4.221   7.879 -0.9874  0.1595 -1.3184
  175SAPI   H9Y19941   0.187   4.275   7.822 -0.4860  0.9002  1.8058
  175SAPI  C31019942   0.170   4.131   7.982 -0.1074 -0.0522 -0.1555
  175SAPI  H10X19943   0.270   4.086   7.964  0.4717  1.1575  0.0008
  175SAPI  H10Y19944   0.103   4.047   8.012 -2.3651  1.4227 -0.7608
  175SAPI  C31119945   0.181   4.237   8.099  0.2936 -0.1436  0.0095
  175SAPI  H11X19946   0.078   4.269   8.127  0.0745 -1.1581  0.4081
  175SAPI  H11Y19947   0.235   4.324   8.056 -0.7701  0.4348 -0.1858
  175SAPI  C31219948   0.242   4.198   8.232  0.1806 -0.7334  0.0059
  175SAPI  H12X19949   0.255   4.291   8.291  1.2959 -0.3893 -0.7495
  175SAPI  H12Y19950   0.343   4.158   8.210  0.7089  0.8613 -0.6212
  175SAPI  C31319951   0.169   4.083   8.312  0.9373  0.6813 -0.1675
  175SAPI  H13X19952   0.236   3.996   8.297 -0.6099 -0.7981  1.0596
  175SAPI  H13Y19953   0.067   4.059   8.273  0.1080  2.8115  0.4853
  175SAPI  C31419954   0.163   4.100   8.466  0.4782  0.3462  1.1851
  175SAPI  H14X19955   0.072   4.163   8.481  0.2448  0.4811 -0.5522
  175SAPI  H14Y19956   0.244   4.164   8.506  0.5978  1.0527 -0.1215
  175SAPI  C31519957   0.155   3.965   8.550  0.4155  0.4105  0.6187
  175SAPI  H15X19958   0.257   3.922   8.540  0.7228  1.4751 -1.4232
  175SAPI  H15Y19959   0.083   3.896   8.502  1.3208 -0.2176  0.1369
  175SAPI  C31619960   0.115   3.984   8.698 -0.1150 -0.0007  0.6079
  175SAPI  H16X19961   0.113   3.890   8.757 -0.9022  1.3155  2.8202
  175SAPI  H16Y19962   0.012   4.025   8.696 -1.0538 -2.2054  0.0528
  175SAPI  C31719963   0.211   4.081   8.773  0.2676  0.7913 -0.1965
  175SAPI  H17X19964   0.204   4.189   8.746  2.3938  0.8176 -0.8150
  175SAPI  H17Y19965   0.305   4.037   8.733 -0.1071 -0.6950  0.4855
  175SAPI  C31819966   0.213   4.082   8.927  0.6137  0.2940 -0.4570
  175SAPI  H18X19967   0.112   4.107   8.966  0.8260  1.0360 -0.3658
  175SAPI  H18Y19968   0.288   4.157   8.962  0.1619  0.6902 -0.3162
  175SAPI  H18Z19969   0.244   3.984   8.968 -0.5721  0.7816  1.7280
  176SAPI   C1219970   6.618   2.894   6.278  0.0522  0.4808  0.0385
  176SAPI    H219971   6.590   2.833   6.366  0.5465 -0.1372 -0.2304
  176SAPI    O219972   6.693   2.806   6.193  0.4850 -0.0580  0.7447
  176SAPI   HO219973   6.656   2.718   6.201 -0.0429  0.2664  2.0879
  176SAPI   C1319974   6.485   2.943   6.211 -0.2480  0.1945  0.1579
  176SAPI    H319975   6.431   2.985   6.299  0.9809  0.7330  0.6872
  176SAPI    O319976   6.408   2.833   6.161  0.4766 -0.0230 -0.5275
  176SAPI   HO319977   6.362   2.786   6.230 -1.0324 -0.5117 -1.8103
  176SAPI   C1419978   6.511   3.048   6.105 -0.5665 -0.4188 -0.2492
  176SAPI    H419979   6.574   3.009   6.023 -0.5287 -0.5608 -0.1521
  176SAPI    O419980   6.388   3.087   6.038 -0.4838  0.5572 -0.2972
  176SAPI   HO419981   6.312   3.053   6.085  0.2856 -0.0559  0.5535
  176SAPI   C1519982   6.585   3.165   6.171 -0.1672  0.3446 -0.3994
  176SAPI    H519983   6.514   3.197   6.250 -2.4023  0.2455 -2.2640
  176SAPI    O519984   6.607   3.266   6.079  0.3396  0.3821 -0.9466
  176SAPI   HO519985   6.662   3.335   6.119 -1.1313  2.0437 -1.6709
  176SAPI   C1619986   6.721   3.119   6.232 -0.2821 -0.2054 -0.5636
  176SAPI    H619987   6.777   3.077   6.145 -0.7745 -0.0100 -0.9854
  176SAPI    O619988   6.798   3.223   6.290  0.2394  0.0350  0.0511
  176SAPI   HO619989   6.881   3.185   6.320 -0.0418 -1.3485 -0.8152
  176SAPI   C1119990   6.694   3.014   6.332 -0.4069  0.1121 -0.1913
  176SAPI    H119991   6.625   3.067   6.402  0.2456  0.4452  0.2143
  176SAPI     P19992   6.864   2.970   6.538  0.2960 -0.1627  0.0337
  176SAPI   O1319993   6.812   3.094   6.596  0.4624 -0.2199 -0.6198
  176SAPI   O1419994   7.012   2.942   6.544  0.4013 -0.0569 -0.5908
  176SAPI   O1219995   6.813   2.958   6.383 -0.5850  0.2070 -0.5240
  176SAPI   O1119996   6.790   2.850   6.614  0.2112  0.6234  0.8309
  176SAPI    C119997   6.667   2.874   6.686 -0.4026 -0.1359  0.3392
  176SAPI    HA19998   6.599   2.934   6.622 -0.7525 -0.5653  0.3040
  176SAPI    HB19999   6.603   2.787   6.708 -1.6115  1.3364  3.1205
  176SAPI    C220000   6.693   2.924   6.832 -0.4057  0.4594 -0.7846
  176SAPI    HS20001   6.771   3.004   6.832  1.1655 -0.9991  0.7822
  176SAPI   O2120002   6.744   2.803   6.895 -0.6337  0.6011 -0.4222
  176SAPI   C2120003   6.813   2.823   7.006 -1.6292  0.2278 -0.1745
  176SAPI   O2220004   6.831   2.926   7.062  0.7150  0.3499 -0.0267
  176SAPI   C2220005   6.861   2.682   7.049 -0.4811  0.7328 -0.1633
  176SAPI   H2R20006   6.792   2.642   7.126 -0.2006 -1.6111 -1.0721
  176SAPI   H2S20007   6.845   2.614   6.963  2.0031  1.6914 -1.4716
  176SAPI    C320008   6.564   2.982   6.911  1.1821  0.4206 -0.0508
  176SAPI    HX20009   6.482   2.908   6.898  0.1707  1.3455  0.9155
  176SAPI    HY20010   6.522   3.059   6.842 -0.9508 -2.1761 -1.8710
  176SAPI   O3120011   6.575   3.020   7.051  0.5139 -0.1904  0.3348
  176SAPI   C3120012   6.607   3.152   7.073 -0.6828  0.1374 -0.3448
  176SAPI   O3220013   6.643   3.227   6.990 -0.3764  0.1002  0.6650
  176SAPI   C3220014   6.581   3.180   7.219  0.6672 -0.3494 -0.2261
  176SAPI   H2X20015   6.483   3.139   7.251  1.2900 -0.5603  1.5386
  176SAPI   H2Y20016   6.576   3.291   7.228  0.4495 -0.3176 -0.7482
  176SAPI   C2320017   7.007   2.667   7.082 -0.0863 -0.0207  0.7234
  176SAPI   H3R20018   7.054   2.744   7.147 -1.8483  1.1937  0.6325
  176SAPI   H3S20019   7.056   2.671   6.982 -1.5651 -2.8184 -0.2272
  176SAPI   C2420020   7.015   2.537   7.163  0.1642 -0.0174  0.2741
  176SAPI   H4R20021   6.972   2.449   7.111 -1.4535  0.9336 -0.0490
  176SAPI   H4S20022   6.944   2.545   7.248  0.0981 -2.2289  0.4881
  176SAPI   C2520023   7.156   2.504   7.197  0.2254  0.2080 -0.0290
  176SAPI   H5R20024   7.214   2.493   7.105 -0.8961  0.3524 -0.7744
  176SAPI   C2620025   7.208   2.523   7.324  0.8711  0.7463  0.2424
  176SAPI   H6R20026   7.315   2.504   7.343  0.4595 -1.3280  0.7415
  176SAPI   C2720027   7.141   2.555   7.456 -0.3932 -0.9362 -0.5600
  176SAPI   H7R20028   7.180   2.483   7.531  0.6634 -0.3015 -0.4837
  176SAPI   H7S20029   7.032   2.530   7.451 -0.9451  0.5067  2.2148
  176SAPI   C2820030   7.150   2.707   7.484 -0.3717  0.2110 -0.7011
  176SAPI   H8R20031   7.094   2.768   7.411  0.8992  0.2221 -1.7005
  176SAPI   C2920032   7.213   2.759   7.590  1.2229 -0.1376  0.0097
  176SAPI   H9R20033   7.206   2.868   7.607 -0.8131 -0.6176  3.0839
  176SAPI  C21020034   7.283   2.689   7.696 -0.1341  0.4665  0.4484
  176SAPI  H10R20035   7.388   2.720   7.676 -0.7555  2.1287 -0.3953
  176SAPI  H10S20036   7.271   2.579   7.684  0.0786  0.4671  0.2184
  176SAPI  C21120037   7.238   2.719   7.832 -0.1142  0.2245  0.1757
  176SAPI  H11R20038   7.293   2.804   7.873  1.7309 -0.2669 -1.1368
  176SAPI  C21220039   7.164   2.642   7.912 -0.4685 -0.3912  0.0885
  176SAPI  H12R20040   7.136   2.688   8.009  1.8744  3.2006 -0.7274
  176SAPI  C21320041   7.105   2.504   7.887 -0.4029  0.0371  0.4455
  176SAPI  H13R20042   7.137   2.458   7.791 -0.2190 -1.2077  1.0777
  176SAPI  H13S20043   6.994   2.512   7.886 -0.4579 -0.3564  1.5532
  176SAPI  C21420044   7.136   2.403   7.998  0.4175 -0.4634 -0.2167
  176SAPI  H14R20045   7.205   2.320   7.977 -1.5345 -1.9490 -1.0057
  176SAPI  C21520046   7.087   2.405   8.122  0.3077 -0.8339  1.1670
  176SAPI  H15R20047   7.116   2.330   8.197 -0.8291 -1.6476  0.8274
  176SAPI  C21620048   6.987   2.502   8.190  0.3337 -0.2241 -0.2435
  176SAPI  H16R20049   6.902   2.443   8.232  1.1143 -0.8261  0.5378
  176SAPI  H16S20050   6.954   2.583   8.122 -0.9294 -0.8292 -0.3857
  176SAPI  C21720051   7.057   2.581   8.302  0.9164  0.9108  0.6483
  176SAPI  H17R20052   7.154   2.611   8.257 -0.1281  2.0656 -0.9294
  176SAPI  H17S20053   7.068   2.521   8.395 -0.2616 -1.1821 -0.4860
  176SAPI  C21820054   6.978   2.708   8.331  0.1220 -0.0626 -0.4710
  176SAPI  H18R20055   6.963   2.769   8.239  2.2353 -0.5106 -1.1740
  176SAPI  H18S20056   7.041   2.766   8.402  0.8703 -1.1175 -0.2504
  176SAPI  C21920057   6.852   2.677   8.421  0.1841  0.0234 -0.0455
  176SAPI  H19R20058   6.881   2.608   8.503 -0.1706  0.4717  0.4568
  176SAPI  H19S20059   6.781   2.624   8.354 -2.0915  2.4046  0.3597
  176SAPI  C22020060   6.783   2.798   8.474 -0.0740  0.0280 -0.3173
  176SAPI  H20R20061   6.726   2.846   8.392 -0.9221  1.9378  1.3155
  176SAPI  H20S20062   6.856   2.874   8.509  1.8707 -2.5563  1.7201
  176SAPI  H20T20063   6.707   2.769   8.550  0.1915  1.0125  0.3345
  176SAPI   C3320064   6.696   3.122   7.309 -0.0412 -0.5003 -0.8112
  176SAPI   H3X20065   6.705   3.015   7.281 -1.0438 -0.2365 -2.2872
  176SAPI   H3Y20066   6.662   3.130   7.414  0.1721 -0.7262 -0.7244
  176SAPI   C3420067   6.827   3.202   7.287  0.7575  0.8397 -0.8531
  176SAPI   H4X20068   6.823   3.310   7.314 -0.9728  0.3491  1.1693
  176SAPI   H4Y20069   6.859   3.192   7.181  2.2384 -1.1957 -0.2806
  176SAPI   C3520070   6.941   3.135   7.367 -0.5312  0.5372 -0.2034
  176SAPI   H5X20071   6.971   3.043   7.312 -2.3971  0.3346 -0.9413
  176SAPI   H5Y20072   6.902   3.110   7.468 -1.0825  1.6215 -0.1355
  176SAPI   C3620073   7.063   3.230   7.379 -0.4769 -0.1778 -0.0226
  176SAPI   H6X20074   7.017   3.320   7.425  0.9513  0.4286  0.2582
  176SAPI   H6Y20075   7.104   3.251   7.278  0.1774 -1.0048  0.0566
  176SAPI   C3720076   7.181   3.187   7.469  0.0707 -0.7317  0.1451
  176SAPI   H7X20077   7.245   3.277   7.462 -3.1291  1.8227  1.4538
  176SAPI   H7Y20078   7.227   3.099   7.417 -1.5907 -0.6064 -1.6811
  176SAPI   C3820079   7.148   3.151   7.612 -0.1637  0.1019  0.1662
  176SAPI   H8X20080   7.103   3.050   7.609  1.3865 -0.6946  1.9343
  176SAPI   H8Y20081   7.063   3.216   7.643 -0.0993  0.4510 -0.3700
  176SAPI   C3920082   7.268   3.161   7.694  0.2725 -0.3576 -0.8183
  176SAPI   H9X20083   7.323   3.256   7.678  1.2732 -0.7296  0.3167
  176SAPI   H9Y20084   7.341   3.080   7.674  3.3597  1.8368  0.7254
  176SAPI  C31020085   7.225   3.165   7.845 -0.1487 -1.0603 -0.3871
  176SAPI  H10X20086   7.180   3.067   7.872 -1.2315 -0.0873  1.6051
  176SAPI  H10Y20087   7.143   3.240   7.852  2.1847  1.5003  2.0286
  176SAPI  C31120088   7.327   3.213   7.950  0.4707  0.0806 -0.6154
  176SAPI  H11X20089   7.359   3.313   7.912  1.5343 -0.4094 -1.0456
  176SAPI  H11Y20090   7.420   3.154   7.942  0.6350 -0.0504  1.5749
  176SAPI  C31220091   7.271   3.201   8.093  0.0913 -0.1080 -0.1216
  176SAPI  H12X20092   7.265   3.096   8.129  1.6671  0.1179  0.9009
  176SAPI  H12Y20093   7.170   3.245   8.087 -0.8829 -2.4321 -2.6845
  176SAPI  C31320094   7.346   3.294   8.188  0.0014  0.0743  0.1971
  176SAPI  H13X20095   7.344   3.392   8.137 -0.5479  0.8422  1.6366
  176SAPI  H13Y20096   7.450   3.256   8.189  0.1144  0.3678 -0.1805
  176SAPI  C31420097   7.290   3.321   8.333  0.2220 -0.1554  0.4360
  176SAPI  H14X20098   7.187   3.359   8.315  0.4910 -0.0390 -1.0369
  176SAPI  H14Y20099   7.348   3.405   8.377 -0.1876  1.6721 -2.2297
  176SAPI  C31520100   7.278   3.194   8.421 -0.3870 -0.8452  0.4478
  176SAPI  H15X20101   7.237   3.108   8.364 -2.0638  0.6490 -0.7214
  176SAPI  H15Y20102   7.202   3.209   8.501  0.5015 -0.6325  1.2710
  176SAPI  C31620103   7.416   3.142   8.476  0.4303  0.1357  0.1296
  176SAPI  H16X20104   7.461   3.222   8.539 -0.7558  0.1819  0.9578
  176SAPI  H16Y20105   7.490   3.125   8.395 -0.2398 -0.4690 -0.3698
  176SAPI  C31720106   7.396   3.023   8.566 -0.2605  0.6909 -0.5031
  176SAPI  H17X20107   7.368   2.936   8.502 -1.0216  1.1421 -0.7946
  176SAPI  H17Y20108   7.311   3.033   8.637 -1.5950 -0.6800 -1.8132
  176SAPI  C31820109   7.530   2.992   8.633  0.5252  0.3936  0.8632
  176SAPI  H18X20110   7.560   3.073   8.703  0.9072  0.4702  0.6144
  176SAPI  H18Y20111   7.622   2.996   8.570  1.0749  2.2375  1.7135
  176SAPI  H18Z20112   7.522   2.906   8.703 -1.6526 -0.3581 -0.2136
  177SLPC     N20113   4.841   6.460  10.932 -0.8897 -0.3795  0.5424
  177SLPC   C1320114   4.853   6.340  11.021  0.3132 -0.2025  0.1218
  177SLPC  H13A20115   4.892   6.366  11.119  1.4213 -0.2797 -0.2849
  177SLPC  H13B20116   4.754   6.302  11.039 -0.0250  0.3985 -0.4352
  177SLPC  H13C20117   4.923   6.263  10.992 -0.0024 -1.6900  2.9447
  177SLPC   C1420118   4.745   6.555  10.974  0.0232 -0.6109 -0.0230
  177SLPC  H14A20119   4.718   6.633  10.904 -0.2867 -0.8461 -0.1625
  177SLPC  H14B20120   4.650   6.508  10.995 -0.4372  0.6806  0.9609
  177SLPC  H14C20121   4.778   6.601  11.067  3.0467 -1.4222 -0.5961
  177SLPC   C1520122   4.809   6.411  10.794  0.2784 -0.5415 -0.9111
  177SLPC  H15A20123   4.705   6.387  10.804  0.2975  0.2599  2.5418
  177SLPC  H15B20124   4.830   6.485  10.718  1.2249  1.4614  1.1686
  177SLPC  H15C20125   4.867   6.321  10.782  0.9224 -0.3261  0.3786
  177SLPC   C1220126   4.985   6.529  10.927 -0.0196 -0.0767 -0.7867
  177SLPC  H12A20127   5.056   6.448  10.914  1.4140  1.0966 -0.4847
  177SLPC  H12B20128   5.003   6.582  11.019  0.0386  1.7618 -1.8147
  177SLPC   C1120129   5.013   6.635  10.825  1.1932 -0.7494 -0.1493
  177SLPC  H11A20130   4.987   6.600  10.723 -1.3588 -0.1945  0.2340
  177SLPC  H11B20131   5.121   6.660  10.819  1.1118 -0.5817 -1.2027
  177SLPC     P20132   4.980   6.875  10.923  0.1196  0.1146 -0.7281
  177SLPC   O1320133   4.863   6.931  10.999  0.0843 -0.2391  0.1992
  177SLPC   O1420134   5.082   6.825  11.017 -0.3524  0.6468 -0.1849
  177SLPC   O1220135   4.925   6.745  10.844 -0.1608  0.1159 -0.1846
  177SLPC   O1120136   5.028   6.978  10.818 -0.0850  0.6518  0.4071
  177SLPC    C120137   4.960   7.030  10.707  0.6203 -0.3694  0.4984
  177SLPC    HA20138   4.858   7.056  10.743  0.4806 -0.4148  0.1447
  177SLPC    HB20139   5.017   7.123  10.686 -0.8323  0.0507 -1.9285
  177SLPC    C220140   4.969   6.940  10.583 -0.2770 -0.3597  0.0210
  177SLPC    HS20141   4.910   6.850  10.611  1.6986 -1.9185 -0.6344
  177SLPC   O2120142   5.110   6.911  10.574  0.1818 -0.3026 -0.4733
  177SLPC   C2120143   5.145   6.810  10.507 -0.0688  0.6556 -0.8287
  177SLPC   O2220144   5.075   6.720  10.465  0.2346  0.3494 -0.4348
  177SLPC   C2220145   5.295   6.818  10.479  0.3558 -0.6291 -0.2320
  177SLPC   H2R20146   5.352   6.818  10.574  1.7558  0.7967 -1.0381
  177SLPC   H2S20147   5.323   6.733  10.413  2.2543 -0.5596  0.4391
  177SLPC    C320148   4.902   7.002  10.455 -0.3109  0.1012 -0.2968
  177SLPC    HX20149   4.938   7.106  10.445 -0.1423 -0.0236 -1.0552
  177SLPC    HY20150   4.792   7.018  10.467 -0.0510  0.6355  1.8256
  177SLPC   O3120151   4.930   6.926  10.334  0.3676  0.4251  0.0432
  177SLPC   C3120152   4.833   6.838  10.308 -1.4314  0.5170  0.3404
  177SLPC   O3220153   4.729   6.829  10.366  0.3764  0.1010  0.2510
  177SLPC   C3220154   4.874   6.773  10.175  0.2949  0.0930 -0.3751
  177SLPC   H2X20155   4.981   6.743  10.181 -0.0545 -1.2835 -0.5934
  177SLPC   H2Y20156   4.866   6.858  10.105 -2.0723  0.1248 -0.1499
  177SLPC   C2320157   5.336   6.965  10.420  0.4774  0.0383 -0.7882
  177SLPC   H3R20158   5.446   6.971  10.412  0.4191  0.3833 -1.4082
  177SLPC   H3S20159   5.301   7.032  10.502  0.7024  0.1642 -0.7932
  177SLPC   C2420160   5.266   6.996  10.287  0.4589 -0.3301  0.3088
  177SLPC   H4R20161   5.295   7.099  10.255 -2.6459  0.8834  1.0480
  177SLPC   H4S20162   5.161   6.985  10.320  0.3605  2.4604  1.1754
  177SLPC   C2520163   5.299   6.903  10.171 -0.1234  0.2309  0.1876
  177SLPC   H5R20164   5.288   6.803  10.220  0.6948  0.3945  0.7231
  177SLPC   H5S20165   5.405   6.910  10.139 -0.3975  2.0028 -0.3908
  177SLPC   C2620166   5.219   6.906  10.046 -0.3149  0.3844  0.6931
  177SLPC   H6R20167   5.252   6.997   9.991 -1.8422  0.0578 -0.8709
  177SLPC   H6S20168   5.112   6.916  10.071 -0.8819 -1.9986 -0.4497
  177SLPC   C2720169   5.236   6.775   9.966  0.2550  0.2364  0.1244
  177SLPC   H7R20170   5.233   6.684  10.029  0.7824  0.3207  0.2781
  177SLPC   H7S20171   5.337   6.774   9.920 -0.6401 -3.1563 -2.1564
  177SLPC   C2820172   5.134   6.775   9.850  0.2606  0.6535 -0.3329
  177SLPC   H8R20173   5.031   6.775   9.894  0.1090  3.1774 -0.5501
  177SLPC   H8S20174   5.142   6.674   9.804 -1.1612  1.5455 -2.7280
  177SLPC   C2920175   5.160   6.872   9.739  0.0715  0.4451 -0.2364
  177SLPC   H9R20176   5.185   6.971   9.777  2.3756  0.4220 -1.5162
  177SLPC  C21020177   5.156   6.854   9.604 -0.0918  0.9267 -0.2746
  177SLPC  H10R20178   5.186   6.940   9.543  0.5164  2.5486  2.1539
  177SLPC  C21120179   5.125   6.719   9.538 -0.0166  0.6598  0.0413
  177SLPC  H11R20180   5.191   6.701   9.450  2.5464  0.5990  1.8718
  177SLPC  H11S20181   5.162   6.629   9.592 -0.7462  0.0540 -0.4363
  177SLPC  C21220182   4.982   6.709   9.481 -0.2945 -0.3070 -0.4642
  177SLPC  H12R20183   4.923   6.794   9.519  2.6203  0.4243  2.9929
  177SLPC  C21320184   4.924   6.612   9.411 -0.3477  0.3476  0.1784
  177SLPC  H13R20185   4.815   6.619   9.395 -0.2036 -0.0854 -1.1198
  177SLPC  C21420186   5.002   6.494   9.362  0.5166  0.1956  0.6846
  177SLPC  H14R20187   4.939   6.408   9.392  1.0369  0.1451  1.6816
  177SLPC  H14S20188   5.100   6.489   9.414 -0.3122 -0.4598  2.2481
  177SLPC  C21520189   5.028   6.506   9.209 -0.2199 -0.8097  0.7158
  177SLPC  H15R20190   5.074   6.603   9.182 -1.1285  0.6437  3.9096
  177SLPC  H15S20191   4.929   6.497   9.158 -0.1541  3.0440 -0.3515
  177SLPC  C21620192   5.117   6.393   9.148 -0.2797  0.3488  0.3328
  177SLPC  H16R20193   5.115   6.391   9.037  2.7751  1.9503  0.1630
  177SLPC  H16S20194   5.064   6.299   9.173 -1.4091  0.9539  0.3013
  177SLPC  C21720195   5.269   6.378   9.187  0.3939  0.3780  0.4040
  177SLPC  H17R20196   5.303   6.275   9.166 -4.1615 -1.1710 -0.5842
  177SLPC  H17S20197   5.279   6.397   9.296 -1.2128 -2.3196  1.1141
  177SLPC  C21820198   5.354   6.473   9.106 -0.5008 -0.0168 -0.8839
  177SLPC  H18R20199   5.322   6.579   9.112  0.4955  0.2191  0.9614
  177SLPC  H18S20200   5.348   6.437   9.001  2.6419 -0.8852 -0.8841
  177SLPC  H18T20201   5.458   6.470   9.145 -0.6671  1.1306 -0.3288
  177SLPC   C3320202   4.784   6.656  10.130  0.1317 -0.2481  0.1138
  177SLPC   H3X20203   4.689   6.709  10.111  1.1524  2.1018  1.1885
  177SLPC   H3Y20204   4.774   6.569  10.199 -1.3392 -0.8714 -0.8368
  177SLPC   C3420205   4.817   6.603   9.987  0.0202 -0.0361 -0.2751
  177SLPC   H4X20206   4.922   6.569   9.981  0.4345  1.4034 -1.7723
  177SLPC   H4Y20207   4.808   6.693   9.924  0.3481  0.1181 -0.1007
  177SLPC   C3520208   4.722   6.497   9.932  0.0208  0.0587  0.2957
  177SLPC   H5X20209   4.619   6.537   9.944 -0.3475 -0.8668  0.2291
  177SLPC   H5Y20210   4.730   6.407   9.995  0.3374 -2.2302 -2.7932
  177SLPC   C3620211   4.741   6.467   9.784  0.2562 -0.2177  0.3078
  177SLPC   H6X20212   4.848   6.480   9.754 -0.3941  0.0718 -2.1248
  177SLPC   H6Y20213   4.683   6.540   9.724 -0.6374  0.6542  2.1499
  177SLPC   C3720214   4.715   6.319   9.740  0.5778 -0.1350 -0.7546
  177SLPC   H7X20215   4.613   6.291   9.774  1.8271 -1.1732  2.4745
  177SLPC   H7Y20216   4.781   6.257   9.804  3.4032  1.7505 -1.6700
  177SLPC   C3820217   4.726   6.291   9.594  0.5169 -0.2209 -0.0800
  177SLPC   H8X20218   4.836   6.286   9.586  0.5791  1.4916 -0.8085
  177SLPC   H8Y20219   4.687   6.384   9.547 -0.1049 -0.1853  0.4916
  177SLPC   C3920220   4.663   6.156   9.549  0.4360  0.5996 -0.1339
  177SLPC   H9X20221   4.553   6.149   9.560  0.6026 -1.0162  0.9412
  177SLPC   H9Y20222   4.716   6.082   9.613  0.2236  0.4897 -0.0821
  177SLPC  C31020223   4.689   6.130   9.397  0.1178  0.1488  0.8947
  177SLPC  H10X20224   4.695   6.021   9.380  0.4832  0.2930  0.0491
  177SLPC  H10Y20225   4.793   6.165   9.380  0.2448 -0.7204 -0.2687
  177SLPC  C31120226   4.587   6.190   9.296  0.1758  0.1019 -0.6640
  177SLPC  H11X20227   4.589   6.299   9.319  1.2825  0.0578 -0.4513
  177SLPC  H11Y20228   4.488   6.151   9.325  0.8841 -1.7702 -0.6263
  177SLPC  C31220229   4.608   6.155   9.150 -0.2210 -0.0325  0.0016
  177SLPC  H12X20230   4.552   6.231   9.091 -0.4674 -2.1330 -2.6464
  177SLPC  H12Y20231   4.566   6.053   9.134 -1.8926  0.3633  1.4891
  177SLPC  C31320232   4.753   6.156   9.096  0.0217 -0.1171  0.7600
  177SLPC  H13X20233   4.809   6.082   9.158 -1.6063 -0.8038  1.4788
  177SLPC  H13Y20234   4.793   6.257   9.119  1.1415 -0.2748 -0.3945
  177SLPC  C31420235   4.758   6.123   8.943 -0.2708 -0.1164  0.1572
  177SLPC  H14X20236   4.700   6.199   8.886  0.1133 -1.8863 -2.7904
  177SLPC  H14Y20237   4.724   6.021   8.917  0.0120 -0.1829  0.0440
  177SLPC  C31520238   4.903   6.150   8.883  1.2155 -0.0414  0.2640
  177SLPC  H15X20239   4.980   6.109   8.953  0.5761 -3.2606 -0.7651
  177SLPC  H15Y20240   4.906   6.259   8.867 -0.1050 -0.2953 -2.1690
  177SLPC  C31620241   4.914   6.099   8.739 -1.5548 -0.1301  0.4457
  177SLPC  H16X20242   4.831   6.155   8.690 -0.7909  0.5251 -0.1066
  177SLPC  H16Y20243   4.877   5.995   8.724 -1.2427 -0.2509  0.5095
  177SLPC  C31720244   5.053   6.134   8.678 -0.1524 -0.3219  0.4099
  177SLPC  H17X20245   5.123   6.068   8.733  0.7172 -0.5986 -0.9962
  177SLPC  H17Y20246   5.082   6.239   8.697  3.2827 -0.8628 -1.0357
  177SLPC  C31820247   5.058   6.105   8.526 -0.2409 -0.2071 -0.1493
  177SLPC  H18X20248   5.163   6.102   8.488 -0.0615 -0.1667  0.3395
  177SLPC  H18Y20249   5.003   6.185   8.472  0.2492 -1.6130 -2.9536
  177SLPC  H18Z20250   5.007   6.008   8.506  3.0852 -2.1147 -0.1256
  178SLPC     N20251   0.584   1.513  11.219  0.2212 -0.3448 -0.3487
  178SLPC   C1320252   0.723   1.457  11.193  0.4882 -0.3429  0.3248
  178SLPC  H13A20253   0.792   1.539  11.181  1.5957 -1.2718  0.1465
  178SLPC  H13B20254   0.766   1.397  11.271  3.2345 -0.6850 -1.3284
  178SLPC  H13C20255   0.716   1.396  11.103  2.0364 -2.3712  1.5009
  178SLPC   C1420256   0.594   1.585  11.350  0.1804  0.1908  0.8137
  178SLPC  H14A20257   0.621   1.519  11.430  3.0072  0.2246  0.0020
  178SLPC  H14B20258   0.677   1.655  11.350 -0.5667  1.0953  0.9832
  178SLPC  H14C20259   0.512   1.650  11.378 -1.5988 -1.7151  0.2149
  178SLPC   C1520260   0.488   1.397  11.230 -0.0505  0.8242  0.4682
  178SLPC  H15A20261   0.515   1.326  11.306 -0.5843  2.4299  2.2221
  178SLPC  H15B20262   0.389   1.428  11.258 -0.1449  1.7626 -0.8072
  178SLPC  H15C20263   0.479   1.341  11.138 -0.8546  0.0252  1.0236
  178SLPC   C1220264   0.540   1.608  11.110  0.7687  0.2842  0.1861
  178SLPC  H12A20265   0.437   1.634  11.131 -0.0863 -1.6671 -1.1990
  178SLPC  H12B20266   0.534   1.542  11.024  0.6425 -1.5870  1.5684
  178SLPC   C1120267   0.617   1.734  11.083 -0.4074 -0.0012  0.5799
  178SLPC  H11A20268   0.631   1.784  11.181 -1.6658  0.0616  0.7483
  178SLPC  H11B20269   0.563   1.798  11.009  4.4891  2.6328 -1.1807
  178SLPC     P20270   0.760   1.677  10.870 -0.0962 -0.0703 -0.2156
  178SLPC   O1320271   0.745   1.807  10.811 -0.0623 -0.2513  0.3284
  178SLPC   O1420272   0.894   1.611  10.845  0.0832 -0.8121  0.6191
  178SLPC   O1220273   0.743   1.707  11.023  0.7791 -0.0283  0.2942
  178SLPC   O1120274   0.647   1.574  10.826  0.3517  0.1501 -0.1042
  178SLPC    C120275   0.535   1.615  10.741 -0.2707  0.2501  0.2863
  178SLPC    HA20276   0.439   1.562  10.761 -2.2089  2.4904 -2.4158
  178SLPC    HB20277   0.502   1.717  10.770 -0.9394 -0.0992  0.8105
  178SLPC    C220278   0.562   1.616  10.591 -0.1836 -0.2810  0.4380
  178SLPC    HS20279   0.663   1.660  10.581  0.1845 -0.8067  1.6417
  178SLPC   O2120280   0.447   1.674  10.521  0.0294  0.0870 -0.1353
  178SLPC   C2120281   0.482   1.762  10.430 -0.5292 -0.4561 -0.0317
  178SLPC   O2220282   0.596   1.779  10.389 -0.0406  0.8432 -0.0077
  178SLPC   C2220283   0.360   1.838  10.374  0.4101 -0.0178 -0.1878
  178SLPC   H2R20284   0.283   1.835  10.455 -0.7142  1.9458 -1.1134
  178SLPC   H2S20285   0.391   1.939  10.342 -0.8027  1.3553  2.5835
  178SLPC    C320286   0.576   1.470  10.533  0.0220 -0.5187 -0.2264
  178SLPC    HX20287   0.474   1.428  10.541 -0.3943  0.3523 -0.7543
  178SLPC    HY20288   0.645   1.418  10.603 -0.2163 -1.8840 -0.9873
  178SLPC   O3120289   0.633   1.476  10.398 -0.3535  0.8432 -0.1360
  178SLPC   C3120290   0.548   1.454  10.304 -0.9464 -0.2904 -0.3157
  178SLPC   O3220291   0.424   1.452  10.311 -0.2306 -0.0887 -0.6434
  178SLPC   C3220292   0.626   1.421  10.170  0.6299  0.1977 -0.6473
  178SLPC   H2X20293   0.671   1.516  10.134 -1.2140  2.1142  1.7475
  178SLPC   H2Y20294   0.542   1.392  10.103  0.4009  0.9455 -0.7005
  178SLPC   C2320295   0.287   1.766  10.254  1.0539 -0.9368 -0.0993
  178SLPC   H3R20296   0.203   1.836  10.233  1.3337 -0.7709 -0.6685
  178SLPC   H3S20297   0.239   1.672  10.289 -1.6529  0.7273  0.9870
  178SLPC   C2420298   0.381   1.767  10.136  0.1404 -0.5734 -0.4695
  178SLPC   H4R20299   0.469   1.703  10.155 -0.7142 -1.4001  0.8709
  178SLPC   H4S20300   0.407   1.873  10.118 -1.8318 -0.3669 -2.6308
  178SLPC   C2520301   0.306   1.737  10.007  0.3714  0.2892 -0.4460
  178SLPC   H5R20302   0.215   1.800  10.018 -0.5286 -1.0378 -0.0195
  178SLPC   H5S20303   0.260   1.635  10.004  2.7353 -0.8722  0.5231
  178SLPC   C2620304   0.378   1.749   9.873 -0.2451 -0.5938 -0.7408
  178SLPC   H6R20305   0.404   1.857   9.871 -1.4449 -0.2739  0.1797
  178SLPC   H6S20306   0.319   1.725   9.783 -1.9255  0.5409  0.0199
  178SLPC   C2720307   0.514   1.673   9.864 -0.2597  0.1096 -0.3758
  178SLPC   H7R20308   0.508   1.566   9.893 -1.0200 -0.1018 -1.2339
  178SLPC   H7S20309   0.597   1.714   9.925 -0.4617  0.1522 -0.1248
  178SLPC   C2820310   0.557   1.657   9.719 -0.1205  0.4634 -0.1657
  178SLPC   H8R20311   0.555   1.760   9.678 -1.6915  0.5259 -0.0062
  178SLPC   H8S20312   0.468   1.600   9.684 -1.5805  1.7886  1.2091
  178SLPC   C2920313   0.686   1.594   9.686 -0.8756  0.4008 -0.7753
  178SLPC   H9R20314   0.737   1.553   9.775  0.1866 -0.9683 -1.9735
  178SLPC  C21020315   0.746   1.580   9.564  0.8749  0.2882 -0.1000
  178SLPC  H10R20316   0.831   1.511   9.560 -0.0050 -0.8130 -0.4010
  178SLPC  C21120317   0.686   1.622   9.432  0.1621  0.0330 -0.3090
  178SLPC  H11R20318   0.578   1.637   9.451 -0.4994 -5.2220  1.8666
  178SLPC  H11S20319   0.673   1.537   9.362  0.0063  0.0303 -0.2775
  178SLPC  C21220320   0.739   1.747   9.363  0.0355 -0.6278 -0.0640
  178SLPC  H12R20321   0.680   1.840   9.365  2.6721  1.2205 -1.5117
  178SLPC  C21320322   0.841   1.753   9.272 -0.2973 -0.3268 -0.3542
  178SLPC  H13R20323   0.872   1.851   9.234  0.2426 -1.0090 -1.7148
  178SLPC  C21420324   0.922   1.637   9.233 -0.4308 -0.2520 -0.2321
  178SLPC  H14R20325   0.911   1.561   9.313 -1.2489  0.5438  0.4254
  178SLPC  H14S20326   1.032   1.654   9.231 -0.1851 -1.7261 -1.1516
  178SLPC  C21520327   0.869   1.568   9.103 -0.5498 -0.2712  0.5372
  178SLPC  H15R20328   0.875   1.638   9.017 -1.6809 -1.7478 -0.8048
  178SLPC  H15S20329   0.765   1.540   9.129 -0.9384  0.0134 -0.6275
  178SLPC  C21620330   0.953   1.449   9.063 -0.2532  0.7525 -0.4113
  178SLPC  H16R20331   0.913   1.411   8.966 -0.0541 -2.5117  0.6699
  178SLPC  H16S20332   0.937   1.373   9.142 -2.0344  3.3317  1.8726
  178SLPC  C21720333   1.103   1.463   9.058 -0.3267 -0.1585  0.1383
  178SLPC  H17R20334   1.141   1.366   9.020  1.0199  0.2759  0.3025
  178SLPC  H17S20335   1.153   1.475   9.156  0.9956  1.0370 -0.6223
  178SLPC  C21820336   1.167   1.567   8.967  0.5220  0.0641  0.2859
  178SLPC  H18R20337   1.149   1.523   8.867 -1.8490 -1.4054  1.2618
  178SLPC  H18S20338   1.277   1.580   8.979  0.3365  1.7012  0.4508
  178SLPC  H18T20339   1.134   1.673   8.967  1.6269  0.4398  1.3292
  178SLPC   C3320340   0.741   1.318  10.181  0.1154  0.5561 -0.6005
  178SLPC   H3X20341   0.701   1.226  10.228  0.9092  0.5697  0.1073
  178SLPC   H3Y20342   0.820   1.354  10.250 -1.3330  2.4602  0.1613
  178SLPC   C3420343   0.811   1.291  10.044  0.3604 -0.1543 -0.5653
  178SLPC   H4X20344   0.916   1.258  10.060  0.3395 -0.6697 -1.4360
  178SLPC   H4Y20345   0.830   1.393  10.006 -0.4272  1.1508  2.2492
  178SLPC   C3520346   0.729   1.190   9.954 -0.0459  0.4391  0.4045
  178SLPC   H5X20347   0.619   1.192   9.965 -0.1110 -0.3844  0.0037
  178SLPC   H5Y20348   0.759   1.084   9.971  0.8999  0.8072  1.1423
  178SLPC   C3620349   0.760   1.207   9.797 -0.4770  0.2441 -0.6144
  178SLPC   H6X20350   0.866   1.239   9.792 -1.0846  2.3740 -0.8575
  178SLPC   H6Y20351   0.698   1.294   9.767  0.4799  1.1490 -0.0276
  178SLPC   C3720352   0.728   1.073   9.715 -0.3382  0.4259 -0.2787
  178SLPC   H7X20353   0.637   1.029   9.760  0.8180  0.0698  1.8497
  178SLPC   H7Y20354   0.811   1.004   9.743 -1.2324  0.0524  1.6247
  178SLPC   C3820355   0.728   1.101   9.568 -0.1919  0.4043  0.8135
  178SLPC   H8X20356   0.646   1.173   9.547 -0.3601  0.2793  1.0250
  178SLPC   H8Y20357   0.711   1.003   9.519 -0.3574  0.2509  1.1701
  178SLPC   C3920358   0.854   1.161   9.515  0.4739 -0.6516 -0.3615
  178SLPC   H9X20359   0.937   1.095   9.547  1.1936  1.1868  1.7438
  178SLPC   H9Y20360   0.869   1.262   9.559  1.6858 -1.0419  0.1602
  178SLPC  C31020361   0.862   1.180   9.366  0.5222  0.0656  0.6157
  178SLPC  H10X20362   0.947   1.248   9.343 -0.4801  1.2209  0.1797
  178SLPC  H10Y20363   0.768   1.230   9.332  0.4417 -0.1079  0.5855
  178SLPC  C31120364   0.865   1.052   9.293  0.3162  0.5599 -0.2502
  178SLPC  H11X20365   0.774   0.989   9.303  1.2387 -0.6334  0.9878
  178SLPC  H11Y20366   0.950   1.006   9.347  0.9424 -1.0817 -2.4971
  178SLPC  C31220367   0.902   1.059   9.141  0.0969 -0.2793 -0.3142
  178SLPC  H12X20368   0.987   1.123   9.111 -0.9995  1.4130  0.0816
  178SLPC  H12Y20369   0.810   1.103   9.096  0.2118  0.3564  0.0648
  178SLPC  C31320370   0.939   0.923   9.072  0.3305 -0.0496  0.4676
  178SLPC  H13X20371   0.871   0.841   9.104  0.3910 -0.5160 -0.5645
  178SLPC  H13Y20372   1.038   0.885   9.103  0.5087 -1.7613 -1.8735
  178SLPC  C31420373   0.918   0.921   8.916 -0.3457  0.2138 -0.5762
  178SLPC  H14X20374   0.812   0.924   8.882 -0.4450 -0.8164 -0.3805
  178SLPC  H14Y20375   0.948   0.821   8.880  2.3428  0.7321  0.0599
  178SLPC  C31520376   1.007   1.020   8.838  0.4081 -0.4958 -1.0591
  178SLPC  H15X20377   0.948   1.114   8.842  0.2006 -0.5612 -2.2675
  178SLPC  H15Y20378   1.105   1.031   8.890  1.2388 -3.8316 -1.6884
  178SLPC  C31620379   1.016   0.989   8.686 -0.3098  0.1650  0.5781
  178SLPC  H16X20380   0.911   0.964   8.660  0.1056 -0.3248 -0.7008
  178SLPC  H16Y20381   1.085   0.903   8.672 -1.1355 -0.2759 -0.9414
  178SLPC  C31720382   1.049   1.108   8.589  0.4218  0.4148  0.3982
  178SLPC  H17X20383   1.041   1.061   8.489  0.5126 -0.5732  0.8461
  178SLPC  H17Y20384   1.160   1.113   8.601  0.4982 -0.6446  0.2764
  178SLPC  C31820385   0.978   1.245   8.598  0.0706 -0.0431 -0.0427
  178SLPC  H18X20386   1.021   1.295   8.687 -0.1214 -1.0045  0.6058
  178SLPC  H18Y20387   0.869   1.225   8.600  0.3457 -1.6372  0.2965
  178SLPC  H18Z20388   0.992   1.306   8.506  0.1503 -1.1973 -0.8284
  179SLPC     N20389   2.958   5.672  10.709 -0.8864  0.3173 -0.2597
  179SLPC   C1320390   2.889   5.543  10.740 -0.3541  0.0354 -0.2196
  179SLPC  H13A20391   2.788   5.542  10.701  0.0317 -1.0819 -1.2752
  179SLPC  H13B20392   2.958   5.470  10.700 -0.0236 -0.0111  0.4312
  179SLPC  H13C20393   2.883   5.531  10.847  0.0122 -0.2855 -0.2348
  179SLPC   C1420394   3.106   5.660  10.732 -0.1346 -0.8044  0.0721
  179SLPC  H14A20395   3.156   5.755  10.716 -0.8874 -0.3005  0.6435
  179SLPC  H14B20396   3.123   5.638  10.836  2.4767  0.4427 -0.0091
  179SLPC  H14C20397   3.149   5.585  10.668  1.4213 -0.2892  0.4709
  179SLPC   C1520398   2.911   5.779  10.801  0.3879 -0.0325 -0.1900
  179SLPC  H15A20399   2.918   5.751  10.905  0.0667  0.8792  0.0864
  179SLPC  H15B20400   2.970   5.865  10.773  0.2815 -1.0648 -4.1981
  179SLPC  H15C20401   2.807   5.804  10.786  0.0639  1.0681  3.0731
  179SLPC   C1220402   2.931   5.710  10.561 -0.2021 -0.9301  0.0159
  179SLPC  H12A20403   2.963   5.628  10.498  3.1285  1.7293 -2.1062
  179SLPC  H12B20404   2.999   5.791  10.540  0.8481 -1.4175  1.3881
  179SLPC   C1120405   2.785   5.758  10.524  0.6332  0.8489 -0.2434
  179SLPC  H11A20406   2.795   5.816  10.430 -1.4454  0.8008 -0.5389
  179SLPC  H11B20407   2.750   5.829  10.601 -1.1423  0.8976 -1.0542
  179SLPC     P20408   2.695   5.553  10.387  0.1254 -0.3872  0.1626
  179SLPC   O1320409   2.832   5.524  10.341 -0.2878  0.0340 -0.2262
  179SLPC   O1420410   2.605   5.441  10.410 -0.0301  0.1271  0.0239
  179SLPC   O1220411   2.702   5.645  10.514  0.0718 -0.0568 -0.0878
  179SLPC   O1120412   2.638   5.660  10.281 -0.2578 -0.1288  0.5056
  179SLPC    C120413   2.514   5.720  10.330 -0.2942 -0.3057  0.1508
  179SLPC    HA20414   2.437   5.640  10.334 -2.3111  1.5744  2.0587
  179SLPC    HB20415   2.520   5.768  10.430 -0.3578  0.2150 -0.0896
  179SLPC    C220416   2.462   5.831  10.226 -0.1151  0.8992 -0.1127
  179SLPC    HS20417   2.353   5.840  10.247 -0.2514 -0.5043 -0.1586
  179SLPC   O2120418   2.492   5.789  10.094 -0.1066  0.6705  0.1463
  179SLPC   C2120419   2.422   5.687  10.044  0.3504 -0.4263  0.0888
  179SLPC   O2220420   2.327   5.639  10.104 -0.9921  0.1479  0.5411
  179SLPC   C2220421   2.470   5.648   9.905 -0.2138  0.7441 -0.5205
  179SLPC   H2R20422   2.578   5.672   9.899 -0.3835  1.4249 -0.9519
  179SLPC   H2S20423   2.457   5.538   9.891 -0.0964  0.5963  0.5028
  179SLPC    C320424   2.519   5.975  10.247 -0.1061 -0.3509  0.3043
  179SLPC    HX20425   2.619   5.980  10.199  0.6347 -1.3914  1.6909
  179SLPC    HY20426   2.546   5.987  10.354  2.0525  0.1919 -0.2493
  179SLPC   O3120427   2.418   6.075  10.218  0.5760 -0.3973 -0.0966
  179SLPC   C3120428   2.470   6.190  10.194  0.0417  0.2170 -0.1030
  179SLPC   O3220429   2.587   6.227  10.218  0.3645  0.4433  0.7716
  179SLPC   C3220430   2.363   6.288  10.160  1.0132  0.1484  0.2043
  179SLPC   H2X20431   2.376   6.372  10.232 -0.5211  0.7428 -0.1752
  179SLPC   H2Y20432   2.258   6.258  10.180  0.8222  1.5108  1.4249
  179SLPC   C2320433   2.402   5.733   9.788 -0.8327  0.0262 -0.2325
  179SLPC   H3R20434   2.429   5.840   9.806 -0.4359 -0.1916  0.5146
  179SLPC   H3S20435   2.291   5.730   9.792 -0.8985 -0.1281 -1.7003
  179SLPC   C2420436   2.442   5.693   9.642 -0.2953 -0.3049  0.5780
  179SLPC   H4R20437   2.371   5.613   9.614  0.2605 -0.5811 -0.0416
  179SLPC   H4S20438   2.545   5.653   9.655  0.4388  1.3904  0.3345
  179SLPC   C2520439   2.445   5.815   9.548 -0.5579 -0.5922  0.6080
  179SLPC   H5R20440   2.501   5.899   9.594 -1.6706  0.7235 -0.3800
  179SLPC   H5S20441   2.342   5.853   9.536  0.1717  0.7971 -1.7117
  179SLPC   C2620442   2.492   5.793   9.406  0.9927  0.4023  0.4116
  179SLPC   H6R20443   2.601   5.775   9.395  0.9718  0.5696 -0.1387
  179SLPC   H6S20444   2.471   5.892   9.359  1.8652 -0.8044 -2.7810
  179SLPC   C2720445   2.415   5.689   9.323 -0.5677  0.3388  0.8300
  179SLPC   H7R20446   2.306   5.700   9.341 -0.7199 -0.6943  0.6235
  179SLPC   H7S20447   2.430   5.593   9.378 -0.9978  0.4311  1.1131
  179SLPC   C2820448   2.452   5.671   9.178 -0.4986  0.1373  0.0878
  179SLPC   H8R20449   2.427   5.565   9.157  3.3673 -0.8361 -0.3368
  179SLPC   H8S20450   2.563   5.674   9.176 -0.3699 -1.8122 -3.3081
  179SLPC   C2920451   2.401   5.777   9.072 -0.3622  0.6521 -0.2152
  179SLPC   H9R20452   2.340   5.857   9.117  0.2278  0.8654  0.2203
  179SLPC  C21020453   2.446   5.783   8.945  0.1540 -0.0196  0.1153
  179SLPC  H10R20454   2.436   5.879   8.892  0.6201 -0.5063 -0.8850
  179SLPC  C21120455   2.544   5.686   8.883  0.2229 -0.3225  0.0302
  179SLPC  H11R20456   2.568   5.607   8.957  0.5541  1.3927  1.8168
  179SLPC  H11S20457   2.639   5.742   8.873  0.3374 -0.5699 -0.2742
  179SLPC  C21220458   2.494   5.637   8.753  0.1535 -0.4169  0.6605
  179SLPC  H12R20459   2.411   5.564   8.752  2.1570 -2.8199 -0.6319
  179SLPC  C21320460   2.549   5.673   8.635 -0.1177 -0.2398 -0.1269
  179SLPC  H13R20461   2.511   5.634   8.540 -0.1117  0.7402 -0.5492
  179SLPC  C21420462   2.660   5.778   8.623 -0.5231  0.0188  0.0971
  179SLPC  H14R20463   2.758   5.740   8.660  0.9110  1.1234 -2.2754
  179SLPC  H14S20464   2.632   5.873   8.672  0.5854 -0.2908  1.4011
  179SLPC  C21520465   2.689   5.799   8.473  0.1824  0.2056 -0.0291
  179SLPC  H15R20466   2.610   5.860   8.424  1.4112  0.9695 -1.1312
  179SLPC  H15S20467   2.698   5.700   8.423 -0.4402  0.1913 -0.1251
  179SLPC  C21620468   2.819   5.861   8.448 -0.0088  0.9380  0.3554
  179SLPC  H16R20469   2.900   5.786   8.461 -0.6926 -0.4126 -2.3652
  179SLPC  H16S20470   2.828   5.959   8.500 -1.5304  1.1742  0.2132
  179SLPC  C21720471   2.836   5.875   8.292 -0.5089 -0.3257  0.3191
  179SLPC  H17R20472   2.755   5.942   8.257 -1.5298 -1.2897  0.8087
  179SLPC  H17S20473   2.814   5.774   8.252  0.4656 -0.1858 -0.6404
  179SLPC  C21820474   2.980   5.921   8.250 -1.1159 -0.1951  0.3565
  179SLPC  H18R20475   3.011   6.024   8.275  0.3377 -0.0855 -1.6749
  179SLPC  H18S20476   2.979   5.916   8.139 -1.7831  0.4331  0.3227
  179SLPC  H18T20477   3.056   5.848   8.285 -0.1352  0.7039  0.1161
  179SLPC   C3320478   2.390   6.347  10.015  0.1715  0.7213 -0.0361
  179SLPC   H3X20479   2.495   6.380  10.005  0.2711  0.1841 -0.9124
  179SLPC   H3Y20480   2.321   6.430   9.988 -0.9086 -0.2984 -0.5140
  179SLPC   C3420481   2.359   6.232   9.913 -0.6495 -0.2299 -0.4299
  179SLPC   H4X20482   2.267   6.186   9.955 -0.3131  0.3127  0.9665
  179SLPC   H4Y20483   2.443   6.160   9.902  0.4857  0.6017  2.0533
  179SLPC   C3520484   2.333   6.286   9.770 -0.1419 -0.1312 -0.3125
  179SLPC   H5X20485   2.430   6.324   9.733 -0.1351  0.7302  0.5547
  179SLPC   H5Y20486   2.255   6.365   9.777 -0.3040 -0.2991 -0.1895
  179SLPC   C3620487   2.274   6.179   9.684 -0.4409 -0.4581 -0.0648
  179SLPC   H6X20488   2.170   6.168   9.721  0.1108  0.0733  1.7597
  179SLPC   H6Y20489   2.320   6.078   9.690  2.9439  0.9412 -0.5961
  179SLPC   C3720490   2.268   6.235   9.538 -0.0694  0.1464 -0.3855
  179SLPC   H7X20491   2.368   6.275   9.514  0.1473 -0.2743 -0.2057
  179SLPC   H7Y20492   2.197   6.320   9.529 -1.1410 -0.4963  1.3342
  179SLPC   C3820493   2.216   6.128   9.441  0.2431  0.3951  0.1050
  179SLPC   H8X20494   2.113   6.095   9.466 -1.2632  3.2280 -1.8435
  179SLPC   H8Y20495   2.274   6.033   9.453  1.1373  0.8730 -0.3522
  179SLPC   C3920496   2.211   6.159   9.291 -0.6352 -0.7135  0.6630
  179SLPC   H9X20497   2.158   6.251   9.259  0.6818 -1.1641 -3.2796
  179SLPC   H9Y20498   2.159   6.081   9.232  2.2882  0.6502 -4.2988
  179SLPC  C31020499   2.357   6.166   9.223 -0.1382 -0.0023 -0.6626
  179SLPC  H10X20500   2.414   6.076   9.254  2.5715  1.1487 -1.9159
  179SLPC  H10Y20501   2.421   6.248   9.261 -0.0215  0.2217 -1.3158
  179SLPC  C31120502   2.337   6.171   9.068  0.7885 -0.3434 -0.4941
  179SLPC  H11X20503   2.271   6.258   9.046 -0.5225 -0.2121  3.1943
  179SLPC  H11Y20504   2.280   6.078   9.049  0.1467  0.2400 -1.4994
  179SLPC  C31220505   2.470   6.169   8.984 -0.0330 -0.0721  0.6849
  179SLPC  H12X20506   2.515   6.070   9.008 -0.4941  0.1826  2.8187
  179SLPC  H12Y20507   2.532   6.247   9.034  1.8000 -1.3840  0.5872
  179SLPC  C31320508   2.451   6.196   8.837 -0.4741 -0.6920 -0.1476
  179SLPC  H13X20509   2.410   6.298   8.825  2.2068  0.5609  0.6497
  179SLPC  H13Y20510   2.376   6.122   8.802  0.2575 -1.3484 -0.3601
  179SLPC  C31420511   2.578   6.180   8.759 -0.8175 -0.0639  0.1982
  179SLPC  H14X20512   2.611   6.074   8.759  3.1208  0.9988  1.9568
  179SLPC  H14Y20513   2.660   6.236   8.806 -1.4165  2.6068 -1.7052
  179SLPC  C31520514   2.556   6.228   8.617  0.0426 -0.0979  0.4620
  179SLPC  H15X20515   2.647   6.237   8.554 -1.0578  3.4802 -0.8493
  179SLPC  H15Y20516   2.520   6.333   8.618 -1.7142 -0.6780  0.5200
  179SLPC  C31620517   2.464   6.138   8.536 -0.0565 -0.2112 -0.2575
  179SLPC  H16X20518   2.383   6.087   8.592 -0.5937 -0.8290 -1.5630
  179SLPC  H16Y20519   2.520   6.051   8.496 -1.6613 -0.7738 -1.3774
  179SLPC  C31720520   2.398   6.210   8.417 -0.2730 -0.6653  0.1440
  179SLPC  H17X20521   2.483   6.258   8.364  0.3915 -0.2676  1.5309
  179SLPC  H17Y20522   2.332   6.290   8.455 -0.0796 -0.2648 -0.3567
  179SLPC  C31820523   2.303   6.137   8.324 -0.4052  0.1832  0.1017
  179SLPC  H18X20524   2.350   6.046   8.283  0.3544  0.2559  0.8007
  179SLPC  H18Y20525   2.266   6.198   8.238 -0.4910 -1.1003 -0.7928
  179SLPC  H18Z20526   2.217   6.100   8.384  0.4472 -1.1064  0.5504
  180SLPC     N20527   3.150   3.773  10.926  0.0127 -0.3104  0.1935
  180SLPC   C1320528   3.029   3.843  10.970  1.0818  0.1959  0.1236
  180SLPC  H13A20529   2.954   3.770  10.997  1.6999 -1.5978 -2.5642
  180SLPC  H13B20530   3.061   3.896  11.059 -0.8335 -0.5595  1.3326
  180SLPC  H13C20531   2.982   3.906  10.896 -1.2286 -0.9283  0.5390
  180SLPC   C1420532   3.201   3.695  11.038 -0.1176  0.4521  0.2056
  180SLPC  H14A20533   3.295   3.650  11.010 -0.8721 -0.4489 -0.9432
  180SLPC  H14B20534   3.221   3.753  11.127 -0.2130  0.9497 -0.0953
  180SLPC  H14C20535   3.132   3.618  11.069 -0.7183  0.4879 -1.0007
  180SLPC   C1520536   3.249   3.866  10.873  0.2889 -0.4288 -0.0579
  180SLPC  H15A20537   3.218   3.936  10.796  0.3345  2.2521  2.1887
  180SLPC  H15B20538   3.277   3.938  10.949  0.7523  0.4894 -1.0652
  180SLPC  H15C20539   3.338   3.818  10.835 -0.3996 -0.6868 -1.3953
  180SLPC   C1220540   3.113   3.685  10.805  0.4752 -0.0904  0.3773
  180SLPC  H12A20541   3.039   3.614  10.840 -0.3593  0.3344 -0.4833
  180SLPC  H12B20542   3.205   3.633  10.781  0.6057  0.3065  0.0011
  180SLPC   C1120543   3.050   3.756  10.684  0.2814 -0.2414  0.8126
  180SLPC  H11A20544   3.042   3.673  10.611  2.8479 -0.4294  0.6624
  180SLPC  H11B20545   3.119   3.835  10.647 -0.3904 -0.6533 -1.4524
  180SLPC     P20546   2.833   3.864  10.585 -0.3752  0.2689 -0.0119
  180SLPC   O1320547   2.723   3.929  10.658 -0.0947 -0.6215 -0.0690
  180SLPC   O1420548   2.920   3.946  10.498  0.3958  0.1421 -0.2448
  180SLPC   O1220549   2.915   3.800  10.705 -0.8621 -0.3440 -0.4154
  180SLPC   O1120550   2.775   3.740  10.500 -0.2239  0.0089 -0.3931
  180SLPC    C120551   2.836   3.673  10.388 -0.6072 -0.4667 -0.0335
  180SLPC    HA20552   2.946   3.682  10.400 -0.4686 -0.2886 -1.3595
  180SLPC    HB20553   2.813   3.564  10.394 -0.0227 -0.6078 -0.3257
  180SLPC    C220554   2.797   3.735  10.244  0.6232 -0.7586 -0.2581
  180SLPC    HS20555   2.886   3.796  10.216  0.3006 -0.7963 -1.4094
  180SLPC   O2120556   2.675   3.804  10.262  0.2533  0.4005 -0.1987
  180SLPC   C2120557   2.673   3.914  10.194 -0.2327  0.0806 -0.0974
  180SLPC   O2220558   2.767   3.967  10.134  0.7238 -0.3095 -0.0158
  180SLPC   C2220559   2.536   3.984  10.207  0.2918 -0.0071  0.1816
  180SLPC   H2R20560   2.472   3.905  10.162  1.3523 -0.4602 -0.5925
  180SLPC   H2S20561   2.515   3.986  10.316 -0.3991  0.1640  0.0469
  180SLPC    C320562   2.787   3.631  10.129  0.0602 -0.3609 -0.6390
  180SLPC    HX20563   2.691   3.577  10.141  0.7823 -1.4742  0.3960
  180SLPC    HY20564   2.868   3.561  10.159 -0.2918 -0.1545  0.8968
  180SLPC   O3120565   2.793   3.693  10.000  0.3892 -0.0833  0.7877
  180SLPC   C3120566   2.914   3.713   9.950  0.0385 -0.2741  0.0394
  180SLPC   O3220567   3.019   3.691  10.011  0.7942 -0.1319 -0.3244
  180SLPC   C3220568   2.915   3.783   9.817 -0.5770  0.7143  0.5771
  180SLPC   H2X20569   2.899   3.893   9.827  1.7828  1.1537  0.0242
  180SLPC   H2Y20570   2.832   3.741   9.755 -2.1778  1.4506  2.1279
  180SLPC   C2320571   2.539   4.129  10.136  0.2777 -0.0544 -0.3594
  180SLPC   H3R20572   2.582   4.116  10.034  0.9287 -0.5104 -0.0392
  180SLPC   H3S20573   2.613   4.196  10.185 -0.0892  0.1546 -0.0866
  180SLPC   C2420574   2.412   4.216  10.124  0.2949  0.3509 -0.4259
  180SLPC   H4R20575   2.363   4.228  10.223 -1.4789 -2.9279 -0.7693
  180SLPC   H4S20576   2.344   4.155  10.061 -0.0199 -0.5611  0.7653
  180SLPC   C2520577   2.423   4.356  10.054  0.1976  0.1106 -0.2410
  180SLPC   H5R20578   2.511   4.413  10.093  0.8397 -0.1811 -1.2252
  180SLPC   H5S20579   2.335   4.418  10.080  0.4804  0.0876  0.8342
  180SLPC   C2620580   2.424   4.345   9.906  0.3197  0.3351 -0.2710
  180SLPC   H6R20581   2.332   4.299   9.864  0.4748 -0.9977  0.7823
  180SLPC   H6S20582   2.506   4.271   9.890  2.2465  2.0621  1.0517
  180SLPC   C2720583   2.448   4.478   9.836  0.2881 -0.0515 -0.3550
  180SLPC   H7R20584   2.529   4.541   9.880 -1.1390  2.3927 -1.0058
  180SLPC   H7S20585   2.355   4.539   9.836 -0.3077 -0.8553 -2.8467
  180SLPC   C2820586   2.495   4.458   9.689 -0.1380 -0.6487  0.3246
  180SLPC   H8R20587   2.590   4.401   9.699  1.7395  2.0282 -1.0777
  180SLPC   H8S20588   2.521   4.559   9.652  1.9754 -0.3395  2.4424
  180SLPC   C2920589   2.388   4.395   9.605 -0.7381 -0.1913  0.0291
  180SLPC   H9R20590   2.303   4.463   9.590  0.6421  1.3716 -1.0854
  180SLPC  C21020591   2.386   4.270   9.552  0.4779 -0.6872  0.0777
  180SLPC  H10R20592   2.295   4.235   9.502 -0.3591  0.5215  0.7238
  180SLPC  C21120593   2.499   4.171   9.568  0.0454  0.3619 -0.5381
  180SLPC  H11R20594   2.495   4.147   9.677  0.6883 -1.3393 -0.8595
  180SLPC  H11S20595   2.597   4.220   9.555  0.6012 -0.6141 -0.1612
  180SLPC  C21220596   2.478   4.052   9.480 -0.5027 -0.1852 -0.0103
  180SLPC  H12R20597   2.429   4.085   9.387  0.0876 -1.5591 -0.8510
  180SLPC  C21320598   2.506   3.917   9.512  0.3569  0.0574  0.2905
  180SLPC  H13R20599   2.460   3.841   9.447 -2.6711  1.7175  0.3601
  180SLPC  C21420600   2.557   3.862   9.642  0.0444 -0.6077 -0.0620
  180SLPC  H14R20601   2.613   3.940   9.698 -0.6498 -1.0847  1.3365
  180SLPC  H14S20602   2.625   3.776   9.625 -1.7739 -1.8281 -1.5906
  180SLPC  C21520603   2.439   3.800   9.721  0.1734 -0.0034  0.4581
  180SLPC  H15R20604   2.390   3.717   9.665  2.7030  0.0245 -2.0024
  180SLPC  H15S20605   2.364   3.879   9.743  0.0153  0.0549 -0.2487
  180SLPC  C21620606   2.487   3.746   9.859  0.1432 -0.8626  0.4523
  180SLPC  H16R20607   2.542   3.826   9.913 -0.0094  0.6630 -1.5286
  180SLPC  H16S20608   2.556   3.661   9.843 -2.2247 -2.3276 -3.7049
  180SLPC  C21720609   2.370   3.689   9.942  0.1846  0.0206 -0.2435
  180SLPC  H17R20610   2.309   3.613   9.888 -1.2368  0.4110  0.7721
  180SLPC  H17S20611   2.295   3.766   9.968 -2.8894 -2.1313 -2.0505
  180SLPC  C21820612   2.417   3.628  10.071  0.9545  0.1526 -0.4440
  180SLPC  H18R20613   2.325   3.591  10.121  0.2703  0.5399 -1.3869
  180SLPC  H18S20614   2.466   3.709  10.130 -2.4204  1.5598  0.6931
  180SLPC  H18T20615   2.486   3.542  10.061  0.0162 -0.6610 -0.0482
  180SLPC   C3320616   3.057   3.742   9.739  0.2486  0.2292  0.8766
  180SLPC   H3X20617   3.141   3.767   9.807  1.0567  2.9004 -0.9446
  180SLPC   H3Y20618   3.075   3.809   9.652 -0.3380  1.1058  1.4229
  180SLPC   C3420619   3.065   3.589   9.703  0.7711  0.5442 -0.2656
  180SLPC   H4X20620   3.070   3.533   9.799  0.0690 -1.1990 -1.2125
  180SLPC   H4Y20621   3.154   3.580   9.637  0.2318  0.1425 -0.9417
  180SLPC   C3520622   2.937   3.528   9.650 -0.5670 -0.0521 -0.1991
  180SLPC   H5X20623   2.853   3.558   9.716  0.0686  3.1912 -0.6780
  180SLPC   H5Y20624   2.946   3.419   9.630 -1.6734  0.1831 -2.2236
  180SLPC   C3620625   2.915   3.590   9.508 -0.4161  0.1266 -0.4504
  180SLPC   H6X20626   2.990   3.544   9.439 -0.3252 -3.6221  1.8330
  180SLPC   H6Y20627   2.929   3.700   9.502 -0.1065  0.2631  1.8136
  180SLPC   C3720628   2.775   3.547   9.445  0.1868 -0.2466 -0.2418
  180SLPC   H7X20629   2.696   3.557   9.522 -0.1644 -0.2379 -0.5972
  180SLPC   H7Y20630   2.774   3.450   9.390  0.0365  0.2716 -1.1686
  180SLPC   C3820631   2.737   3.657   9.344 -0.4539 -0.3613 -0.2457
  180SLPC   H8X20632   2.821   3.676   9.274 -2.0345  0.3224 -2.0734
  180SLPC   H8Y20633   2.731   3.754   9.398 -0.5667 -1.0906  1.0992
  180SLPC   C3920634   2.616   3.613   9.262  0.1323  0.2177 -0.2478
  180SLPC   H9X20635   2.533   3.572   9.324 -0.3197 -0.4934 -1.3022
  180SLPC   H9Y20636   2.639   3.534   9.187  0.4537  2.6560 -2.8725
  180SLPC  C31020637   2.558   3.731   9.181 -0.0432 -0.3219  0.0971
  180SLPC  H10X20638   2.528   3.802   9.261 -0.8978 -0.2565 -0.2680
  180SLPC  H10Y20639   2.469   3.695   9.125 -0.8856 -0.2811  1.3725
  180SLPC  C31120640   2.654   3.788   9.078 -0.3339 -0.3212  0.0621
  180SLPC  H11X20641   2.692   3.711   9.008  1.9510  2.4024 -1.9704
  180SLPC  H11Y20642   2.742   3.822   9.136 -0.2506 -0.6620  0.1338
  180SLPC  C31220643   2.598   3.919   9.009  0.8676 -0.5509 -0.5246
  180SLPC  H12X20644   2.539   3.982   9.078  1.0804 -0.0407 -0.8015
  180SLPC  H12Y20645   2.528   3.884   8.930 -0.0091  3.8037 -1.9299
  180SLPC  C31320646   2.713   3.990   8.944  0.4018  0.4556 -0.6569
  180SLPC  H13X20647   2.789   3.982   9.025  0.1653 -0.6139 -0.5262
  180SLPC  H13Y20648   2.686   4.098   8.942 -1.2219  0.1394  0.9948
  180SLPC  C31420649   2.770   3.938   8.813 -0.1982  0.5794  0.4040
  180SLPC  H14X20650   2.689   3.925   8.737 -0.3129  0.1069  0.6045
  180SLPC  H14Y20651   2.826   3.843   8.823  0.1128  0.6163 -0.7798
  180SLPC  C31520652   2.871   4.046   8.748 -0.2111 -0.0492  0.8363
  180SLPC  H15X20653   2.939   4.087   8.826  1.0705 -0.3258 -0.0922
  180SLPC  H15Y20654   2.815   4.128   8.700  0.8505  1.0450  1.4148
  180SLPC  C31620655   2.962   3.978   8.649  0.0341  1.1782 -0.0901
  180SLPC  H16X20656   2.966   4.037   8.555  1.4797  1.5763  0.2060
  180SLPC  H16Y20657   2.933   3.876   8.618  1.5929 -0.0858  2.3520
  180SLPC  C31720658   3.110   3.966   8.687  0.3666 -0.2728 -0.5517
  180SLPC  H17X20659   3.151   4.056   8.738  0.3886 -0.7604  0.3252
  180SLPC  H17Y20660   3.160   3.951   8.589 -2.0174 -0.2442 -1.8371
  180SLPC  C31820661   3.140   3.848   8.782 -0.0193  0.2269  0.6297
  180SLPC  H18X20662   3.174   3.762   8.721  1.0535  1.3358 -0.3950
  180SLPC  H18Y20663   3.053   3.827   8.848 -0.8905 -0.0150 -0.5631
  180SLPC  H18Z20664   3.228   3.867   8.848  0.2175 -0.8064  0.6239
  181SLPC     N20665   6.093   1.056  11.275  0.3920  0.4095  0.1280
  181SLPC   C1320666   6.143   1.193  11.297 -0.2533  0.1957  0.2177
  181SLPC  H13A20667   6.130   1.246  11.204 -1.6902 -3.6345 -2.0012
  181SLPC  H13B20668   6.077   1.245  11.366 -1.0902 -1.6359  0.8662
  181SLPC  H13C20669   6.247   1.206  11.319  0.2360 -0.7464 -1.3880
  181SLPC   C1420670   5.949   1.073  11.239 -0.0580 -0.3907  0.0198
  181SLPC  H14A20671   5.905   1.133  11.317  1.8459  1.8709 -0.5358
  181SLPC  H14B20672   5.951   1.138  11.152  1.8860  0.8344  0.9049
  181SLPC  H14C20673   5.909   0.974  11.221  0.2744 -0.6837  0.8307
  181SLPC   C1520674   6.095   0.987  11.410 -0.2537 -0.4796  0.0767
  181SLPC  H15A20675   6.032   1.020  11.491  1.3642 -1.3295  1.7830
  181SLPC  H15B20676   6.067   0.883  11.404  0.0761 -0.5212 -0.8735
  181SLPC  H15C20677   6.192   0.986  11.459 -0.3578 -0.4927  0.2868
  181SLPC   C1220678   6.176   0.981  11.171 -0.7277 -0.0372  0.1557
  181SLPC  H12A20679   6.152   0.876  11.169  1.4763 -0.6514 -2.7815
  181SLPC  H12B20680   6.279   0.994  11.202 -1.4668  0.5084  2.5561
  181SLPC   C1120681   6.169   1.027  11.023  1.0266  0.1075  0.7281
  181SLPC  H11A20682   6.248   0.979  10.961  0.4343  1.4918 -1.1699
  181SLPC  H11B20683   6.190   1.136  11.024 -0.3596  0.4904 -2.0094
  181SLPC     P20684   6.003   0.882  10.883  0.0712  0.1621  0.0026
  181SLPC   O1320685   6.071   0.765  10.939  0.2318  0.0598  0.8107
  181SLPC   O1420686   5.861   0.872  10.870  0.3158  0.1739  0.1690
  181SLPC   O1220687   6.038   1.016  10.966  0.3291  0.4739  0.3472
  181SLPC   O1120688   6.072   0.923  10.747 -0.1220  0.0661 -0.4223
  181SLPC    C120689   6.031   1.047  10.695 -0.0699 -0.6734 -0.4429
  181SLPC    HA20690   5.992   1.127  10.763  0.9418  0.8362 -1.5762
  181SLPC    HB20691   6.120   1.102  10.657 -0.0163 -0.4921 -0.0587
  181SLPC    C220692   5.954   1.040  10.561  0.2782 -0.1315  0.1948
  181SLPC    HS20693   5.866   0.975  10.583  0.6887 -0.1608  1.8928
  181SLPC   O2120694   6.042   0.982  10.463  0.2956  0.2019  0.4993
  181SLPC   C2120695   5.981   0.907  10.363  0.1837 -0.6081 -0.8127
  181SLPC   O2220696   5.863   0.895  10.347  1.0394  0.2283 -0.3324
  181SLPC   C2220697   6.085   0.846  10.273 -0.5697 -0.1570 -0.0508
  181SLPC   H2R20698   6.101   0.910  10.183 -0.8006 -0.3697 -0.2439
  181SLPC   H2S20699   6.184   0.843  10.324  0.1345  0.6479 -1.3139
  181SLPC    C320700   5.902   1.178  10.509 -0.2342 -0.3313 -0.1492
  181SLPC    HX20701   5.853   1.160  10.410 -0.2582  4.1058 -1.1539
  181SLPC    HY20702   5.996   1.235  10.492  0.1826 -1.0278 -0.2390
  181SLPC   O3120703   5.809   1.240  10.604 -0.3601 -0.6160 -0.2313
  181SLPC   C3120704   5.700   1.182  10.617  0.3161 -0.2529 -0.8313
  181SLPC   O3220705   5.658   1.091  10.546  0.6136 -0.5030  0.1412
  181SLPC   C3220706   5.614   1.251  10.731 -0.1950  0.0785  0.6020
  181SLPC   H2X20707   5.668   1.201  10.815  1.4045 -0.5161 -0.7253
  181SLPC   H2Y20708   5.516   1.205  10.707 -0.5221  0.8804  0.3757
  181SLPC   C2320709   6.047   0.709  10.220 -0.2758 -0.2067 -0.1522
  181SLPC   H3R20710   6.004   0.641  10.297 -2.9138 -1.8936 -2.8980
  181SLPC   H3S20711   6.141   0.658  10.188 -0.1659 -1.4361  1.9603
  181SLPC   C2420712   5.947   0.701  10.103 -0.1303 -0.0059 -0.8211
  181SLPC   H4R20713   5.864   0.771  10.128  2.3043  2.3998  1.2150
  181SLPC   H4S20714   5.913   0.595  10.096  1.2577 -0.4937 -0.4280
  181SLPC   C2520715   5.999   0.736   9.962  1.1020  0.5645 -0.3203
  181SLPC   H5R20716   6.092   0.680   9.940  1.4800  1.5100 -1.1807
  181SLPC   H5S20717   6.026   0.844   9.963 -0.6800  1.0546 -0.3195
  181SLPC   C2620718   5.895   0.720   9.851 -0.1373  0.5083  0.1095
  181SLPC   H6R20719   5.791   0.747   9.881 -1.2185 -0.4246 -2.4950
  181SLPC   H6S20720   5.895   0.614   9.818 -3.5016  0.1868  0.7596
  181SLPC   C2720721   5.928   0.807   9.725 -0.0310 -0.8592  0.3519
  181SLPC   H7R20722   5.933   0.914   9.757  0.4454 -0.2520 -1.5737
  181SLPC   H7S20723   5.850   0.796   9.646  1.4124  0.2588 -1.2947
  181SLPC   C2820724   6.065   0.767   9.662 -0.1597  0.1792 -0.4117
  181SLPC   H8R20725   6.046   0.668   9.615  0.0029 -1.0778  1.9947
  181SLPC   H8S20726   6.153   0.753   9.728 -0.5450  1.1589  0.3391
  181SLPC   C2920727   6.107   0.879   9.565  0.4728  0.2622  0.0140
  181SLPC   H9R20728   6.150   0.967   9.615  0.8493  0.3783 -0.5002
  181SLPC  C21020729   6.115   0.875   9.432  0.1626  0.3910  0.3782
  181SLPC  H10R20730   6.159   0.959   9.377  0.1613 -1.6979 -3.0702
  181SLPC  C21120731   6.078   0.764   9.338 -0.5335  0.1338  0.9818
  181SLPC  H11R20732   5.969   0.744   9.333 -0.3474 -0.6545 -0.0388
  181SLPC  H11S20733   6.127   0.669   9.367  2.9820  0.9815 -1.4381
  181SLPC  C21220734   6.136   0.778   9.197 -0.3719  0.5297  0.2288
  181SLPC  H12R20735   6.241   0.746   9.199 -1.1230 -2.2396  1.1700
  181SLPC  C21320736   6.071   0.824   9.081  0.5730  0.3586  0.7487
  181SLPC  H13R20737   6.125   0.830   8.985  0.0567  2.0220  0.5367
  181SLPC  C21420738   5.928   0.871   9.066 -0.8930  0.3035  0.0495
  181SLPC  H14R20739   5.873   0.838   9.157 -1.0490 -2.8202 -1.0736
  181SLPC  H14S20740   5.891   0.813   8.979 -0.1126  0.5154 -0.4369
  181SLPC  C21520741   5.902   1.024   9.035 -0.8049 -0.0636  0.5044
  181SLPC  H15R20742   5.920   1.100   9.115 -0.5982 -1.8888  2.2770
  181SLPC  H15S20743   5.795   1.030   9.006 -0.3597 -1.5868 -1.7463
  181SLPC  C21620744   5.982   1.080   8.909 -0.2394 -0.0412 -0.2897
  181SLPC  H16R20745   5.994   0.995   8.838  3.4465  1.2531 -1.4315
  181SLPC  H16S20746   6.086   1.090   8.947 -0.0817  0.6600 -0.8906
  181SLPC  C21720747   5.919   1.193   8.834  0.6729 -0.2009  0.3668
  181SLPC  H17R20748   5.940   1.288   8.888 -2.4975 -0.1366  1.7236
  181SLPC  H17S20749   5.809   1.175   8.829  0.7127 -0.4701  0.4647
  181SLPC  C21820750   5.972   1.213   8.694 -0.3139  0.4441  0.3265
  181SLPC  H18R20751   5.972   1.125   8.626  4.8923  0.7715 -0.4654
  181SLPC  H18S20752   6.072   1.258   8.676 -0.0353  0.1982  1.2378
  181SLPC  H18T20753   5.900   1.283   8.646 -1.4209 -1.2188 -0.5602
  181SLPC   C3320754   5.614   1.400  10.744 -0.2245  0.3832 -0.9455
  181SLPC   H3X20755   5.716   1.439  10.728  1.5841 -3.3544  0.2336
  181SLPC   H3Y20756   5.584   1.426  10.848  0.5715  0.7883 -0.8106
  181SLPC   C3420757   5.503   1.464  10.662 -0.9437  0.0140  0.2523
  181SLPC   H4X20758   5.499   1.573  10.684 -0.4418 -0.1810  1.3617
  181SLPC   H4Y20759   5.402   1.448  10.706 -0.7443  1.7057  1.4432
  181SLPC   C3520760   5.506   1.447  10.505  0.4264 -0.1301  0.6433
  181SLPC   H5X20761   5.433   1.524  10.475  0.6977  0.2295  0.9014
  181SLPC   H5Y20762   5.478   1.343  10.476 -0.8885  0.1180  0.9838
  181SLPC   C3620763   5.637   1.482  10.432  0.1252  0.0918  0.8405
  181SLPC   H6X20764   5.732   1.434  10.465  0.7065  1.3274  0.9983
  181SLPC   H6Y20765   5.651   1.590  10.451  1.6807 -0.1218  1.0840
  181SLPC   C3720766   5.638   1.473  10.278  1.1712 -0.3207 -0.6051
  181SLPC   H7X20767   5.550   1.520  10.227  0.2086 -0.1707  1.1046
  181SLPC   H7Y20768   5.633   1.363  10.263  3.1322 -0.8777  2.1567
  181SLPC   C3820769   5.768   1.534  10.208  0.1518  0.6863  0.4445
  181SLPC   H8X20770   5.856   1.482  10.251 -0.2402 -1.4160 -1.0819
  181SLPC   H8Y20771   5.795   1.640  10.227  1.3116  0.6059 -0.6090
  181SLPC   C3920772   5.764   1.510  10.058  0.2636  0.0091 -0.0813
  181SLPC   H9X20773   5.661   1.543  10.034  0.0344  2.6132  3.5106
  181SLPC   H9Y20774   5.763   1.401  10.037  0.4369  0.3235 -1.8312
  181SLPC  C31020775   5.868   1.590   9.975 -0.2179  0.5923 -0.5335
  181SLPC  H10X20776   5.971   1.554   9.997  0.3558  0.8935 -2.5237
  181SLPC  H10Y20777   5.871   1.697  10.004  1.5081  0.3630  0.2680
  181SLPC  C31120778   5.855   1.575   9.824 -0.1867  0.9192 -0.0967
  181SLPC  H11X20779   5.756   1.621   9.800 -1.3281 -0.7465  1.1292
  181SLPC  H11Y20780   5.865   1.467   9.800  0.0790  1.1692 -1.1233
  181SLPC  C31220781   5.959   1.653   9.741  0.4544  0.1356 -0.5317
  181SLPC  H12X20782   6.063   1.618   9.759  0.4342  0.2852 -0.1149
  181SLPC  H12Y20783   5.937   1.759   9.767 -2.9653 -0.5298 -0.3313
  181SLPC  C31320784   5.942   1.628   9.590  0.1368  0.1586 -0.6657
  181SLPC  H13X20785   5.834   1.640   9.568  0.2614  0.1095 -1.3049
  181SLPC  H13Y20786   5.964   1.521   9.566  0.3447  0.4907 -2.0197
  181SLPC  C31420787   6.035   1.713   9.509 -0.5413  0.1777  0.1400
  181SLPC  H14X20788   6.139   1.675   9.512 -1.0285 -1.7163 -2.7545
  181SLPC  H14Y20789   6.029   1.816   9.550 -0.4087  0.0687  0.4338
  181SLPC  C31520790   6.003   1.725   9.360 -0.1018 -0.4070  0.5506
  181SLPC  H15X20791   5.894   1.739   9.347 -0.1436 -0.2431  1.0634
  181SLPC  H15Y20792   6.024   1.631   9.304 -1.5799 -0.4104 -0.0366
  181SLPC  C31620793   6.098   1.831   9.298 -0.0499 -0.5129 -0.2900
  181SLPC  H16X20794   6.206   1.806   9.310  0.0808  0.2002  0.0476
  181SLPC  H16Y20795   6.087   1.923   9.359 -1.6433 -1.4270  0.8685
  181SLPC  C31720796   6.063   1.859   9.156 -0.1852  0.3583 -0.7261
  181SLPC  H17X20797   5.953   1.873   9.143 -0.1927  1.2475  0.1384
  181SLPC  H17Y20798   6.086   1.772   9.092 -1.2575  0.1180 -0.8123
  181SLPC  C31820799   6.142   1.979   9.096 -0.3469 -0.3498 -0.4096
  181SLPC  H18X20800   6.130   2.070   9.158 -0.2794 -1.1389  0.7888
  181SLPC  H18Y20801   6.137   1.984   8.985 -1.6258 -3.2802 -0.5482
  181SLPC  H18Z20802   6.248   1.951   9.113 -0.4828 -0.1960  0.7318
  182SLPC     N20803   4.351   0.945  10.946  0.4791 -0.2199  0.2281
  182SLPC   C1320804   4.429   0.849  11.038 -0.1182 -0.5000  0.4432
  182SLPC  H13A20805   4.414   0.861  11.145 -0.9466 -0.7340  0.3642
  182SLPC  H13B20806   4.383   0.753  11.021 -1.8073  0.2589  0.5103
  182SLPC  H13C20807   4.532   0.843  11.008 -0.7417  0.6209 -2.1631
  182SLPC   C1420808   4.389   1.088  10.978 -0.9067  0.7254  0.4730
  182SLPC  H14A20809   4.325   1.166  10.940 -0.3369  1.1962  0.4770
  182SLPC  H14B20810   4.403   1.096  11.085  1.7490 -3.1003  0.5984
  182SLPC  H14C20811   4.482   1.104  10.926 -0.5763  1.7473  1.3369
  182SLPC   C1520812   4.214   0.922  10.988 -0.3466 -1.0630  0.0054
  182SLPC  H15A20813   4.141   0.992  10.949 -0.4118 -1.3736 -0.4335
  182SLPC  H15B20814   4.179   0.827  10.951 -1.1743 -0.5526 -0.5525
  182SLPC  H15C20815   4.204   0.924  11.096 -1.4207  0.8046 -0.0895
  182SLPC   C1220816   4.377   0.925  10.801  0.5721 -0.1125  0.8546
  182SLPC  H12A20817   4.482   0.937  10.780  0.3677 -2.0642 -1.9753
  182SLPC  H12B20818   4.329   1.013  10.760  2.5914  1.3238  1.4227
  182SLPC   C1120819   4.323   0.798  10.732 -0.2288  0.1598  0.3577
  182SLPC  H11A20820   4.357   0.713  10.795 -0.0388 -0.3690 -0.4379
  182SLPC  H11B20821   4.378   0.790  10.637  1.8153  1.9351  1.3285
  182SLPC     P20822   4.085   0.889  10.660  0.0385  0.0634 -0.1443
  182SLPC   O1320823   3.975   0.811  10.593  0.1283 -0.5117  1.0421
  182SLPC   O1420824   4.047   0.983  10.764 -0.5053  0.3008 -0.4063
  182SLPC   O1220825   4.183   0.780  10.719 -0.0253 -0.1553  0.0048
  182SLPC   O1120826   4.174   0.963  10.557  0.4660 -0.3826  0.0412
  182SLPC    C120827   4.132   1.085  10.499 -0.3418  0.0772  0.3256
  182SLPC    HA20828   4.115   1.056  10.393  0.2944 -2.5250  0.8656
  182SLPC    HB20829   4.040   1.128  10.545 -0.7027 -1.8946  1.5369
  182SLPC    C220830   4.243   1.191  10.499  0.1186  0.1679 -0.3444
  182SLPC    HS20831   4.255   1.220  10.605 -0.6962  0.7425 -0.4091
  182SLPC   O2120832   4.203   1.299  10.414  0.1181  0.0186  0.0150
  182SLPC   C2120833   4.242   1.417  10.462  0.6081 -0.3683  0.4304
  182SLPC   O2220834   4.289   1.436  10.575 -0.4690  0.6869 -0.4268
  182SLPC   C2220835   4.193   1.532  10.369  0.5804 -0.5852 -0.3145
  182SLPC   H2R20836   4.098   1.499  10.322 -0.5092  0.3512  1.1487
  182SLPC   H2S20837   4.161   1.613  10.438 -1.0648 -0.8898 -0.6797
  182SLPC    C320838   4.376   1.131  10.446  0.3641 -0.4812 -0.3155
  182SLPC    HX20839   4.372   1.103  10.338  3.3817  1.0353 -0.9516
  182SLPC    HY20840   4.389   1.038  10.505 -1.2281  0.2104  1.2046
  182SLPC   O3120841   4.482   1.227  10.467  0.0793 -0.2874 -0.0317
  182SLPC   C3120842   4.519   1.238  10.600 -0.2223 -0.9097  0.9457
  182SLPC   O3220843   4.467   1.174  10.690 -0.7078  0.3162 -0.4206
  182SLPC   C3220844   4.634   1.336  10.607 -1.1364 -0.1699  0.3552
  182SLPC   H2X20845   4.727   1.275  10.604 -0.2214  1.1727  0.2393
  182SLPC   H2Y20846   4.643   1.399  10.698 -1.8575 -0.5088  0.6647
  182SLPC   C2320847   4.297   1.605  10.273 -0.0250 -0.9865 -0.4886
  182SLPC   H3R20848   4.386   1.630  10.334  0.7040  2.4794 -2.6622
  182SLPC   H3S20849   4.250   1.704  10.254 -0.7199 -1.1882  0.1405
  182SLPC   C2420850   4.329   1.521  10.150 -0.0409  0.2691 -0.5470
  182SLPC   H4R20851   4.234   1.468  10.128 -0.1128  0.2607 -0.2093
  182SLPC   H4S20852   4.413   1.455  10.177  2.1256  3.3958  0.9844
  182SLPC   C2520853   4.355   1.598  10.024  0.2229  0.0114 -0.4317
  182SLPC   H5R20854   4.451   1.651  10.047  0.0958 -0.4947  1.4598
  182SLPC   H5S20855   4.277   1.676  10.014  0.9341  0.6921 -0.8349
  182SLPC   C2620856   4.354   1.513   9.892 -0.1404  0.1465 -0.7280
  182SLPC   H6R20857   4.258   1.457   9.891 -1.0861  1.6941 -0.2557
  182SLPC   H6S20858   4.432   1.435   9.893  0.7559  1.0066  0.9865
  182SLPC   C2720859   4.368   1.585   9.757  0.4376 -0.4853 -0.5466
  182SLPC   H7R20860   4.285   1.658   9.749 -0.1711 -0.9974  0.7538
  182SLPC   H7S20861   4.349   1.516   9.672  1.1817  0.6873 -1.6915
  182SLPC   C2820862   4.505   1.651   9.736  0.4718 -0.1940  0.1048
  182SLPC   H8R20863   4.581   1.570   9.742 -0.3869 -0.9559  0.8504
  182SLPC   H8S20864   4.533   1.732   9.807  2.1799 -0.9446  0.3529
  182SLPC   C2920865   4.521   1.713   9.595  0.1486 -0.8359 -0.6344
  182SLPC   H9R20866   4.492   1.820   9.593  0.0333 -0.6414  3.3924
  182SLPC  C21020867   4.563   1.648   9.484 -0.6159  0.0943 -0.4403
  182SLPC  H10R20868   4.573   1.705   9.390  2.4186 -0.1777 -0.3681
  182SLPC  C21120869   4.618   1.507   9.473 -1.0742 -0.1074  0.7604
  182SLPC  H11R20870   4.628   1.452   9.569  1.4468 -0.7128  0.2344
  182SLPC  H11S20871   4.724   1.511   9.441 -0.9678  1.8470  1.2611
  182SLPC  C21220872   4.544   1.427   9.369 -0.3532  0.6166 -0.2085
  182SLPC  H12R20873   4.444   1.401   9.406  0.8375  1.0994  3.7862
  182SLPC  C21320874   4.589   1.362   9.263 -0.4891 -0.3546  0.6572
  182SLPC  H13R20875   4.510   1.308   9.209  0.2701 -1.0319  0.2128
  182SLPC  C21420876   4.732   1.372   9.205 -0.3266 -0.2021 -0.6684
  182SLPC  H14R20877   4.803   1.437   9.261  0.6167 -0.2630 -1.7560
  182SLPC  H14S20878   4.729   1.418   9.103 -3.2952 -0.6146 -0.8472
  182SLPC  C21520879   4.817   1.240   9.190  0.0665  0.3644 -0.2459
  182SLPC  H15R20880   4.808   1.195   9.291 -1.5508 -1.5898 -1.1856
  182SLPC  H15S20881   4.922   1.271   9.171  0.4345  0.7987  2.2448
  182SLPC  C21620882   4.777   1.132   9.080  0.3333 -0.0236 -0.1888
  182SLPC  H16R20883   4.815   1.162   8.980  2.3898 -0.5368  0.3950
  182SLPC  H16S20884   4.667   1.118   9.087  0.5039 -1.0965  0.6782
  182SLPC  C21720885   4.853   0.997   9.100  0.5456 -0.3756  0.4219
  182SLPC  H17R20886   4.801   0.923   9.036 -0.8194 -1.1133  2.3013
  182SLPC  H17S20887   4.830   0.962   9.203 -3.1909 -0.3884 -0.2957
  182SLPC  C21820888   5.002   0.985   9.067  0.4714 -0.3051 -0.0759
  182SLPC  H18R20889   5.050   0.886   9.079  0.8457  0.0394  1.4445
  182SLPC  H18S20890   5.067   1.061   9.116  1.6424  0.2292 -2.3208
  182SLPC  H18T20891   5.017   1.019   8.962 -1.7610  2.7262  0.4317
  182SLPC   C3320892   4.646   1.445  10.489  0.8712  0.2462 -0.6129
  182SLPC   H3X20893   4.685   1.542  10.528  2.7820  0.4292 -2.7925
  182SLPC   H3Y20894   4.543   1.466  10.454  0.2177  0.6090  1.3942
  182SLPC   C3420895   4.716   1.394  10.368 -0.5694 -1.1780 -0.7740
  182SLPC   H4X20896   4.653   1.316  10.320 -0.9469  0.1567 -2.5334
  182SLPC   H4Y20897   4.811   1.339  10.388 -0.2649 -0.4433 -0.1612
  182SLPC   C3520898   4.732   1.508  10.264 -0.1926  0.1844 -1.2131
  182SLPC   H5X20899   4.769   1.601  10.313 -2.0778  0.4317 -0.1734
  182SLPC   H5Y20900   4.626   1.531  10.240 -0.0414  2.9529  0.3828
  182SLPC   C3620901   4.787   1.471  10.131 -0.2282  0.7912  0.2358
  182SLPC   H6X20902   4.720   1.394  10.087  0.5228 -1.9607  3.5015
  182SLPC   H6Y20903   4.886   1.421  10.135 -0.6273  0.0553  1.3775
  182SLPC   C3720904   4.799   1.591  10.044  0.0921 -0.9133  0.2086
  182SLPC   H7X20905   4.862   1.664  10.098 -3.1673  2.1617  0.1900
  182SLPC   H7Y20906   4.696   1.629  10.030  1.5387  3.0336 -1.0432
  182SLPC   C3820907   4.845   1.560   9.904 -0.5570 -0.8186 -0.1108
  182SLPC   H8X20908   4.774   1.508   9.836  0.9737 -1.6510 -1.1497
  182SLPC   H8Y20909   4.931   1.489   9.914 -0.7770 -1.3748 -1.8795
  182SLPC   C3920910   4.897   1.689   9.825  0.2331  0.6513 -0.7952
  182SLPC   H9X20911   4.971   1.739   9.892  0.4473  0.2809 -0.7498
  182SLPC   H9Y20912   4.813   1.756   9.798 -1.7906 -2.0117 -1.4899
  182SLPC  C31020913   4.964   1.655   9.689 -0.2096 -0.5500  0.4097
  182SLPC  H10X20914   4.897   1.586   9.633 -0.1230  1.2125 -2.0341
  182SLPC  H10Y20915   5.065   1.611   9.710 -1.1017 -1.7975  2.3953
  182SLPC  C31120916   4.971   1.779   9.597 -0.3349  0.1637  0.0858
  182SLPC  H11X20917   5.050   1.843   9.641 -0.2035  0.1499 -0.1288
  182SLPC  H11Y20918   4.881   1.844   9.599 -0.2910  0.2336  2.5654
  182SLPC  C31220919   5.005   1.733   9.452 -0.4311  0.6566  0.3440
  182SLPC  H12X20920   4.924   1.665   9.419  0.4360 -0.5242  0.5707
  182SLPC  H12Y20921   5.093   1.665   9.454 -2.3039 -1.8915  1.0700
  182SLPC  C31320922   5.039   1.843   9.353  0.1690 -0.0803  0.4696
  182SLPC  H13X20923   5.137   1.891   9.375  1.0375 -1.1731 -0.7808
  182SLPC  H13Y20924   4.958   1.919   9.360  0.1241 -0.1490  0.7052
  182SLPC  C31420925   5.042   1.801   9.206  0.0061 -0.2248  0.1851
  182SLPC  H14X20926   4.940   1.800   9.162 -0.1110 -1.2314  0.4653
  182SLPC  H14Y20927   5.080   1.698   9.187  0.6535  0.2998 -1.5283
  182SLPC  C31520928   5.136   1.886   9.113  0.0184 -0.4936 -0.4395
  182SLPC  H15X20929   5.131   1.822   9.023  1.2142 -2.6781  0.9379
  182SLPC  H15Y20930   5.235   1.884   9.164 -0.4005  1.2103  0.5293
  182SLPC  C31620931   5.089   2.030   9.086  0.0977 -0.6343  0.5456
  182SLPC  H16X20932   5.083   2.093   9.178  0.9795  0.9857 -0.4703
  182SLPC  H16Y20933   4.986   2.023   9.045  0.2623  0.9848 -0.2216
  182SLPC  C31720934   5.184   2.102   8.992 -0.6930  0.3265  0.8821
  182SLPC  H17X20935   5.288   2.083   9.027  0.7667  1.4894 -2.4102
  182SLPC  H17Y20936   5.178   2.213   8.991  1.5873  0.5580 -2.2116
  182SLPC  C31820937   5.148   2.073   8.847  0.0952 -0.0798 -0.2313
  182SLPC  H18X20938   5.120   1.968   8.823 -0.2553  0.0295 -0.3091
  182SLPC  H18Y20939   5.221   2.113   8.773 -1.3833  0.8039 -1.2625
  182SLPC  H18Z20940   5.055   2.132   8.831  0.3902  1.0858  1.9579
  183SLPC     N20941   5.436   4.380  11.021  0.4999 -0.6286  0.3349
  183SLPC   C1320942   5.481   4.238  11.047  0.2093 -0.2468 -0.2231
  183SLPC  H13A20943   5.588   4.228  11.044  0.3565  0.1998  1.9980
  183SLPC  H13B20944   5.444   4.213  11.145  0.2366  1.2890  0.1946
  183SLPC  H13C20945   5.445   4.170  10.971  2.0522  0.0515 -1.4179
  183SLPC   C1420946   5.504   4.467  11.123 -0.9301  0.3779  0.4408
  183SLPC  H14A20947   5.602   4.434  11.154  0.9604  3.3869 -1.8152
  183SLPC  H14B20948   5.504   4.572  11.096  1.4248  0.1065 -0.7684
  183SLPC  H14C20949   5.443   4.469  11.213  0.3637 -1.3000  1.4243
  183SLPC   C1520950   5.289   4.399  11.052  0.4341  0.3393  0.6464
  183SLPC  H15A20951   5.233   4.338  10.984  3.2876  0.4951 -2.0285
  183SLPC  H15B20952   5.273   4.381  11.158 -3.4914  1.9912  0.5269
  183SLPC  H15C20953   5.267   4.505  11.064  0.4128  0.3044  0.9358
  183SLPC   C1220954   5.469   4.424  10.887 -0.3224  0.6359  0.2038
  183SLPC  H12A20955   5.577   4.433  10.885 -0.3436  0.7850 -0.8433
  183SLPC  H12B20956   5.440   4.526  10.866 -0.0035  0.6656 -0.0982
  183SLPC   C1120957   5.434   4.330  10.771 -0.6283  0.2723  0.2450
  183SLPC  H11A20958   5.490   4.234  10.768 -4.0079 -1.8587 -2.5998
  183SLPC  H11B20959   5.469   4.378  10.677  0.9017 -1.4475 -0.1221
  183SLPC     P20960   5.177   4.385  10.703 -0.2015  0.2532  0.1963
  183SLPC   O1320961   5.068   4.339  10.790  0.4848 -0.2193  0.1539
  183SLPC   O1420962   5.222   4.527  10.700  0.2623  0.1063  0.2532
  183SLPC   O1220963   5.291   4.299  10.769 -0.2535  0.3472 -0.2841
  183SLPC   O1120964   5.160   4.327  10.554 -0.1153  0.0213  0.1746
  183SLPC    C120965   5.101   4.202  10.520  0.7266 -0.0977 -0.0588
  183SLPC    HA20966   5.010   4.186  10.581  0.8450 -0.5886 -0.0028
  183SLPC    HB20967   5.057   4.196  10.418 -2.6186 -2.2220  1.3435
  183SLPC    C220968   5.188   4.075  10.527  0.5481  0.3349  0.1687
  183SLPC    HS20969   5.179   4.054  10.636 -1.0403  0.6718  0.1272
  183SLPC   O2120970   5.327   4.097  10.482 -0.0592 -0.5030  0.0475
  183SLPC   C2120971   5.404   4.000  10.529  0.1336 -0.0048 -0.3620
  183SLPC   O2220972   5.365   3.909  10.594 -0.6264 -0.0246 -0.3621
  183SLPC   C2220973   5.554   4.030  10.516  0.5001  0.4148 -0.5878
  183SLPC   H2R20974   5.568   4.127  10.464 -0.8591  0.2841 -1.2553
  183SLPC   H2S20975   5.600   4.021  10.616  2.6797 -0.7475 -1.6339
  183SLPC    C320976   5.114   3.950  10.454 -0.2363 -0.9546 -0.4180
  183SLPC    HX20977   5.010   3.939  10.492  0.5625  0.7944  2.6457
  183SLPC    HY20978   5.160   3.852  10.478  0.7045 -0.1355  1.3002
  183SLPC   O3120979   5.114   3.976  10.309  0.0983 -0.2638 -0.5616
  183SLPC   C3120980   5.207   3.916  10.237  0.4581  0.3435 -0.4062
  183SLPC   O3220981   5.281   3.831  10.290 -0.1210 -0.1671  0.0295
  183SLPC   C3220982   5.197   3.954  10.090  0.8714 -0.5377  0.0026
  183SLPC   H2X20983   5.120   4.032  10.076  1.6661  0.0515 -1.2549
  183SLPC   H2Y20984   5.161   3.864  10.035  2.2597 -2.6329  2.2858
  183SLPC   C2320985   5.624   3.912  10.446 -0.6807 -0.1165  0.0435
  183SLPC   H3R20986   5.577   3.812  10.460 -2.2139  0.6123  0.2973
  183SLPC   H3S20987   5.731   3.905  10.475 -1.2499  0.2695  2.4511
  183SLPC   C2420988   5.628   3.919  10.294  0.2480  0.0786  0.3469
  183SLPC   H4R20989   5.530   3.953  10.254  0.9347  0.5090 -1.0505
  183SLPC   H4S20990   5.640   3.819  10.247  0.3602  0.8727 -1.4214
  183SLPC   C2520991   5.738   4.004  10.243 -0.1764 -0.4722  0.0350
  183SLPC   H5R20992   5.830   3.950  10.275 -1.1933 -2.0244  0.4138
  183SLPC   H5S20993   5.739   4.107  10.285 -0.8415 -0.6122  0.4053
  183SLPC   C2620994   5.745   4.019  10.090  0.1127 -0.6559  0.5384
  183SLPC   H6R20995   5.825   4.079  10.040  0.9858 -2.1452  0.0944
  183SLPC   H6S20996   5.648   4.063  10.058  0.8665  1.5133  1.0638
  183SLPC   C2720997   5.760   3.885  10.016  0.7707 -0.5001  0.9311
  183SLPC   H7R20998   5.661   3.834  10.019  0.2881  0.4447  1.6346
  183SLPC   H7S20999   5.819   3.811  10.074 -1.4201 -2.8840  0.3636
  183SLPC   C2821000   5.796   3.883   9.867  0.2815  0.4085 -0.1335
  183SLPC   H8R21001   5.832   3.782   9.840  0.3215  0.2533  0.4892
  183SLPC   H8S21002   5.872   3.964   9.860  0.1053  0.5876  0.0073
  183SLPC   C2921003   5.699   3.922   9.763  0.2737 -0.1139  1.1070
  183SLPC   H9R21004   5.599   3.888   9.793 -0.6081 -1.2340 -2.5850
  183SLPC  C21021005   5.713   3.961   9.631  0.1736 -0.9814 -0.5969
  183SLPC  H10R21006   5.616   3.964   9.579 -0.3886 -0.9087  0.4247
  183SLPC  C21121007   5.847   3.983   9.558  0.2245 -0.6442  0.8897
  183SLPC  H11R21008   5.924   4.003   9.635 -0.3990  1.2855  1.0803
  183SLPC  H11S21009   5.845   4.086   9.517  3.9392 -1.3813 -1.5460
  183SLPC  C21221010   5.872   3.886   9.447 -0.5776 -0.3612 -0.6302
  183SLPC  H12R21011   5.923   3.797   9.486  1.0736  1.3019  1.2108
  183SLPC  C21321012   5.855   3.907   9.315 -0.4106 -0.2705 -0.1638
  183SLPC  H13R21013   5.870   3.825   9.243 -0.6625  1.7272 -2.6542
  183SLPC  C21421014   5.796   4.036   9.256 -0.6015  0.2692 -0.0973
  183SLPC  H14R21015   5.849   4.125   9.296  1.2364  0.8025 -3.3266
  183SLPC  H14S21016   5.688   4.050   9.275 -0.4248  0.0641  1.1620
  183SLPC  C21521017   5.793   4.039   9.100 -0.1870  0.4369 -0.0030
  183SLPC  H15R21018   5.723   3.958   9.068  1.3618 -0.5414 -1.0180
  183SLPC  H15S21019   5.898   4.019   9.070  0.1721  0.2612  1.3471
  183SLPC  C21621020   5.746   4.180   9.053 -0.3729 -0.1055 -0.4870
  183SLPC  H16R21021   5.816   4.255   9.096  1.5997 -0.2696 -3.1734
  183SLPC  H16S21022   5.642   4.185   9.092 -0.5662  3.4179 -1.0908
  183SLPC  C21721023   5.753   4.210   8.906  0.2783  0.1244 -0.1312
  183SLPC  H17R21024   5.676   4.153   8.850  1.1253 -0.9122 -0.2772
  183SLPC  H17S21025   5.855   4.178   8.875  0.1958 -0.6831  0.4079
  183SLPC  C21821026   5.739   4.356   8.877 -0.4743 -0.7272 -0.0122
  183SLPC  H18R21027   5.812   4.417   8.934 -2.1392  2.2661 -0.8629
  183SLPC  H18S21028   5.640   4.400   8.903 -0.1306  1.8239 -2.5310
  183SLPC  H18T21029   5.765   4.375   8.771  0.0780 -1.9235 -0.1021
  183SLPC   C3321030   5.332   3.991  10.038 -0.1314  0.0377  0.6253
  183SLPC   H3X21031   5.399   3.905  10.060  0.4362  0.3729  0.2345
  183SLPC   H3Y21032   5.373   4.078  10.093  0.5464  1.3763 -1.8784
  183SLPC   C3421033   5.330   4.023   9.887  0.9080  0.0404 -0.5018
  183SLPC   H4X21034   5.422   4.081   9.864  1.7078 -0.7863  0.5050
  183SLPC   H4Y21035   5.247   4.096   9.877  1.3449  0.5547 -0.4127
  183SLPC   C3521036   5.300   3.911   9.788 -0.0837 -0.1799 -0.0332
  183SLPC   H5X21037   5.207   3.869   9.831 -0.1772  0.4068  0.3500
  183SLPC   H5Y21038   5.383   3.839   9.803  0.3649  0.3027 -0.1336
  183SLPC   C3621039   5.293   3.946   9.644  0.7668  0.6990 -0.0453
  183SLPC   H6X21040   5.361   4.022   9.601  2.3573 -1.2742 -1.1981
  183SLPC   H6Y21041   5.191   3.980   9.616  0.1521 -2.0920 -1.5075
  183SLPC   C3721042   5.324   3.820   9.565 -0.9494 -0.0606 -0.3037
  183SLPC   H7X21043   5.260   3.743   9.614 -1.2388 -0.4551 -1.2677
  183SLPC   H7Y21044   5.432   3.800   9.579 -0.9069  0.1854 -0.2840
  183SLPC   C3821045   5.308   3.843   9.416 -0.5278  0.0613 -0.4746
  183SLPC   H8X21046   5.352   3.939   9.380  0.0818 -0.8755 -2.3743
  183SLPC   H8Y21047   5.202   3.834   9.384 -0.8712  1.4608  0.1932
  183SLPC   C3921048   5.381   3.725   9.344  0.1678 -0.2936  0.1359
  183SLPC   H9X21049   5.346   3.623   9.374  3.0248 -1.8355 -1.3574
  183SLPC   H9Y21050   5.490   3.743   9.348  0.5067 -2.2417  0.5543
  183SLPC  C31021051   5.338   3.720   9.192  0.1864  0.2155 -0.1980
  183SLPC  H10X21052   5.227   3.730   9.182  0.1276 -0.2062  0.0019
  183SLPC  H10Y21053   5.357   3.613   9.169 -0.4908  0.4910 -2.2789
  183SLPC  C31121054   5.402   3.830   9.109 -0.1873  0.4697  0.1300
  183SLPC  H11X21055   5.511   3.816   9.122 -0.0514 -0.7397 -1.8747
  183SLPC  H11Y21056   5.380   3.931   9.150  0.4054  0.6327  0.0548
  183SLPC  C31221057   5.361   3.828   8.961  0.2094 -0.5665 -0.5595
  183SLPC  H12X21058   5.251   3.813   8.973  0.4869 -1.2518  1.3468
  183SLPC  H12Y21059   5.413   3.738   8.921 -0.1632 -0.5166 -1.1819
  183SLPC  C31321060   5.388   3.960   8.888  0.0693  0.8356  0.1791
  183SLPC  H13X21061   5.497   3.982   8.880  0.2045  1.4124  2.7501
  183SLPC  H13Y21062   5.346   4.048   8.941 -0.8784 -0.0196  0.8909
  183SLPC  C31421063   5.322   3.961   8.746  0.2567  0.2420  0.2662
  183SLPC  H14X21064   5.347   4.058   8.697  1.9498 -1.0193 -1.4909
  183SLPC  H14Y21065   5.214   3.959   8.773  0.6221  0.7894  1.8507
  183SLPC  C31521066   5.366   3.859   8.641 -0.5603 -0.0172  0.8829
  183SLPC  H15X21067   5.365   3.758   8.688 -1.5517  0.3440  1.6710
  183SLPC  H15Y21068   5.472   3.890   8.627 -0.8706  2.1168  2.7403
  183SLPC  C31621069   5.300   3.860   8.500 -0.0092  0.6999  0.9027
  183SLPC  H16X21070   5.217   3.785   8.493  1.0726 -0.5474  0.9789
  183SLPC  H16Y21071   5.386   3.818   8.443  0.8082  1.2010  1.7430
  183SLPC  C31721072   5.263   4.002   8.447  0.2662  0.8190  0.0691
  183SLPC  H17X21073   5.349   4.070   8.465  1.5988 -0.8751  0.3350
  183SLPC  H17Y21074   5.175   4.029   8.510 -0.3649 -2.1896  0.6420
  183SLPC  C31821075   5.202   4.001   8.302 -0.4011 -0.3042 -0.1411
  183SLPC  H18X21076   5.277   3.967   8.227  0.5893  1.2592  0.0734
  183SLPC  H18Y21077   5.175   4.107   8.279 -0.7422 -0.3384  0.0992
  183SLPC  H18Z21078   5.111   3.938   8.296 -0.2428 -0.5825  0.3373
  184SLPC     N21079   1.199   6.562  10.643 -1.1166 -0.0244 -0.4092
  184SLPC   C1321080   1.322   6.641  10.614 -0.1665  0.5482  0.2363
  184SLPC  H13A21081   1.411   6.579  10.621 -0.9469 -0.4957  1.3209
  184SLPC  H13B21082   1.334   6.680  10.514  0.4475  0.3613  0.2299
  184SLPC  H13C21083   1.325   6.727  10.679 -0.2307  0.2390  0.6540
  184SLPC   C1421084   1.194   6.530  10.790 -0.2067 -0.0133 -0.2076
  184SLPC  H14A21085   1.111   6.465  10.816  0.9898 -1.1828  0.8659
  184SLPC  H14B21086   1.285   6.478  10.816 -0.4727 -0.6833 -0.5824
  184SLPC  H14C21087   1.185   6.617  10.854 -2.2660  0.4009 -0.9670
  184SLPC   C1521088   1.191   6.435  10.561 -0.3863 -1.0050  0.2472
  184SLPC  H15A21089   1.168   6.457  10.458  1.4631 -0.3383 -0.0651
  184SLPC  H15B21090   1.278   6.372  10.574  0.9186  1.1306  3.2231
  184SLPC  H15C21091   1.111   6.376  10.603 -0.2021 -0.6348  1.1506
  184SLPC   C1221092   1.070   6.633  10.619 -0.1303  0.5822  0.2575
  184SLPC  H12A21093   1.072   6.722  10.681 -2.2774  0.1203  1.0989
  184SLPC  H12B21094   0.991   6.573  10.662  0.6968  0.1552  1.1989
  184SLPC   C1121095   1.047   6.673  10.476  0.3736 -0.3178 -0.9680
  184SLPC  H11A21096   0.945   6.715  10.458  0.7745  0.8413 -0.6367
  184SLPC  H11B21097   1.057   6.586  10.408  0.5751 -0.1971 -1.0947
  184SLPC     P21098   1.120   6.930  10.484  0.3442  0.6894 -0.0804
  184SLPC   O1321099   1.010   6.937  10.587 -0.3420 -0.7445  0.7792
  184SLPC   O1421100   1.254   6.984  10.522  0.0766  0.2532 -0.0022
  184SLPC   O1221101   1.132   6.779  10.432 -0.0668 -0.1894 -0.2151
  184SLPC   O1121102   1.074   6.999  10.349  0.7581  0.4660 -0.1096
  184SLPC    C121103   1.006   6.932  10.246 -0.1669  0.1636  0.2267
  184SLPC    HA21104   1.057   6.841  10.206 -0.7466  0.3288 -0.9526
  184SLPC    HB21105   0.910   6.898  10.289 -1.6375  2.8069 -0.7722
  184SLPC    C221106   0.960   7.026  10.131 -0.0976  0.0542 -0.4298
  184SLPC    HS21107   0.888   6.960  10.078  1.1768 -1.9891  0.2597
  184SLPC   O2121108   1.080   7.069  10.056  0.1531 -0.7835 -0.0677
  184SLPC   C2121109   1.060   7.087   9.928  0.0169 -0.3967 -0.3835
  184SLPC   O2221110   0.957   7.059   9.871  0.3190 -0.2407 -0.0506
  184SLPC   C2221111   1.190   7.160   9.874 -0.4515  0.1877 -0.4910
  184SLPC   H2R21112   1.195   7.256   9.930  2.4339  0.8494 -1.6947
  184SLPC   H2S21113   1.279   7.095   9.885  0.5269  1.2836 -1.6082
  184SLPC    C321114   0.900   7.153  10.201  0.4401 -0.2360 -0.6916
  184SLPC    HX21115   0.976   7.207  10.262  0.3677 -2.0191  1.0772
  184SLPC    HY21116   0.821   7.116  10.269  1.1864 -0.1902  0.2271
  184SLPC   O3121117   0.841   7.238  10.093 -0.0456 -0.4859 -0.6813
  184SLPC   C3121118   0.781   7.340  10.146 -0.4246 -0.6620  0.1986
  184SLPC   O3221119   0.766   7.375  10.262 -0.1584  0.6448  0.0121
  184SLPC   C3221120   0.725   7.424  10.025 -0.8198  0.2363 -0.7971
  184SLPC   H2X21121   0.616   7.428  10.046 -1.2777  0.8199 -3.0044
  184SLPC   H2Y21122   0.748   7.373   9.929 -0.7953 -0.4198 -0.4510
  184SLPC   C2321123   1.170   7.192   9.721 -0.1722  0.4051  0.1388
  184SLPC   H3R21124   1.241   7.273   9.692 -0.2247 -0.1783 -1.7523
  184SLPC   H3S21125   1.064   7.225   9.720 -0.8270 -1.5723 -1.1942
  184SLPC   C2421126   1.199   7.077   9.621 -0.6908  0.4465 -0.2168
  184SLPC   H4R21127   1.157   6.988   9.673  0.4311  0.4746  0.7711
  184SLPC   H4S21128   1.306   7.048   9.620 -1.1023 -1.7066  2.7823
  184SLPC   C2521129   1.163   7.107   9.483 -0.3630 -0.1575 -0.3127
  184SLPC   H5R21130   1.217   7.198   9.451 -1.1484  0.6951  0.7207
  184SLPC   H5S21131   1.061   7.148   9.468  0.8170  3.2030  0.0131
  184SLPC   C2621132   1.190   6.998   9.385 -0.1187  0.1974  0.4501
  184SLPC   H6R21133   1.127   6.913   9.421  1.3019 -0.7151  0.8568
  184SLPC   H6S21134   1.298   6.973   9.397 -0.0889  0.4198  0.6347
  184SLPC   C2721135   1.154   7.042   9.241 -0.1108 -0.1034  0.1418
  184SLPC   H7R21136   1.208   7.133   9.208  0.0601  0.2886  1.4405
  184SLPC   H7S21137   1.044   7.057   9.232 -0.1060 -0.9741 -1.8369
  184SLPC   C2821138   1.207   6.942   9.134 -0.3031 -0.5535  0.4466
  184SLPC   H8R21139   1.316   6.964   9.131 -0.9608  3.4294  1.0254
  184SLPC   H8S21140   1.160   6.974   9.039  1.4921  0.9418  0.0105
  184SLPC   C2921141   1.183   6.795   9.153  0.2908  0.9057 -0.1098
  184SLPC   H9R21142   1.243   6.743   9.228  2.4738  0.5274 -2.0016
  184SLPC  C21021143   1.108   6.716   9.070 -0.0681 -0.2272  0.3697
  184SLPC  H10R21144   1.108   6.607   9.082  0.2381 -0.7814 -3.4808
  184SLPC  C21121145   1.025   6.766   8.957 -0.4183 -0.4183  1.2925
  184SLPC  H11R21146   1.077   6.744   8.861  0.9141 -2.4268  2.3950
  184SLPC  H11S21147   1.006   6.875   8.955 -1.5448 -0.6175  0.2122
  184SLPC  C21221148   0.886   6.711   8.962 -1.1114 -0.1755 -0.4065
  184SLPC  H12R21149   0.819   6.774   9.022 -0.8359 -0.2283 -0.0373
  184SLPC  C21321150   0.855   6.603   8.894  0.8698 -0.2225 -0.3886
  184SLPC  H13R21151   0.750   6.572   8.886  1.2253 -1.4932 -0.3660
  184SLPC  C21421152   0.936   6.515   8.803 -1.2049  0.0282  0.0200
  184SLPC  H14R21153   1.024   6.570   8.763 -0.4069 -2.6162 -2.1855
  184SLPC  H14S21154   0.872   6.494   8.715 -0.4285  1.7028 -1.0060
  184SLPC  C21521155   1.008   6.387   8.851  0.2835  0.5176 -0.6457
  184SLPC  H15R21156   0.923   6.333   8.899  0.2618 -0.9716 -2.2692
  184SLPC  H15S21157   1.077   6.416   8.933 -0.7481 -1.0718  0.8727
  184SLPC  C21621158   1.072   6.291   8.746  0.0388  0.0104 -0.3427
  184SLPC  H16R21159   1.094   6.195   8.797  1.3423  0.8300  0.7085
  184SLPC  H16S21160   1.168   6.338   8.715  0.8999 -1.1222  0.5465
  184SLPC  C21721161   0.997   6.275   8.621 -0.4761 -0.2859  0.4204
  184SLPC  H17R21162   1.012   6.365   8.558 -1.1146 -0.6528 -0.2738
  184SLPC  H17S21163   0.886   6.272   8.637 -0.4744 -1.6073  0.2880
  184SLPC  C21821164   1.032   6.157   8.529  0.4095  0.1187 -0.0571
  184SLPC  H18R21165   1.024   6.060   8.583 -0.2938  0.7511  0.9985
  184SLPC  H18S21166   1.140   6.168   8.502 -0.1409 -1.7029 -3.6278
  184SLPC  H18T21167   0.969   6.162   8.438  0.9981  1.5014 -0.4061
  184SLPC   C3321168   0.784   7.570  10.023  0.3987 -0.1427 -0.2113
  184SLPC   H3X21169   0.753   7.622  10.116  0.6983 -1.6885  0.7754
  184SLPC   H3Y21170   0.737   7.611   9.931 -1.4012  0.4309  0.9007
  184SLPC   C3421171   0.935   7.564  10.007  0.2620 -0.2770 -0.5973
  184SLPC   H4X21172   0.999   7.526  10.089  0.4881 -0.1546 -0.7139
  184SLPC   H4Y21173   0.970   7.669  10.000 -0.3207  0.0227  0.7803
  184SLPC   C3521174   1.000   7.501   9.882 -0.4642  0.2103  0.2469
  184SLPC   H5X21175   0.982   7.392   9.872  0.9178 -0.1087  0.9971
  184SLPC   H5Y21176   1.111   7.508   9.891 -0.4861  0.3104  0.4281
  184SLPC   C3621177   0.950   7.568   9.752  0.3826  0.0073  0.5771
  184SLPC   H6X21178   0.976   7.676   9.751  1.3548 -0.2274  0.2191
  184SLPC   H6Y21179   0.840   7.554   9.741  0.5083 -0.7207  0.2099
  184SLPC   C3721180   1.020   7.517   9.616  0.0961 -0.3930 -0.8113
  184SLPC   H7X21181   1.014   7.406   9.613  0.6762 -0.4249 -0.9963
  184SLPC   H7Y21182   1.128   7.544   9.621  0.3554 -1.5519  0.9230
  184SLPC   C3821183   0.956   7.578   9.492 -0.2986 -0.7556 -0.0325
  184SLPC   H8X21184   0.955   7.688   9.510  0.7764 -0.1898 -2.9137
  184SLPC   H8Y21185   0.852   7.541   9.485 -0.5180  0.0132 -1.1972
  184SLPC   C3921186   1.045   7.551   9.369  0.3710  0.4199 -0.2408
  184SLPC   H9X21187   1.151   7.585   9.380  1.2790 -2.3341  0.3869
  184SLPC   H9Y21188   0.997   7.615   9.292 -0.0467 -1.7675 -1.8925
  184SLPC  C31021189   1.041   7.405   9.309 -0.2764 -0.5243 -0.0136
  184SLPC  H10X21190   0.949   7.357   9.349  0.2373  0.0707  1.9904
  184SLPC  H10Y21191   1.130   7.350   9.348  0.1811 -0.4844 -0.9640
  184SLPC  C31121192   1.034   7.407   9.156  0.3683 -0.0933  0.2603
  184SLPC  H11X21193   0.977   7.499   9.133  0.2769  0.3211  1.9859
  184SLPC  H11Y21194   0.981   7.314   9.128 -0.0441  0.3341 -0.3935
  184SLPC  C31221195   1.173   7.416   9.087  0.2103 -0.0915 -0.3283
  184SLPC  H12X21196   1.218   7.314   9.088 -2.2076 -1.2595 -1.2784
  184SLPC  H12Y21197   1.236   7.482   9.150 -0.3510 -0.6818  0.9009
  184SLPC  C31321198   1.178   7.473   8.945  0.2575  0.2203 -0.5981
  184SLPC  H13X21199   1.283   7.482   8.909  1.4328  0.9822  2.6688
  184SLPC  H13Y21200   1.147   7.580   8.949  1.5442  0.5801  0.3910
  184SLPC  C31421201   1.112   7.392   8.833  0.6457 -0.5082 -0.0523
  184SLPC  H14X21202   1.114   7.443   8.735  1.0809 -2.3940 -1.0733
  184SLPC  H14Y21203   1.008   7.373   8.869  0.6275  0.0826  0.2144
  184SLPC  C31521204   1.173   7.256   8.807 -0.5133  1.4490  0.1251
  184SLPC  H15X21205   1.202   7.210   8.904 -0.1686 -0.2914 -0.7804
  184SLPC  H15Y21206   1.267   7.276   8.751  0.3607  2.5317  1.8924
  184SLPC  C31621207   1.091   7.170   8.720 -0.5656 -0.1222  0.3881
  184SLPC  H16X21208   1.092   7.221   8.621  0.0909  0.8153  0.8616
  184SLPC  H16Y21209   0.984   7.160   8.747 -1.4899  0.2519 -2.7165
  184SLPC  C31721210   1.150   7.035   8.706 -0.2552 -0.2189 -0.2151
  184SLPC  H17X21211   1.178   6.998   8.806 -0.5760 -2.9664 -1.0668
  184SLPC  H17Y21212   1.249   7.040   8.656 -0.6002 -0.2489 -0.9089
  184SLPC  C31821213   1.061   6.940   8.635 -0.6996  0.2250 -0.7666
  184SLPC  H18X21214   1.093   6.834   8.642  2.4710  1.0622 -0.7689
  184SLPC  H18Y21215   1.061   6.960   8.526 -1.4838 -1.4269 -1.1044
  184SLPC  H18Z21216   0.956   6.947   8.671 -1.0496 -0.7930 -1.5504
  185SLPC     N21217   1.517   3.285   6.486 -0.2494  0.1787  0.5122
  185SLPC   C1321218   1.517   3.404   6.583 -0.1127 -0.2917 -0.1777
  185SLPC  H13A21219   1.440   3.401   6.659  0.1421  1.3477  0.1783
  185SLPC  H13B21220   1.605   3.397   6.645 -1.1136 -0.9975  1.2321
  185SLPC  H13C21221   1.507   3.498   6.530 -2.0271 -0.8628 -0.9176
  185SLPC   C1421222   1.531   3.160   6.568  0.0808  0.3859 -0.0048
  185SLPC  H14A21223   1.635   3.147   6.595  0.2500 -0.9810 -1.2252
  185SLPC  H14B21224   1.469   3.179   6.654  0.2112  0.8184 -0.0040
  185SLPC  H14C21225   1.496   3.075   6.512 -0.4058 -0.3444  1.3665
  185SLPC   C1521226   1.638   3.298   6.394 -0.3190  1.1089  0.3377
  185SLPC  H15A21227   1.731   3.298   6.448 -0.4448  0.4244  0.5630
  185SLPC  H15B21228   1.641   3.216   6.324 -0.7420 -0.9275  2.5868
  185SLPC  H15C21229   1.632   3.392   6.341  0.6797  1.3656  0.6528
  185SLPC   C1221230   1.392   3.289   6.404  0.1443 -0.8847 -0.2024
  185SLPC  H12A21231   1.394   3.367   6.329 -2.3266 -0.5743 -0.0113
  185SLPC  H12B21232   1.314   3.303   6.477 -0.2680 -0.1243 -0.7681
  185SLPC   C1121233   1.351   3.165   6.330 -0.0816  0.0203  0.5571
  185SLPC  H11A21234   1.434   3.115   6.275  1.0120  1.1732  1.1133
  185SLPC  H11B21235   1.275   3.188   6.252 -1.0889 -0.4975  1.3660
  185SLPC     P21236   1.151   3.091   6.481  0.1135 -0.3551 -0.6192
  185SLPC   O1321237   1.141   3.226   6.543  0.5437 -0.4046 -0.4555
  185SLPC   O1421238   1.047   3.054   6.386  0.5190  0.8181  0.1526
  185SLPC   O1221239   1.300   3.070   6.416 -0.4347  0.3946 -0.7483
  185SLPC   O1121240   1.136   2.979   6.599 -0.2873  0.3929  0.0561
  185SLPC    C121241   1.245   2.888   6.619  0.0638  0.4574 -0.4169
  185SLPC    HA21242   1.284   2.842   6.526  1.7269  1.8527 -0.4692
  185SLPC    HB21243   1.335   2.931   6.667  0.0444  0.3798 -0.3120
  185SLPC    C221244   1.199   2.782   6.726  0.0965  0.5511  0.7526
  185SLPC    HS21245   1.100   2.737   6.702 -0.9513  2.5397  1.1248
  185SLPC   O2121246   1.196   2.854   6.854  0.2442 -0.4610 -0.1537
  185SLPC   C2121247   1.125   2.784   6.941  0.2045 -0.1320 -0.2588
  185SLPC   O2221248   1.038   2.702   6.916 -0.2302 -0.1851  0.3754
  185SLPC   C2221249   1.153   2.816   7.087  0.0509  0.8184 -0.3065
  185SLPC   H2R21250   1.256   2.857   7.099  0.3541 -0.4131  1.8492
  185SLPC   H2S21251   1.090   2.901   7.118 -2.2350  0.4823 -3.5569
  185SLPC    C321252   1.298   2.665   6.732 -0.4985  0.4525  0.4080
  185SLPC    HX21253   1.394   2.702   6.776  1.0370 -0.0737 -2.2594
  185SLPC    HY21254   1.328   2.630   6.631 -1.3995  0.9577 -0.0390
  185SLPC   O3121255   1.271   2.557   6.821 -0.3061 -0.5381  0.1920
  185SLPC   C3121256   1.187   2.477   6.768  0.0435  1.4267  0.6279
  185SLPC   O3221257   1.144   2.485   6.652  0.4427 -0.1141 -0.7310
  185SLPC   C3221258   1.147   2.355   6.855  0.0165  0.1970 -0.5546
  185SLPC   H2X21259   1.230   2.281   6.843  1.4957  1.5989  0.5624
  185SLPC   H2Y21260   1.057   2.306   6.811 -0.8392  0.4454  0.8625
  185SLPC   C2321261   1.151   2.693   7.191  0.0526  0.5271  0.4521
  185SLPC   H3R21262   1.223   2.611   7.169 -0.1845  0.2625  0.6497
  185SLPC   H3S21263   1.050   2.646   7.200  0.3309  0.0636  1.2463
  185SLPC   C2421264   1.185   2.751   7.334 -0.5346  0.1898  0.7080
  185SLPC   H4R21265   1.102   2.819   7.364 -1.1620  0.3388 -1.2180
  185SLPC   H4S21266   1.280   2.808   7.324  1.5389 -3.3511 -2.1583
  185SLPC   C2521267   1.197   2.638   7.444  0.0970 -0.0805  0.5794
  185SLPC   H5R21268   1.261   2.554   7.410  1.6794  0.8033  1.2531
  185SLPC   H5S21269   1.095   2.595   7.457 -0.0066 -1.1911 -2.9043
  185SLPC   C2621270   1.253   2.687   7.570 -0.2180  0.4320  0.1869
  185SLPC   H6R21271   1.205   2.784   7.596 -1.3775 -0.7163  2.6020
  185SLPC   H6S21272   1.364   2.693   7.565 -0.0744 -2.1497 -2.6591
  185SLPC   C2721273   1.232   2.588   7.693 -0.0469 -0.4231 -0.3174
  185SLPC   H7R21274   1.262   2.488   7.657 -1.3315 -0.5670 -1.0769
  185SLPC   H7S21275   1.122   2.574   7.701  0.1705 -1.5486  1.0606
  185SLPC   C2821276   1.295   2.648   7.830  0.0587  0.0842 -0.6446
  185SLPC   H8R21277   1.237   2.732   7.874  1.4831  0.6256  0.2633
  185SLPC   H8S21278   1.392   2.698   7.809 -0.5590  2.4594  1.6981
  185SLPC   C2921279   1.331   2.528   7.919  0.0259  0.3266  0.3610
  185SLPC   H9R21280   1.404   2.460   7.872  1.5187  0.5044  2.2861
  185SLPC  C21021281   1.291   2.511   8.046 -0.0157  0.1221  0.4049
  185SLPC  H10R21282   1.334   2.423   8.095  1.8917  0.5103 -0.4804
  185SLPC  C21121283   1.192   2.592   8.123  0.7720 -0.9317  0.1084
  185SLPC  H11R21284   1.115   2.626   8.050 -0.1449  0.5368  1.6740
  185SLPC  H11S21285   1.247   2.684   8.150  1.3191 -0.4507 -2.3674
  185SLPC  C21221286   1.114   2.522   8.236 -0.4698  0.0593 -0.5992
  185SLPC  H12R21287   1.005   2.523   8.225 -0.4705  2.3206 -0.7951
  185SLPC  C21321288   1.161   2.466   8.349  0.6061 -0.4582  0.0820
  185SLPC  H13R21289   1.085   2.418   8.412  0.2675  1.1559  0.9567
  185SLPC  C21421290   1.302   2.440   8.396 -0.4125  0.0397 -0.1490
  185SLPC  H14R21291   1.311   2.462   8.505 -1.8434  2.4779 -0.4472
  185SLPC  H14S21292   1.378   2.500   8.341 -0.4330 -1.1188 -1.5024
  185SLPC  C21521293   1.343   2.289   8.377  0.5425  0.0020 -0.3537
  185SLPC  H15R21294   1.365   2.261   8.272  0.2774  0.1103 -0.4368
  185SLPC  H15S21295   1.260   2.221   8.407  0.3943 -0.3999 -1.6422
  185SLPC  C21621296   1.475   2.252   8.443 -0.4048 -0.3944  0.1584
  185SLPC  H16R21297   1.465   2.247   8.553  1.6915 -4.6733  0.3667
  185SLPC  H16S21298   1.556   2.326   8.424  0.7559 -2.0143 -1.5355
  185SLPC  C21721299   1.538   2.121   8.395  0.1885 -0.1531  0.2686
  185SLPC  H17R21300   1.581   2.129   8.293  2.2763 -1.0633  1.0129
  185SLPC  H17S21301   1.461   2.043   8.378  0.2499 -0.5495  1.6919
  185SLPC  C21821302   1.641   2.071   8.501 -0.2682  0.4056  1.1181
  185SLPC  H18R21303   1.719   2.149   8.518 -0.2958  0.3296  1.6071
  185SLPC  H18S21304   1.681   1.972   8.470 -0.7255  0.5461  0.0375
  185SLPC  H18T21305   1.597   2.054   8.602  0.8576 -0.6822  1.4492
  185SLPC   C3321306   1.137   2.386   7.009 -0.4895  0.3442  0.2807
  185SLPC   H3X21307   1.061   2.466   7.018  0.4561  1.3242 -0.1414
  185SLPC   H3Y21308   1.231   2.432   7.048 -0.2881  0.3611 -0.2134
  185SLPC   C3421309   1.122   2.268   7.105 -0.2620 -0.0505 -0.1446
  185SLPC   H4X21310   1.194   2.190   7.072  0.1959  0.2429  0.1478
  185SLPC   H4Y21311   1.020   2.225   7.103 -1.2496  2.1083  0.6801
  185SLPC   C3521312   1.156   2.309   7.250 -0.1556  0.1635  0.0471
  185SLPC   H5X21313   1.074   2.377   7.281  0.4643  0.6055  0.7754
  185SLPC   H5Y21314   1.248   2.371   7.258 -0.4584  0.3683  2.7838
  185SLPC   C3621315   1.166   2.188   7.344 -0.4305 -0.3309  0.2084
  185SLPC   H6X21316   1.228   2.113   7.290  1.4184  1.1866  0.1351
  185SLPC   H6Y21317   1.065   2.142   7.349  1.0773 -3.9720 -0.0161
  185SLPC   C3721318   1.211   2.237   7.480 -0.3396 -0.4138 -0.5588
  185SLPC   H7X21319   1.149   2.325   7.507  2.0220  1.2384 -0.2587
  185SLPC   H7Y21320   1.314   2.276   7.481  1.0463 -3.5242  2.4359
  185SLPC   C3821321   1.210   2.131   7.589 -0.4979 -0.6761  0.0041
  185SLPC   H8X21322   1.299   2.069   7.566  0.3104  0.3701  0.2308
  185SLPC   H8Y21323   1.119   2.066   7.587 -0.3512 -0.8992  0.4919
  185SLPC   C3921324   1.228   2.187   7.731  0.4337 -0.3114  0.0376
  185SLPC   H9X21325   1.152   2.266   7.749 -1.0568 -1.8647  0.8603
  185SLPC   H9Y21326   1.328   2.234   7.744 -0.2703  1.4590 -0.5628
  185SLPC  C31021327   1.200   2.086   7.842  0.4258 -0.4488 -0.6604
  185SLPC  H10X21328   1.114   2.019   7.820  1.5346 -1.1487 -3.2683
  185SLPC  H10Y21329   1.172   2.133   7.938  1.8264  0.5231 -0.7072
  185SLPC  C31121330   1.306   1.979   7.860 -0.5734  0.1284  0.4844
  185SLPC  H11X21331   1.384   2.030   7.921 -0.6932  0.0145  0.7350
  185SLPC  H11Y21332   1.360   1.936   7.773  0.2887 -3.2643  2.5119
  185SLPC  C31221333   1.263   1.857   7.951 -0.3615  0.5005  0.1925
  185SLPC  H12X21334   1.352   1.791   7.955  0.5749  1.7198 -0.1316
  185SLPC  H12Y21335   1.177   1.807   7.901 -0.0929  0.6990 -0.4790
  185SLPC  C31321336   1.220   1.894   8.095  0.1949  0.5621  0.6055
  185SLPC  H13X21337   1.291   1.976   8.119  1.4862 -0.4851  0.4801
  185SLPC  H13Y21338   1.214   1.811   8.167  1.1701 -0.6425 -0.6470
  185SLPC  C31421339   1.077   1.956   8.118 -0.4485  0.4208 -0.4113
  185SLPC  H14X21340   0.996   1.881   8.108 -0.8467  0.5809  1.2368
  185SLPC  H14Y21341   1.059   2.034   8.041  0.4448 -0.1441 -1.2038
  185SLPC  C31521342   1.064   2.022   8.249 -0.3308 -0.6233  0.1345
  185SLPC  H15X21343   1.143   2.100   8.242  0.2864 -1.3593 -1.6430
  185SLPC  H15Y21344   1.105   1.964   8.334  0.6387 -1.8682 -1.1283
  185SLPC  C31621345   0.924   2.065   8.274  0.5104 -0.0934 -0.4277
  185SLPC  H16X21346   0.862   1.973   8.263 -1.1012  1.1028 -1.9792
  185SLPC  H16Y21347   0.901   2.126   8.184  1.2299 -0.2143 -0.7048
  185SLPC  C31721348   0.880   2.138   8.396  0.3032 -0.8088 -0.5058
  185SLPC  H17X21349   0.769   2.147   8.397  0.4326  2.0758 -2.2022
  185SLPC  H17Y21350   0.917   2.243   8.401 -0.9836 -0.3341 -0.7057
  185SLPC  C31821351   0.923   2.059   8.521 -0.1440 -0.7832  0.1074
  185SLPC  H18X21352   0.910   1.949   8.512  3.7875 -1.2342 -2.5182
  185SLPC  H18Y21353   0.883   2.107   8.613 -0.3748  2.4140 -1.5077
  185SLPC  H18Z21354   1.032   2.066   8.538 -0.0181 -1.2542 -0.4863
  186SLPC     N21355   0.248   0.009   5.819 -0.2753  0.5057 -0.2680
  186SLPC   C1321356   0.123   0.086   5.824 -0.2747  0.3665 -0.6330
  186SLPC  H13A21357   0.128   0.157   5.743 -1.1307  3.4588  1.8528
  186SLPC  H13B21358   0.036   0.023   5.820 -1.6692  2.2088 -0.6007
  186SLPC  H13C21359   0.117   0.142   5.916 -1.7694 -2.3921  1.0966
  186SLPC   C1421360   0.369   0.099   5.829 -0.0818  0.3992  0.2668
  186SLPC  H14A21361   0.459   0.040   5.833  0.3591  1.1251  2.4388
  186SLPC  H14B21362   0.371   0.163   5.742  2.6970 -0.9439 -0.7815
  186SLPC  H14C21363   0.362   0.151   5.924 -0.4806 -4.0064  2.9342
  186SLPC   C1521364   0.258  -0.061   5.688 -1.3977  0.2279  0.0977
  186SLPC  H15A21365   0.258   0.012   5.608 -0.7675 -1.9806 -2.0451
  186SLPC  H15B21366   0.349  -0.115   5.670 -0.0736  2.2016  0.5794
  186SLPC  H15C21367   0.186  -0.140   5.670  1.0497 -1.8849 -1.0097
  186SLPC   C1221368   0.264  -0.098   5.925 -0.7945 -0.2136 -0.4127
  186SLPC  H12A21369   0.355  -0.153   5.907 -1.4524 -1.5451  0.2524
  186SLPC  H12B21370   0.183  -0.169   5.917 -1.7684  0.9225 -0.9583
  186SLPC   C1121371   0.279  -0.053   6.073  0.1496  0.0418  0.1069
  186SLPC  H11A21372   0.351   0.031   6.083  0.7895 -0.2601 -1.7470
  186SLPC  H11B21373   0.319  -0.142   6.127  0.5603  0.3282  0.2819
  186SLPC     P21374   0.042  -0.093   6.201 -0.1811  0.2880  0.1685
  186SLPC   O1321375  -0.083  -0.019   6.174  0.1303 -0.0878  0.5312
  186SLPC   O1421376   0.045  -0.232   6.148 -0.5498 -0.2004 -0.7233
  186SLPC   O1221377   0.154  -0.007   6.137 -0.3586  0.2849  0.3964
  186SLPC   O1121378   0.090  -0.093   6.355 -0.3466  0.2920 -0.2537
  186SLPC    C121379   0.156   0.025   6.403  0.2609  0.3059 -0.3296
  186SLPC    HA21380   0.267   0.014   6.401  0.2779 -0.4003  2.0002
  186SLPC    HB21381   0.136   0.116   6.342 -0.8160 -0.0220 -0.4810
  186SLPC    C221382   0.125   0.071   6.550 -0.7086 -0.1934 -0.2316
  186SLPC    HS21383   0.197   0.147   6.588  0.0652  0.2274 -2.4020
  186SLPC   O2121384   0.120  -0.047   6.632  0.1446  0.5417 -0.9092
  186SLPC   C2121385   0.242  -0.100   6.662 -0.6179 -1.3070  0.0853
  186SLPC   O2221386   0.342  -0.044   6.624 -0.4100  0.1261  0.0643
  186SLPC   C2221387   0.238  -0.235   6.734 -0.0556 -0.1480 -0.2750
  186SLPC   H2R21388   0.167  -0.292   6.670 -1.3758 -0.5866  1.4956
  186SLPC   H2S21389   0.339  -0.279   6.735 -0.9395 -2.3561 -1.8708
  186SLPC    C321390  -0.018   0.137   6.547  0.8917  0.0055  0.2240
  186SLPC    HX21391  -0.084   0.064   6.496  1.9160 -0.7632 -0.0280
  186SLPC    HY21392  -0.021   0.232   6.488 -0.6348  0.8034  1.5275
  186SLPC   O3121393  -0.061   0.159   6.679  0.4518  0.0353  0.5009
  186SLPC   C3121394  -0.009   0.258   6.748 -0.3851 -0.5120  0.0744
  186SLPC   O3221395   0.073   0.338   6.705  0.2345 -0.3800  0.5111
  186SLPC   C3221396  -0.056   0.257   6.886  0.1410  0.9776 -0.2958
  186SLPC   H2X21397  -0.071   0.151   6.915 -0.7051  1.1817  0.0264
  186SLPC   H2Y21398  -0.152   0.310   6.894  0.8189  2.1406  0.3009
  186SLPC   C2321399   0.179  -0.224   6.880 -0.6112 -0.0140  0.8233
  186SLPC   H3R21400   0.174  -0.326   6.924  3.8070 -0.8539 -0.1670
  186SLPC   H3S21401   0.075  -0.185   6.871 -1.0069 -1.4134 -1.8679
  186SLPC   C2421402   0.274  -0.152   6.974  0.1380  0.0039 -0.0464
  186SLPC   H4R21403   0.321  -0.062   6.929  0.9229 -0.9263 -1.1677
  186SLPC   H4S21404   0.362  -0.217   6.995  0.1160  0.3316  1.0961
  186SLPC   C2521405   0.213  -0.120   7.113 -0.0795 -0.0138  0.0891
  186SLPC   H5R21406   0.166  -0.217   7.141 -1.0698 -0.0900 -1.6808
  186SLPC   H5S21407   0.128  -0.050   7.102  1.1200  1.6391  0.9620
  186SLPC   C2621408   0.303  -0.082   7.234 -0.3028 -0.6787  0.1676
  186SLPC   H6R21409   0.233  -0.084   7.320 -2.4734 -0.2984 -1.5030
  186SLPC   H6S21410   0.353   0.017   7.223 -0.8280 -0.6602 -3.1183
  186SLPC   C2721411   0.406  -0.194   7.254 -0.2203 -0.6184  0.4739
  186SLPC   H7R21412   0.476  -0.201   7.168  0.0900  1.3779  0.5168
  186SLPC   H7S21413   0.344  -0.286   7.256  2.9589 -2.9358  0.1596
  186SLPC   C2821414   0.499  -0.186   7.371 -0.1539 -0.1705  0.5322
  186SLPC   H8R21415   0.571  -0.102   7.357 -1.0524  0.9985  2.4071
  186SLPC   H8S21416   0.563  -0.277   7.366 -2.6383 -1.9444 -1.4268
  186SLPC   C2921417   0.433  -0.195   7.500 -0.1527  0.6986 -0.3100
  186SLPC   H9R21418   0.326  -0.171   7.492 -0.1075  1.4335  1.0929
  186SLPC  C21021419   0.476  -0.228   7.620 -0.3626  0.9780 -0.8265
  186SLPC  H10R21420   0.403  -0.217   7.701 -0.1133 -3.1593  0.1618
  186SLPC  C21121421   0.617  -0.246   7.652 -0.5162  0.5127  0.0412
  186SLPC  H11R21422   0.680  -0.227   7.562  1.3311 -0.5635  1.0470
  186SLPC  H11S21423   0.649  -0.349   7.677 -3.1709 -0.1084  1.2123
  186SLPC  C21221424   0.660  -0.147   7.757 -0.1145  0.7829 -0.2669
  186SLPC  H12R21425   0.624  -0.043   7.749  0.4188  0.9106 -1.1340
  186SLPC  C21321426   0.742  -0.159   7.861 -0.1869 -0.2640 -0.3586
  186SLPC  H13R21427   0.760  -0.073   7.926  1.6072 -2.0702  1.6625
  186SLPC  C21421428   0.815  -0.280   7.903 -0.3712  0.9252 -0.1679
  186SLPC  H14R21429   0.831  -0.337   7.809 -0.4449 -0.3260  0.5574
  186SLPC  H14S21430   0.742  -0.346   7.954 -1.7441  2.4744 -0.0551
  186SLPC  C21521431   0.942  -0.270   7.993 -0.2110 -0.5401 -0.1737
  186SLPC  H15R21432   1.013  -0.205   7.938  0.6552 -2.1878 -1.0876
  186SLPC  H15S21433   0.986  -0.372   8.003 -1.5484 -0.9668  2.1246
  186SLPC  C21621434   0.918  -0.219   8.136 -0.2703 -0.1397 -0.3284
  186SLPC  H16R21435   0.824  -0.265   8.173 -0.5435  1.6753  1.4107
  186SLPC  H16S21436   0.911  -0.108   8.133  2.4193  0.0759 -2.0769
  186SLPC  C21721437   1.029  -0.257   8.237 -0.1170 -0.1511  0.0959
  186SLPC  H17R21438   1.127  -0.235   8.190 -0.0260 -0.7061  0.0161
  186SLPC  H17S21439   1.031  -0.366   8.256  1.0871 -0.3070 -0.8111
  186SLPC  C21821440   1.002  -0.190   8.374  0.4119 -0.2108  1.1916
  186SLPC  H18R21441   0.985  -0.082   8.358 -0.0860 -0.1811  1.8782
  186SLPC  H18S21442   1.085  -0.221   8.441  0.7117 -0.3692  0.7530
  186SLPC  H18T21443   0.904  -0.220   8.417 -0.0544 -0.5448 -0.0732
  186SLPC   C3321444   0.050   0.327   6.965  0.4629  0.3096 -1.1083
  186SLPC   H3X21445   0.022   0.435   6.969  1.7289  0.6270 -0.6007
  186SLPC   H3Y21446   0.154   0.314   6.930  0.8925  0.3595  0.1171
  186SLPC   C3421447   0.043   0.283   7.116  0.2429  0.7058 -0.1003
  186SLPC   H4X21448   0.074   0.177   7.128 -0.1743  0.5563 -0.3360
  186SLPC   H4Y21449  -0.056   0.303   7.162  0.6627  3.4278 -0.2176
  186SLPC   C3521450   0.136   0.375   7.207 -0.0148  0.2888 -0.3095
  186SLPC   H5X21451   0.091   0.473   7.184 -0.9348  0.1313  0.7624
  186SLPC   H5Y21452   0.242   0.373   7.173  0.2584 -0.2881  0.5541
  186SLPC   C3621453   0.134   0.349   7.359 -0.2678  0.0238  0.5238
  186SLPC   H6X21454   0.026   0.344   7.384 -0.2495  0.4912  0.7097
  186SLPC   H6Y21455   0.180   0.435   7.413  0.1508 -0.6955  1.3281
  186SLPC   C3721456   0.216   0.224   7.402 -0.5542 -0.0694 -0.2129
  186SLPC   H7X21457   0.319   0.246   7.369  0.0373 -2.2700  0.0281
  186SLPC   H7Y21458   0.173   0.144   7.338  0.1775 -0.9213  0.3386
  186SLPC   C3821459   0.222   0.195   7.559 -0.0850  0.0573  0.1860
  186SLPC   H8X21460   0.247   0.292   7.606  0.3014 -0.5303  1.2144
  186SLPC   H8Y21461   0.291   0.114   7.590  1.6906  1.5529  0.3059
  186SLPC   C3921462   0.085   0.167   7.612  0.3088  0.5559  0.5722
  186SLPC   H9X21463   0.023   0.091   7.560  1.4424  0.7078 -1.0648
  186SLPC   H9Y21464   0.016   0.253   7.602  0.9386  1.2311  1.7837
  186SLPC  C31021465   0.091   0.133   7.765  0.4960 -0.1092  0.3961
  186SLPC  H10X21466   0.141   0.218   7.817 -1.4809  0.0412  2.1875
  186SLPC  H10Y21467   0.154   0.042   7.778 -0.1650 -0.4331  1.4491
  186SLPC  C31121468  -0.051   0.108   7.815  0.2164  0.1848 -0.4746
  186SLPC  H11X21469  -0.088   0.012   7.775 -1.6574  1.1087 -1.0613
  186SLPC  H11Y21470  -0.132   0.180   7.794 -1.0322 -0.2636  2.3644
  186SLPC  C31221471  -0.056   0.086   7.973 -0.5877 -0.3968  0.8239
  186SLPC  H12X21472  -0.076   0.182   8.026 -0.6029  0.7060 -1.0597
  186SLPC  H12Y21473   0.045   0.053   8.005  1.3498  3.0360 -1.0981
  186SLPC  C31321474  -0.166  -0.011   8.027  0.1911  0.4818 -0.5293
  186SLPC  H13X21475  -0.152  -0.111   7.981  1.7407  0.2095  0.4824
  186SLPC  H13Y21476  -0.261   0.035   7.990  0.2550 -1.4552 -3.3880
  186SLPC  C31421477  -0.157  -0.024   8.178 -0.6207  0.2139 -0.5281
  186SLPC  H14X21478  -0.169   0.081   8.215  0.2726 -0.2865  1.2762
  186SLPC  H14Y21479  -0.054  -0.047   8.210 -0.6191 -0.4429 -0.9840
  186SLPC  C31521480  -0.265  -0.115   8.241 -0.5708  0.5839  0.0708
  186SLPC  H15X21481  -0.260  -0.096   8.350  2.2003 -2.5035  0.6282
  186SLPC  H15Y21482  -0.224  -0.214   8.212  1.7865  1.4247  0.3343
  186SLPC  C31621483  -0.403  -0.083   8.183  1.2315  0.4169 -0.8707
  186SLPC  H16X21484  -0.405  -0.141   8.088  1.9938 -1.9289  0.4872
  186SLPC  H16Y21485  -0.430   0.025   8.174 -1.2429 -0.1031 -0.3974
  186SLPC  C31721486  -0.515  -0.139   8.275 -1.8200 -0.0252  0.4835
  186SLPC  H17X21487  -0.616  -0.120   8.231 -0.2568  2.2505 -2.4467
  186SLPC  H17Y21488  -0.502  -0.072   8.363 -2.0261  0.6588 -0.0002
  186SLPC  C31821489  -0.513  -0.289   8.318 -0.0427  0.2425 -0.3572
  186SLPC  H18X21490  -0.559  -0.356   8.242 -1.1753  1.2350 -0.5800
  186SLPC  H18Y21491  -0.588  -0.310   8.398  0.8184 -0.9789  0.1618
  186SLPC  H18Z21492  -0.412  -0.331   8.334 -1.3216 -2.6861  0.8460
  187SLPC     N21493   0.025   1.466   6.090  0.2528 -0.1520  0.0973
  187SLPC   C1321494  -0.118   1.494   6.087  0.0760  0.3278 -0.6487
  187SLPC  H13A21495  -0.179   1.460   6.170 -1.3901 -0.9240 -2.1805
  187SLPC  H13B21496  -0.121   1.602   6.094  3.6603  0.7157 -2.9262
  187SLPC  H13C21497  -0.166   1.465   5.995  1.8379  2.4154 -2.3242
  187SLPC   C1421498   0.105   1.555   5.991  0.6995  0.1690  0.4096
  187SLPC  H14A21499   0.108   1.658   6.023 -2.2099  1.0449 -1.7131
  187SLPC  H14B21500   0.208   1.523   5.982  0.2504 -0.8393 -2.1254
  187SLPC  H14C21501   0.064   1.548   5.891  0.6153 -0.6005  0.4934
  187SLPC   C1521502   0.050   1.323   6.034  0.0261 -0.2748 -0.6446
  187SLPC  H15A21503   0.052   1.325   5.926  1.2772  1.3863 -0.6258
  187SLPC  H15B21504   0.144   1.290   6.075  0.3489  2.0054  0.6030
  187SLPC  H15C21505  -0.021   1.247   6.063  1.5898 -2.8356 -3.0749
  187SLPC   C1221506   0.080   1.468   6.232  0.1668 -0.6912  0.9558
  187SLPC  H12A21507   0.178   1.423   6.233 -0.2495 -1.6284  0.2610
  187SLPC  H12B21508   0.018   1.394   6.280  0.2129 -1.7710 -0.5974
  187SLPC   C1121509   0.089   1.599   6.309  0.5862 -0.3071  0.5253
  187SLPC  H11A21510   0.121   1.585   6.414 -0.0388 -1.3333  0.6029
  187SLPC  H11B21511  -0.014   1.640   6.319  0.4569 -0.3379 -0.5231
  187SLPC     P21512   0.337   1.664   6.249  0.0214  0.2188  0.1911
  187SLPC   O1321513   0.366   1.531   6.203 -0.3491 -0.0801  0.4064
  187SLPC   O1421514   0.394   1.769   6.164  0.3393 -0.5031 -0.0389
  187SLPC   O1221515   0.180   1.689   6.244 -0.2752  0.0970  0.1031
  187SLPC   O1121516   0.384   1.677   6.404  0.1446  0.2371 -0.2841
  187SLPC    C121517   0.325   1.781   6.483 -0.0040 -0.4213  0.1330
  187SLPC    HA21518   0.359   1.882   6.451  2.3759 -0.9553  0.7524
  187SLPC    HB21519   0.215   1.789   6.470  0.0997  0.2918 -0.3638
  187SLPC    C221520   0.344   1.748   6.628 -0.0162  0.4830 -1.5912
  187SLPC    HS21521   0.305   1.840   6.677  2.6599  0.6371  0.4564
  187SLPC   O2121522   0.490   1.739   6.659  1.2262  0.3868  0.3589
  187SLPC   C2121523   0.525   1.781   6.778  0.1374 -0.0743  0.4064
  187SLPC   O2221524   0.448   1.805   6.870 -0.2475  0.2202  0.3746
  187SLPC   C2221525   0.674   1.804   6.782  0.6487 -0.1396  0.6763
  187SLPC   H2R21526   0.735   1.713   6.761  0.3020  0.0076 -1.2205
  187SLPC   H2S21527   0.704   1.869   6.697  0.9924  1.2760  1.8434
  187SLPC    C321528   0.276   1.612   6.664  0.3738 -0.1118 -0.3628
  187SLPC    HX21529   0.328   1.530   6.611  1.5354  1.8392 -2.3880
  187SLPC    HY21530   0.174   1.616   6.620  0.2590 -0.3866 -0.1275
  187SLPC   O3121531   0.273   1.592   6.808 -0.0230  0.4567 -0.2550
  187SLPC   C3121532   0.184   1.674   6.869 -0.1697  1.1281  0.4966
  187SLPC   O3221533   0.106   1.749   6.814 -0.1900 -0.4389  0.3815
  187SLPC   C3221534   0.181   1.640   7.022 -0.0060 -0.4861 -0.7086
  187SLPC   H2X21535   0.268   1.574   7.045  0.2194  0.6804  2.3866
  187SLPC   H2Y21536   0.093   1.573   7.033  1.9909 -3.4129 -1.2586
  187SLPC   C2321537   0.708   1.889   6.908 -0.2393 -0.3956  0.0114
  187SLPC   H3R21538   0.626   1.954   6.946  0.2824  0.8119 -0.8661
  187SLPC   H3S21539   0.796   1.952   6.881 -0.8539  0.3186 -0.3628
  187SLPC   C2421540   0.743   1.811   7.032 -0.3553  0.3948  0.6261
  187SLPC   H4R21541   0.846   1.771   7.016 -0.0564  1.4268 -0.1269
  187SLPC   H4S21542   0.667   1.732   7.046  0.3370 -0.0210  2.3227
  187SLPC   C2521543   0.743   1.903   7.158  0.4878  0.7085 -0.2160
  187SLPC   H5R21544   0.647   1.959   7.153 -0.2871 -0.6192 -0.8017
  187SLPC   H5S21545   0.826   1.977   7.161  2.0266 -0.7478 -3.0426
  187SLPC   C2621546   0.753   1.833   7.297  0.1480 -0.0032 -0.3361
  187SLPC   H6R21547   0.829   1.752   7.302  0.6326  0.4246 -0.6315
  187SLPC   H6S21548   0.657   1.780   7.316 -0.8613  1.3619 -1.3860
  187SLPC   C2721549   0.770   1.934   7.413 -0.1433 -0.0203 -0.5305
  187SLPC   H7R21550   0.673   1.978   7.446  0.3902  1.0587 -0.3681
  187SLPC   H7S21551   0.836   2.017   7.379  0.3637  0.6594  1.9532
  187SLPC   C2821552   0.830   1.861   7.534 -0.4772 -0.3433 -0.5020
  187SLPC   H8R21553   0.930   1.831   7.496  0.7193  3.0810 -0.3477
  187SLPC   H8S21554   0.774   1.766   7.551 -0.2698 -0.9875 -3.0128
  187SLPC   C2921555   0.839   1.953   7.656 -0.0155  0.0893  0.2463
  187SLPC   H9R21556   0.857   2.060   7.638  0.7037 -0.1263 -0.4027
  187SLPC  C21021557   0.805   1.911   7.781 -0.2510  0.0903 -0.5437
  187SLPC  H10R21558   0.816   1.987   7.860  0.9199 -0.5480 -0.0626
  187SLPC  C21121559   0.769   1.771   7.829  1.0440 -0.1364  0.5260
  187SLPC  H11R21560   0.689   1.730   7.763 -1.0131 -0.5973  3.1158
  187SLPC  H11S21561   0.715   1.790   7.924  1.0947 -1.2612  0.7950
  187SLPC  C21221562   0.880   1.669   7.850  0.3122 -0.1900 -0.2805
  187SLPC  H12R21563   0.944   1.658   7.762  2.7536 -0.0303  1.3937
  187SLPC  C21321564   0.907   1.585   7.956 -0.2374 -0.2566  0.4467
  187SLPC  H13R21565   1.002   1.529   7.962 -0.0223 -0.0900 -0.9918
  187SLPC  C21421566   0.838   1.588   8.093  0.7644 -0.2974  0.6320
  187SLPC  H14R21567   0.774   1.498   8.102 -0.3152  0.0408 -2.5461
  187SLPC  H14S21568   0.788   1.687   8.098  4.1537  1.8361 -2.6790
  187SLPC  C21521569   0.928   1.585   8.215  0.5121 -0.5714  0.3253
  187SLPC  H15R21570   1.010   1.660   8.220 -0.2244  0.1764  2.8293
  187SLPC  H15S21571   0.973   1.484   8.226 -1.4006 -1.3201  1.7424
  187SLPC  C21621572   0.845   1.597   8.344 -0.5020 -0.3687 -0.2911
  187SLPC  H16R21573   0.783   1.506   8.359 -1.2257  0.3250  1.1483
  187SLPC  H16S21574   0.779   1.686   8.332 -0.8040 -0.5836 -0.2421
  187SLPC  C21721575   0.936   1.617   8.470  0.7628  0.0554  0.0878
  187SLPC  H17R21576   0.994   1.711   8.457 -0.2669  1.1064  2.3810
  187SLPC  H17S21577   0.998   1.525   8.477 -0.6101 -0.8513  0.6136
  187SLPC  C21821578   0.864   1.634   8.602 -0.5250 -0.7903  0.0390
  187SLPC  H18R21579   0.937   1.660   8.682 -1.5469  0.0433  0.7315
  187SLPC  H18S21580   0.809   1.542   8.632 -2.2126  0.0186 -0.4821
  187SLPC  H18T21581   0.799   1.724   8.606  0.9134  0.4102 -1.9515
  187SLPC   C3321582   0.201   1.766   7.111 -0.0956  0.5603 -0.7515
  187SLPC   H3X21583   0.124   1.846   7.100  1.2230  1.9038 -0.5666
  187SLPC   H3Y21584   0.298   1.807   7.075 -0.5280  1.5720 -0.8051
  187SLPC   C3421585   0.219   1.723   7.262  0.8611 -0.4838 -0.4786
  187SLPC   H4X21586   0.130   1.662   7.289  0.3009  0.2702 -0.5985
  187SLPC   H4Y21587   0.214   1.820   7.316  0.2873 -0.8865  0.2164
  187SLPC   C3521588   0.355   1.662   7.309  0.3099 -0.3478 -0.6346
  187SLPC   H5X21589   0.436   1.729   7.273  0.1028  1.3278  1.7904
  187SLPC   H5Y21590   0.371   1.560   7.268 -1.2786 -0.0608 -2.1020
  187SLPC   C3621591   0.374   1.669   7.458 -0.3105 -0.1670 -0.8006
  187SLPC   H6X21592   0.353   1.772   7.494  1.7201  0.1138 -0.2418
  187SLPC   H6Y21593   0.482   1.654   7.481 -0.1977  1.0204 -0.4347
  187SLPC   C3721594   0.301   1.561   7.536 -0.5559  0.5117 -0.5178
  187SLPC   H7X21595   0.195   1.590   7.524  0.0669  3.8680  1.0043
  187SLPC   H7Y21596   0.317   1.466   7.480  1.1112  1.0282 -0.9605
  187SLPC   C3821597   0.347   1.552   7.690  1.1328 -0.2411  0.8254
  187SLPC   H8X21598   0.302   1.636   7.748  0.9435  0.1852  0.0883
  187SLPC   H8Y21599   0.457   1.540   7.685  1.1043 -0.6624  1.2325
  187SLPC   C3921600   0.283   1.426   7.748 -0.1544  0.2489 -0.2808
  187SLPC   H9X21601   0.297   1.342   7.677 -0.7659 -0.6338  0.6162
  187SLPC   H9Y21602   0.176   1.449   7.768  0.4899  2.2062  1.1944
  187SLPC  C31021603   0.346   1.383   7.883  0.2833 -0.4436 -0.2553
  187SLPC  H10X21604   0.456   1.396   7.874  0.2867  1.5357  1.6918
  187SLPC  H10Y21605   0.326   1.274   7.883 -2.5740 -0.1281 -3.9787
  187SLPC  C31121606   0.292   1.462   8.003  0.2730  0.0301 -0.2190
  187SLPC  H11X21607   0.196   1.415   8.034  0.7450 -1.2697 -0.6423
  187SLPC  H11Y21608   0.282   1.569   7.977 -0.9966 -0.4409 -1.7613
  187SLPC  C31221609   0.396   1.451   8.121 -0.5850  0.1297  0.3858
  187SLPC  H12X21610   0.494   1.490   8.086 -0.0330 -0.1977  1.5263
  187SLPC  H12Y21611   0.415   1.344   8.142  2.9177  0.6709  0.4989
  187SLPC  C31321612   0.344   1.518   8.250 -0.1315 -0.1875 -0.2476
  187SLPC  H13X21613   0.250   1.463   8.273 -0.6058  0.4978 -0.5248
  187SLPC  H13Y21614   0.321   1.626   8.241  3.8786  0.9785  1.3105
  187SLPC  C31421615   0.453   1.501   8.352  0.3443 -0.0587 -0.2393
  187SLPC  H14X21616   0.553   1.535   8.317  0.8635  0.0454  1.2807
  187SLPC  H14Y21617   0.462   1.396   8.386  1.5544 -0.1879 -0.8864
  187SLPC  C31521618   0.416   1.575   8.478 -0.3061  0.4988 -0.2176
  187SLPC  H15X21619   0.320   1.531   8.514 -2.0884  2.0418 -2.7058
  187SLPC  H15Y21620   0.403   1.685   8.472  0.9020  0.9102  2.8903
  187SLPC  C31621621   0.518   1.562   8.585 -0.0653  0.5004  0.1762
  187SLPC  H16X21622   0.615   1.604   8.549  0.4575 -0.3625  0.5511
  187SLPC  H16Y21623   0.542   1.460   8.622  1.4866  1.7167  2.8483
  187SLPC  C31721624   0.481   1.627   8.713  0.2268  0.0733 -0.6323
  187SLPC  H17X21625   0.388   1.579   8.748 -0.1918  0.0328 -1.7395
  187SLPC  H17Y21626   0.459   1.734   8.690 -2.2024  0.1142  1.4885
  187SLPC  C31821627   0.585   1.607   8.828 -0.1621 -0.3899  0.7594
  187SLPC  H18X21628   0.620   1.503   8.814  2.1200  0.3045  0.7894
  187SLPC  H18Y21629   0.537   1.626   8.926 -2.5618 -0.1921 -0.3847
  187SLPC  H18Z21630   0.666   1.680   8.805 -0.6634  0.2650  1.0202
  188SLPC     N21631   2.534   5.543   6.046  0.0822 -0.0868  0.0815
  188SLPC   C1321632   2.527   5.664   5.964  0.0271 -0.3208 -0.7192
  188SLPC  H13A21633   2.525   5.650   5.857  0.7383  3.8854 -1.4504
  188SLPC  H13B21634   2.445   5.726   5.998  0.8715  0.8855 -0.8499
  188SLPC  H13C21635   2.613   5.729   5.972 -1.4498  1.6494  0.1348
  188SLPC   C1421636   2.606   5.566   6.174  0.2926  0.1204 -0.0838
  188SLPC  H14A21637   2.634   5.476   6.227  1.9700  1.0969  0.7580
  188SLPC  H14B21638   2.699   5.620   6.176  1.3558 -1.6315 -0.5160
  188SLPC  H14C21639   2.538   5.614   6.243 -2.8191 -2.3480 -1.1745
  188SLPC   C1521640   2.614   5.444   5.969  0.2017  0.2405 -0.5028
  188SLPC  H15A21641   2.561   5.419   5.878 -1.2329 -0.2459  0.4512
  188SLPC  H15B21642   2.713   5.483   5.951  0.1045 -0.5933 -3.3805
  188SLPC  H15C21643   2.628   5.357   6.030  0.1948  0.5273 -0.0865
  188SLPC   C1221644   2.391   5.488   6.062  0.2345 -0.2936 -0.3790
  188SLPC  H12A21645   2.340   5.488   5.966  0.0775  0.9357 -0.3198
  188SLPC  H12B21646   2.335   5.559   6.122  0.1737 -0.1103 -0.6497
  188SLPC   C1121647   2.367   5.352   6.134  0.9607 -0.0191  0.1302
  188SLPC  H11A21648   2.425   5.271   6.085 -0.9480 -0.7351 -1.0958
  188SLPC  H11B21649   2.263   5.329   6.102  1.4920 -2.0721 -0.2660
  188SLPC     P21650   2.288   5.369   6.382  0.1910  0.0845  0.1608
  188SLPC   O1321651   2.196   5.486   6.377  0.1475  0.3312  0.1700
  188SLPC   O1421652   2.222   5.237   6.390  0.4113  0.7580 -0.2605
  188SLPC   O1221653   2.397   5.366   6.271 -0.6022  0.0607  0.0746
  188SLPC   O1121654   2.360   5.382   6.516  0.1515 -0.3948 -0.0216
  188SLPC    C121655   2.500   5.356   6.521 -0.0156 -0.6974 -0.7013
  188SLPC    HA21656   2.524   5.251   6.493 -0.2653 -1.2556  1.0316
  188SLPC    HB21657   2.547   5.429   6.452  0.7195  2.2162  2.5792
  188SLPC    C221658   2.561   5.394   6.663 -0.5350 -0.7803 -0.3876
  188SLPC    HS21659   2.671   5.383   6.658 -0.1918  2.1433 -0.8616
  188SLPC   O2121660   2.503   5.313   6.770 -0.3276 -0.6588  0.3547
  188SLPC   C2121661   2.544   5.189   6.778  0.0974  1.0898 -0.1459
  188SLPC   O2221662   2.630   5.127   6.726  0.2198  0.0938  0.0324
  188SLPC   C2221663   2.447   5.117   6.872 -0.6276 -0.0065 -0.1923
  188SLPC   H2R21664   2.485   5.155   6.969 -0.8333 -2.4909  0.9165
  188SLPC   H2S21665   2.342   5.152   6.858 -0.3813  1.2957  1.0585
  188SLPC    C321666   2.536   5.543   6.693  0.6678  0.6731 -0.0024
  188SLPC    HX21667   2.426   5.558   6.692  0.3836 -1.1201 -1.1041
  188SLPC    HY21668   2.582   5.607   6.615  0.8860 -0.7654 -1.1050
  188SLPC   O3121669   2.584   5.582   6.820 -0.1730  0.2868  0.3211
  188SLPC   C3121670   2.496   5.552   6.922 -0.7499  0.5422  0.0336
  188SLPC   O3221671   2.383   5.508   6.914 -0.1474 -0.0732 -0.6732
  188SLPC   C3221672   2.574   5.586   7.050 -0.9956  0.3605 -0.0632
  188SLPC   H2X21673   2.572   5.697   7.051 -1.7352  0.3561 -0.4900
  188SLPC   H2Y21674   2.681   5.560   7.033 -0.7356  1.2010  0.2655
  188SLPC   C2321675   2.452   4.968   6.863 -0.0454 -0.9269 -0.4142
  188SLPC   H3R21676   2.554   4.934   6.889  1.1802  2.4380 -0.3013
  188SLPC   H3S21677   2.438   4.945   6.756  0.3690  0.1767 -0.7190
  188SLPC   C2421678   2.330   4.907   6.937 -0.2693 -0.0461 -0.3428
  188SLPC   H4R21679   2.340   4.798   6.923  1.0189 -0.0859  0.7167
  188SLPC   H4S21680   2.242   4.937   6.876 -1.7526 -1.4930  0.9955
  188SLPC   C2521681   2.324   4.963   7.080  0.1650  0.2034  0.5346
  188SLPC   H5R21682   2.333   5.073   7.086  1.1863  0.1444  0.2019
  188SLPC   H5S21683   2.413   4.929   7.136  0.3462  0.6950  0.5501
  188SLPC   C2621684   2.194   4.933   7.165 -0.4420  0.6399  0.6738
  188SLPC   H6R21685   2.166   4.829   7.137  1.8430  0.0144  0.5186
  188SLPC   H6S21686   2.117   5.011   7.149 -0.5929  0.9523  2.6639
  188SLPC   C2721687   2.214   4.915   7.312  0.3338 -0.3069 -0.1803
  188SLPC   H7R21688   2.297   4.846   7.338 -0.4798 -0.0096  3.9198
  188SLPC   H7S21689   2.117   4.875   7.348 -0.9967  2.7065 -0.0880
  188SLPC   C2821690   2.231   5.048   7.394 -0.4080 -1.3336  0.3996
  188SLPC   H8R21691   2.310   5.110   7.347 -3.6023  2.9759 -0.0229
  188SLPC   H8S21692   2.276   5.024   7.492 -1.2352 -1.0741  0.8581
  188SLPC   C2921693   2.103   5.126   7.391 -0.5901 -0.8499  0.8429
  188SLPC   H9R21694   2.093   5.196   7.307  2.2957  1.6900  2.3885
  188SLPC  C21021695   2.009   5.128   7.485  0.4273  0.6924 -0.2054
  188SLPC  H10R21696   1.917   5.186   7.472 -1.0311 -1.5873 -0.6183
  188SLPC  C21121697   2.026   5.048   7.618 -0.0408  0.7624 -0.4043
  188SLPC  H11R21698   2.115   5.092   7.668  0.6894 -1.6180  0.5305
  188SLPC  H11S21699   2.066   4.946   7.603 -1.9586 -0.3563  1.5409
  188SLPC  C21221700   1.911   5.034   7.711  0.7315 -0.2564  0.4311
  188SLPC  H12R21701   1.894   4.927   7.731  0.5179  0.2485  3.3629
  188SLPC  C21321702   1.838   5.124   7.786 -0.0408 -0.0935 -0.2546
  188SLPC  H13R21703   1.762   5.094   7.859  0.2473  1.7197  0.8543
  188SLPC  C21421704   1.866   5.271   7.773 -0.6277  0.3571 -0.1278
  188SLPC  H14R21705   1.795   5.324   7.706  0.9855  2.3225 -0.3659
  188SLPC  H14S21706   1.962   5.288   7.719 -0.5280  2.8190  0.6815
  188SLPC  C21521707   1.873   5.349   7.904  0.0228 -0.3066  0.7279
  188SLPC  H15R21708   1.914   5.452   7.896 -0.9168  0.0497  0.3629
  188SLPC  H15S21709   1.946   5.303   7.974 -1.0693 -1.0778  1.3893
  188SLPC  C21621710   1.736   5.377   7.972  0.1357 -0.3534 -0.6651
  188SLPC  H16R21711   1.673   5.285   7.970 -0.1964 -0.2343  1.8522
  188SLPC  H16S21712   1.683   5.450   7.906 -1.9790 -1.9326 -0.8472
  188SLPC  C21721713   1.739   5.436   8.117  0.6343  0.0821  1.0884
  188SLPC  H17R21714   1.804   5.366   8.173 -0.1053 -3.0438 -1.6785
  188SLPC  H17S21715   1.643   5.426   8.172 -2.1023  1.2047 -3.0372
  188SLPC  C21821716   1.801   5.577   8.120  0.5604 -0.5638 -0.3935
  188SLPC  H18R21717   1.779   5.628   8.217 -0.3026 -0.5634 -0.5740
  188SLPC  H18S21718   1.764   5.641   8.036 -3.1748 -1.1791  0.5934
  188SLPC  H18T21719   1.911   5.569   8.116  0.6115  0.2211 -0.8501
  188SLPC   C3321720   2.511   5.524   7.176 -0.2415  0.3718 -0.0096
  188SLPC   H3X21721   2.516   5.414   7.162  1.0980  0.5023 -0.6851
  188SLPC   H3Y21722   2.404   5.552   7.190 -0.6985 -0.9359 -0.7579
  188SLPC   C3421723   2.582   5.561   7.314 -0.0315 -0.5266  0.0266
  188SLPC   H4X21724   2.683   5.515   7.325 -0.4245 -1.3463  0.3169
  188SLPC   H4Y21725   2.528   5.503   7.392  0.3642 -1.5846 -0.4691
  188SLPC   C3521726   2.574   5.713   7.340 -0.2468  0.2203  0.2679
  188SLPC   H5X21727   2.481   5.752   7.294 -0.0072  0.5423  0.0564
  188SLPC   H5Y21728   2.668   5.762   7.306 -0.2671  0.5288  0.6484
  188SLPC   C3621729   2.575   5.745   7.487  0.5278 -0.1377  0.1387
  188SLPC   H6X21730   2.504   5.671   7.531  2.1469 -2.5054 -0.9986
  188SLPC   H6Y21731   2.535   5.846   7.507 -1.5604 -0.9584  0.3441
  188SLPC   C3721732   2.719   5.723   7.548  0.5179  0.2858  0.4944
  188SLPC   H7X21733   2.800   5.769   7.488 -0.2185  1.5552  0.4228
  188SLPC   H7Y21734   2.744   5.615   7.545  3.3261  0.6809 -5.3955
  188SLPC   C3821735   2.721   5.783   7.697  0.3776  0.0935  0.0952
  188SLPC   H8X21736   2.814   5.748   7.747  0.4274  1.8369  1.3130
  188SLPC   H8Y21737   2.632   5.746   7.752 -0.0752 -0.8882 -1.2416
  188SLPC   C3921738   2.715   5.941   7.704 -0.3262  0.6291  0.3696
  188SLPC   H9X21739   2.611   5.962   7.671 -0.2389  0.0359 -0.2927
  188SLPC   H9Y21740   2.772   5.985   7.619  0.2533 -0.3728  0.2253
  188SLPC  C31021741   2.747   6.002   7.837  0.4565  0.3585 -0.4966
  188SLPC  H10X21742   2.851   5.968   7.858  0.0895  0.4590  1.7530
  188SLPC  H10Y21743   2.678   5.959   7.913  0.8519  0.4117 -0.1002
  188SLPC  C31121744   2.728   6.155   7.845  0.2711 -0.1147  0.1907
  188SLPC  H11X21745   2.626   6.179   7.882  1.4659  0.7286  3.2453
  188SLPC  H11Y21746   2.752   6.196   7.745  0.1119  0.2291  0.2918
  188SLPC  C31221747   2.827   6.221   7.942  0.5390  0.0709  0.0364
  188SLPC  H12X21748   2.808   6.179   8.044 -1.2765 -1.3498 -0.8363
  188SLPC  H12Y21749   2.809   6.330   7.940  0.5851  0.0655 -1.2861
  188SLPC  C31321750   2.972   6.211   7.907  0.0830  0.5626 -0.5762
  188SLPC  H13X21751   2.984   6.207   7.796  0.7312  1.0286 -0.5304
  188SLPC  H13Y21752   3.022   6.125   7.956 -0.8616  0.3206 -0.0154
  188SLPC  C31421753   3.059   6.331   7.949  0.1120  0.2172 -0.2408
  188SLPC  H14X21754   3.043   6.320   8.059  1.9633 -3.5358 -0.1723
  188SLPC  H14Y21755   3.025   6.430   7.912 -0.4768 -0.1256 -0.6359
  188SLPC  C31521756   3.206   6.304   7.928 -0.4315  0.5324  0.5830
  188SLPC  H15X21757   3.242   6.199   7.923  1.1187  0.9843  1.5847
  188SLPC  H15Y21758   3.248   6.344   8.023 -1.5320  0.8686  0.9423
  188SLPC  C31621759   3.259   6.383   7.800 -0.8517 -0.1125 -0.7704
  188SLPC  H16X21760   3.179   6.359   7.728 -0.1722 -1.8099 -1.0235
  188SLPC  H16Y21761   3.357   6.347   7.763 -1.0424 -2.1246  0.4874
  188SLPC  C31721762   3.252   6.534   7.827 -0.2366 -0.0406  0.1974
  188SLPC  H17X21763   3.356   6.567   7.842 -0.3950  0.5426  0.0343
  188SLPC  H17Y21764   3.197   6.558   7.920  0.3008 -1.0354  0.7872
  188SLPC  C31821765   3.183   6.611   7.716 -0.3646 -0.8164 -0.0592
  188SLPC  H18X21766   3.138   6.704   7.757 -0.7101 -1.2144  0.4864
  188SLPC  H18Y21767   3.094   6.560   7.672 -0.7439 -1.2899  1.2046
  188SLPC  H18Z21768   3.257   6.637   7.638 -0.2680  0.4479  0.4407
  189SLPC     N21769   4.287   3.982   6.044 -0.4425 -0.2707  0.0454
  189SLPC   C1321770   4.270   4.065   5.924  0.3436  0.6748  0.0827
  189SLPC  H13A21771   4.359   4.124   5.907  0.0272  1.5549  1.4314
  189SLPC  H13B21772   4.238   4.001   5.843 -0.4735 -0.7139  1.4499
  189SLPC  H13C21773   4.195   4.138   5.948  2.9260  3.0534  1.4941
  189SLPC   C1421774   4.409   3.897   6.008 -0.5614  0.6719 -0.5372
  189SLPC  H14A21775   4.394   3.846   5.914 -0.0918 -0.2936 -0.1020
  189SLPC  H14B21776   4.502   3.951   6.019 -1.4492  2.2205 -0.3902
  189SLPC  H14C21777   4.412   3.813   6.076  0.5217  1.2983  0.2130
  189SLPC   C1521778   4.166   3.892   6.071  0.2521 -0.0023 -0.5595
  189SLPC  H15A21779   4.184   3.833   6.159  1.1388 -0.6008 -1.1268
  189SLPC  H15B21780   4.068   3.936   6.067 -0.7354 -1.9079  1.2283
  189SLPC  H15C21781   4.152   3.817   5.995 -0.0322  0.7725 -1.2976
  189SLPC   C1221782   4.325   4.054   6.168  0.0148  0.2384 -1.1001
  189SLPC  H12A21783   4.416   4.110   6.153 -0.0641  0.5075 -0.5794
  189SLPC  H12B21784   4.348   3.986   6.249  0.4060  2.0248  0.3367
  189SLPC   C1121785   4.220   4.160   6.220 -0.4356  0.2004  0.3313
  189SLPC  H11A21786   4.241   4.175   6.328 -0.2380 -3.0493  0.8372
  189SLPC  H11B21787   4.119   4.115   6.221 -0.3619  0.0213 -0.3179
  189SLPC     P21788   4.341   4.380   6.150  0.2277 -0.3783  0.2446
  189SLPC   O1321789   4.468   4.317   6.109 -0.3126  0.3406  0.1296
  189SLPC   O1421790   4.304   4.505   6.074  0.4212 -0.4728  0.4506
  189SLPC   O1221791   4.218   4.280   6.142  0.5912 -0.8038 -0.1516
  189SLPC   O1121792   4.347   4.421   6.299  1.0647  0.3747  0.5640
  189SLPC    C121793   4.380   4.553   6.349 -0.1714  0.4322 -0.6126
  189SLPC    HA21794   4.330   4.626   6.281  1.5112  2.0576 -0.1743
  189SLPC    HB21795   4.329   4.574   6.446 -0.9339 -0.3865 -0.8208
  189SLPC    C221796   4.530   4.599   6.343  0.6097  0.0029 -0.0127
  189SLPC    HS21797   4.574   4.557   6.250  2.4490 -2.6590  1.9004
  189SLPC   O2121798   4.587   4.537   6.461 -0.4409 -0.6952  0.2366
  189SLPC   C2121799   4.715   4.535   6.458 -0.4280  0.1797 -0.2871
  189SLPC   O2221800   4.789   4.584   6.375  0.0713 -0.4463 -0.6992
  189SLPC   C2221801   4.769   4.458   6.586 -0.2734  0.5964 -0.4144
  189SLPC   H2R21802   4.858   4.404   6.546 -0.1177  2.0953 -2.2197
  189SLPC   H2S21803   4.802   4.530   6.664 -1.1523 -0.1438  0.6700
  189SLPC    C321804   4.531   4.754   6.361  0.2415 -0.0527 -0.3759
  189SLPC    HX21805   4.492   4.793   6.265 -0.9523 -0.1713  0.0484
  189SLPC    HY21806   4.638   4.785   6.365  0.2553  0.0508  4.3208
  189SLPC   O3121807   4.463   4.801   6.480 -0.3716 -0.4623 -0.0809
  189SLPC   C3121808   4.527   4.847   6.587  0.1132 -0.1730 -1.0438
  189SLPC   O3221809   4.645   4.868   6.587 -0.3778 -0.4984 -0.2055
  189SLPC   C3221810   4.421   4.884   6.693 -0.2369  0.3233 -0.1782
  189SLPC   H2X21811   4.331   4.831   6.656  0.9720 -1.7217 -0.3486
  189SLPC   H2Y21812   4.399   4.993   6.695  1.1951  0.6292  0.2140
  189SLPC   C2321813   4.672   4.350   6.640  0.1594 -0.1701  0.4239
  189SLPC   H3R21814   4.678   4.261   6.574  2.9270 -0.0204  0.3647
  189SLPC   H3S21815   4.566   4.383   6.637 -0.2089 -1.1632  1.8730
  189SLPC   C2421816   4.728   4.301   6.772 -0.4455  0.0983  0.1369
  189SLPC   H4R21817   4.717   4.382   6.847 -3.0022  1.9340 -2.0717
  189SLPC   H4S21818   4.833   4.264   6.768 -0.7471 -0.9057  0.9337
  189SLPC   C2521819   4.641   4.179   6.814  0.0390 -0.1399 -0.4129
  189SLPC   H5R21820   4.661   4.096   6.743 -0.4902 -0.5167 -0.1295
  189SLPC   H5S21821   4.533   4.204   6.812  0.2574  0.7934 -1.1161
  189SLPC   C2621822   4.668   4.132   6.954 -0.5937  0.2400  0.8175
  189SLPC   H6R21823   4.596   4.051   6.979 -2.1669  0.6877 -1.8749
  189SLPC   H6S21824   4.644   4.220   7.018 -0.2942  0.3855  0.7317
  189SLPC   C2721825   4.813   4.086   6.975  0.2017  0.1060  0.6487
  189SLPC   H7R21826   4.890   4.151   6.927 -0.7018  0.1057 -0.8540
  189SLPC   H7S21827   4.830   3.993   6.916  2.3368 -0.0099  1.3372
  189SLPC   C2821828   4.834   4.083   7.128 -0.3179  0.0667  0.5088
  189SLPC   H8R21829   4.773   3.993   7.149 -0.5652  0.0149 -0.3749
  189SLPC   H8S21830   4.787   4.171   7.178 -1.6369 -0.4747  0.2599
  189SLPC   C2921831   4.985   4.063   7.141  0.2869  0.1775  0.1125
  189SLPC   H9R21832   5.017   3.987   7.069  2.3634  0.6758  0.4575
  189SLPC  C21021833   5.070   4.131   7.222 -0.5245 -0.4707  0.7910
  189SLPC  H10R21834   5.179   4.118   7.218 -0.1988  1.9591 -0.6281
  189SLPC  C21121835   5.022   4.245   7.311  0.1167 -0.5357  0.3569
  189SLPC  H11R21836   4.982   4.194   7.402 -0.9394  0.8363  0.7024
  189SLPC  H11S21837   4.947   4.298   7.249 -0.0341 -2.0185 -0.7727
  189SLPC  C21221838   5.131   4.344   7.353  0.3348  0.2766  0.3959
  189SLPC  H12R21839   5.139   4.436   7.292  0.8804 -0.3776 -0.5341
  189SLPC  C21321840   5.223   4.329   7.452 -0.3331  0.5301  0.8262
  189SLPC  H13R21841   5.294   4.409   7.477  1.6680 -1.6675  2.6442
  189SLPC  C21421842   5.251   4.204   7.532 -0.3659  0.6230  0.6024
  189SLPC  H14R21843   5.361   4.191   7.545 -0.3829  1.0530  1.2622
  189SLPC  H14S21844   5.217   4.114   7.477  0.4584  1.7065 -1.7987
  189SLPC  C21521845   5.170   4.222   7.668 -0.5963 -0.7186 -0.0475
  189SLPC  H15R21846   5.166   4.117   7.703  0.3040 -1.7634 -2.8527
  189SLPC  H15S21847   5.062   4.244   7.651 -0.4950 -0.6987 -0.6622
  189SLPC  C21621848   5.239   4.312   7.769 -0.2433  0.5359  0.2781
  189SLPC  H16R21849   5.223   4.417   7.737 -2.2905  1.4079  3.7003
  189SLPC  H16S21850   5.347   4.289   7.780 -0.6646 -1.4220  0.8152
  189SLPC  C21721851   5.184   4.294   7.908 -0.4172 -0.2457  0.2045
  189SLPC  H17R21852   5.075   4.314   7.918 -0.2687  0.9914 -0.4532
  189SLPC  H17S21853   5.236   4.377   7.960  0.8973  0.0354 -1.4581
  189SLPC  C21821854   5.216   4.165   7.979  0.6123  0.2035 -0.2483
  189SLPC  H18R21855   5.320   4.132   7.957  0.1881  0.4651 -3.1149
  189SLPC  H18S21856   5.152   4.087   7.933 -0.5154  1.0256 -0.0994
  189SLPC  H18T21857   5.204   4.168   8.089  1.4995 -1.6718 -0.0587
  189SLPC   C3321858   4.450   4.835   6.831  0.1798 -0.0360  0.1182
  189SLPC   H3X21859   4.528   4.901   6.873  1.5566  0.6866 -3.2717
  189SLPC   H3Y21860   4.507   4.740   6.827 -0.2531 -0.2639 -1.7197
  189SLPC   C3421861   4.325   4.821   6.916  0.5369  0.2034 -0.2564
  189SLPC   H4X21862   4.257   4.761   6.852  0.3231 -1.6252  1.5871
  189SLPC   H4Y21863   4.274   4.917   6.939 -0.0621  0.2851 -1.8387
  189SLPC   C3521864   4.353   4.743   7.046  0.5895  0.0996  0.1270
  189SLPC   H5X21865   4.414   4.814   7.106 -0.7904  2.2676 -0.8999
  189SLPC   H5Y21866   4.419   4.656   7.026  0.0059 -0.3854  0.3260
  189SLPC   C3621867   4.228   4.706   7.122  0.5915  0.2976 -0.5083
  189SLPC   H6X21868   4.164   4.635   7.066  1.3064 -1.4646  0.8165
  189SLPC   H6Y21869   4.166   4.794   7.146 -2.1235 -1.0622 -2.0953
  189SLPC   C3721870   4.257   4.639   7.258 -0.3250 -0.4518 -0.0017
  189SLPC   H7X21871   4.317   4.716   7.311 -0.1410 -1.2999  1.0638
  189SLPC   H7Y21872   4.315   4.544   7.251 -1.4689 -1.0879 -1.2233
  189SLPC   C3821873   4.130   4.603   7.333  0.7714 -0.4133 -0.4910
  189SLPC   H8X21874   4.144   4.494   7.347 -0.9476 -0.7734 -1.2416
  189SLPC   H8Y21875   4.034   4.603   7.276  0.3341 -2.5764  0.1417
  189SLPC   C3921876   4.104   4.680   7.464  0.3092 -0.8869 -0.5035
  189SLPC   H9X21877   4.092   4.788   7.446 -0.5895 -0.6385  1.3716
  189SLPC   H9Y21878   4.185   4.667   7.539 -1.8123 -0.5886  1.9430
  189SLPC  C31021879   3.978   4.650   7.542 -0.1793 -0.1744 -1.1426
  189SLPC  H10X21880   3.991   4.560   7.606 -0.9823  0.0188 -0.7006
  189SLPC  H10Y21881   3.898   4.622   7.469  0.9213 -1.7095 -1.8178
  189SLPC  C31121882   3.940   4.772   7.638  0.3473  0.0821 -0.7270
  189SLPC  H11X21883   3.917   4.860   7.575 -3.6067 -1.3120 -1.5270
  189SLPC  H11Y21884   4.018   4.785   7.716  0.3266  0.7634 -0.8200
  189SLPC  C31221885   3.820   4.735   7.722  0.2710  0.2128 -0.5934
  189SLPC  H12X21886   3.832   4.632   7.763  2.0864  0.5923 -0.0977
  189SLPC  H12Y21887   3.729   4.748   7.659 -1.2301 -0.2539  1.3771
  189SLPC  C31321888   3.790   4.833   7.839 -0.0944 -0.1738  0.3105
  189SLPC  H13X21889   3.782   4.937   7.800 -0.2179 -0.0418  0.6834
  189SLPC  H13Y21890   3.886   4.827   7.895  1.1060  1.9680 -1.3667
  189SLPC  C31421891   3.663   4.795   7.924  0.1082 -0.3129 -0.4333
  189SLPC  H14X21892   3.671   4.844   8.023 -0.5536 -2.2389  0.6403
  189SLPC  H14Y21893   3.675   4.687   7.948 -3.2812 -0.1935  2.6834
  189SLPC  C31521894   3.534   4.829   7.850  0.1688  0.0085  0.3793
  189SLPC  H15X21895   3.496   4.755   7.776 -2.7069  1.2804  0.4474
  189SLPC  H15Y21896   3.562   4.920   7.792 -2.0156 -1.1866 -2.7935
  189SLPC  C31621897   3.407   4.877   7.941 -0.2590 -0.3509 -0.7211
  189SLPC  H16X21898   3.338   4.925   7.868  1.1862  0.5664 -1.5198
  189SLPC  H16Y21899   3.459   4.949   8.007 -1.3310 -0.3524  0.1696
  189SLPC  C31721900   3.350   4.758   8.022 -0.2718  0.7676 -0.8294
  189SLPC  H17X21901   3.311   4.802   8.116  4.3551 -0.1111  1.7918
  189SLPC  H17Y21902   3.427   4.680   8.039 -0.0365  1.1882  0.0963
  189SLPC  C31821903   3.237   4.677   7.950  0.1193 -0.4000 -0.5412
  189SLPC  H18X21904   3.188   4.600   8.012  1.5503  1.2371  2.8983
  189SLPC  H18Y21905   3.279   4.637   7.855  2.8860  2.3362 -0.6336
  189SLPC  H18Z21906   3.164   4.755   7.921  0.2569 -0.2953 -0.6130
  190SLPC     N21907   4.789   5.763   6.055 -0.2827 -0.6530 -0.1612
  190SLPC   C1321908   4.715   5.824   5.943  0.2165  0.1562  0.1584
  190SLPC  H13A21909   4.650   5.754   5.893 -3.2605  3.0990  0.2391
  190SLPC  H13B21910   4.663   5.915   5.966  1.7095  0.8663  0.8971
  190SLPC  H13C21911   4.785   5.842   5.863  1.0485 -0.9189  0.5994
  190SLPC   C1421912   4.874   5.863   6.127  0.2350 -0.2330  0.2598
  190SLPC  H14A21913   4.914   5.810   6.212 -1.2297 -0.2751  0.9510
  190SLPC  H14B21914   4.959   5.888   6.066  0.7376 -3.8913 -0.7722
  190SLPC  H14C21915   4.815   5.944   6.167  0.2018 -0.0355 -0.1845
  190SLPC   C1521916   4.885   5.658   6.011  0.0838  0.1620  0.5003
  190SLPC  H15A21917   4.932   5.614   6.098 -1.5495  0.4484  1.5893
  190SLPC  H15B21918   4.847   5.573   5.956  1.5661 -0.1304 -0.1171
  190SLPC  H15C21919   4.957   5.700   5.943  1.3923  0.7923  2.1965
  190SLPC   C1221920   4.684   5.712   6.152  0.5046  0.4912  0.6475
  190SLPC  H12A21921   4.614   5.658   6.089  0.9151  1.5088 -0.7311
  190SLPC  H12B21922   4.627   5.796   6.186 -1.1078 -0.5385  0.6039
  190SLPC   C1121923   4.718   5.617   6.266 -0.0954 -0.1049  0.3532
  190SLPC  H11A21924   4.697   5.516   6.226  0.8517 -0.6395  1.1640
  190SLPC  H11B21925   4.650   5.637   6.351 -1.2738  2.5770 -1.0927
  190SLPC     P21926   4.939   5.517   6.362  0.1069  0.0442  0.0996
  190SLPC   O1321927   4.876   5.397   6.302 -0.3496 -0.2590 -0.5283
  190SLPC   O1421928   5.088   5.534   6.348  0.0046  0.4156 -0.3961
  190SLPC   O1221929   4.860   5.638   6.312  0.5391  0.3452 -0.2117
  190SLPC   O1121930   4.902   5.520   6.515  0.2785 -0.6814  0.9411
  190SLPC    C121931   4.877   5.397   6.578 -0.4580  0.0127  0.2106
  190SLPC    HA21932   4.910   5.304   6.527 -0.2222 -0.1944  0.7324
  190SLPC    HB21933   4.924   5.396   6.679  0.1180  0.5549 -0.0453
  190SLPC    C221934   4.721   5.386   6.594  0.0632 -0.3056 -0.4729
  190SLPC    HS21935   4.683   5.431   6.500 -0.0366  3.2085  1.0957
  190SLPC   O2121936   4.682   5.460   6.711 -0.2760 -0.1013 -0.0297
  190SLPC   C2121937   4.555   5.505   6.713 -0.8856  0.0577 -0.1826
  190SLPC   O2221938   4.476   5.498   6.627  0.5916 -0.0944  0.0254
  190SLPC   C2221939   4.538   5.565   6.858 -0.7535 -0.1538 -0.7425
  190SLPC   H2R21940   4.593   5.661   6.859  0.2940 -0.7349 -0.2135
  190SLPC   H2S21941   4.430   5.590   6.861 -0.6311  0.3270  0.1005
  190SLPC    C321942   4.685   5.238   6.599 -0.0487  0.2973  0.0017
  190SLPC    HX21943   4.712   5.191   6.502 -3.6219  1.3760 -1.7231
  190SLPC    HY21944   4.574   5.234   6.586 -0.1129  0.0343  0.6012
  190SLPC   O3121945   4.742   5.175   6.713 -0.3012  0.6807  0.1173
  190SLPC   C3121946   4.664   5.153   6.817 -0.0644  0.3208 -0.2141
  190SLPC   O3221947   4.542   5.170   6.818  0.0272 -0.6573  0.0536
  190SLPC   C3221948   4.749   5.127   6.949 -0.2289 -0.1767 -0.0670
  190SLPC   H2X21949   4.797   5.226   6.966  0.6938 -0.8162  1.1742
  190SLPC   H2Y21950   4.838   5.065   6.926  0.3825  0.7276 -0.1893
  190SLPC   C2321951   4.578   5.472   6.981 -0.0761 -0.8136  0.0378
  190SLPC   H3R21952   4.684   5.438   6.974  0.7233  0.1388  4.4532
  190SLPC   H3S21953   4.508   5.386   6.980 -0.5669 -0.4066 -1.2050
  190SLPC   C2421954   4.569   5.545   7.116  0.2111 -0.0355  0.6906
  190SLPC   H4R21955   4.499   5.630   7.125  0.0492 -0.1749  0.7598
  190SLPC   H4S21956   4.672   5.584   7.135 -0.0769  0.3466  1.4817
  190SLPC   C2521957   4.535   5.432   7.210 -0.0342  0.1866  0.5218
  190SLPC   H5R21958   4.586   5.344   7.164 -0.0778  0.4491 -0.0409
  190SLPC   H5S21959   4.428   5.406   7.201  0.2303 -0.9120  0.3945
  190SLPC   C2621960   4.573   5.454   7.350 -0.0392  0.6990 -0.2512
  190SLPC   H6R21961   4.674   5.500   7.355  0.0997  0.2990  2.3711
  190SLPC   H6S21962   4.584   5.354   7.397  0.3473  0.2395 -1.3103
  190SLPC   C2721963   4.484   5.556   7.419 -0.2716  0.4047  0.3705
  190SLPC   H7R21964   4.376   5.540   7.399  0.2434 -4.4402  0.2833
  190SLPC   H7S21965   4.506   5.661   7.391 -1.1367  0.4386 -0.2286
  190SLPC   C2821966   4.496   5.555   7.574  0.7697 -0.0432 -0.5723
  190SLPC   H8R21967   4.432   5.632   7.621 -2.5702 -1.9439 -1.6713
  190SLPC   H8S21968   4.604   5.570   7.597  1.1475 -2.8241 -0.1736
  190SLPC   C2921969   4.445   5.429   7.624  0.5765  0.2551 -0.9792
  190SLPC   H9R21970   4.366   5.386   7.561 -1.4913  0.6604  1.1909
  190SLPC  C21021971   4.483   5.370   7.741  0.0739  0.2073 -0.1962
  190SLPC  H10R21972   4.441   5.274   7.773  2.4065  0.4024  4.0815
  190SLPC  C21121973   4.584   5.426   7.843  0.4332  0.2602 -0.5128
  190SLPC  H11R21974   4.649   5.510   7.811  0.7834 -0.2251 -1.1011
  190SLPC  H11S21975   4.650   5.342   7.872 -0.8905 -0.7800 -0.4245
  190SLPC  C21221976   4.501   5.493   7.950  0.1089  0.4339 -0.0038
  190SLPC  H12R21977   4.418   5.556   7.915 -1.7524 -0.5907  2.2679
  190SLPC  C21321978   4.513   5.488   8.092  0.0250 -0.5354  0.5219
  190SLPC  H13R21979   4.447   5.548   8.156 -0.8415 -0.7271 -0.1602
  190SLPC  C21421980   4.629   5.420   8.149 -0.6475  0.7471  1.0659
  190SLPC  H14R21981   4.682   5.489   8.218  2.7990 -1.2363  0.6499
  190SLPC  H14S21982   4.705   5.386   8.075 -1.2377  1.9456 -0.1355
  190SLPC  C21521983   4.588   5.290   8.215 -0.2651  0.1774 -0.4042
  190SLPC  H15R21984   4.523   5.223   8.156 -0.3765 -0.8845  0.8781
  190SLPC  H15S21985   4.526   5.324   8.302  1.0702 -0.7414  0.9614
  190SLPC  C21621986   4.714   5.207   8.262 -0.4254  0.2429 -0.2356
  190SLPC  H16R21987   4.775   5.181   8.173  1.4673  0.5244  0.9146
  190SLPC  H16S21988   4.678   5.109   8.302  2.1023 -0.2310  1.0754
  190SLPC  C21721989   4.802   5.289   8.360 -0.1104  0.5575  0.0950
  190SLPC  H17R21990   4.842   5.374   8.301 -0.7671 -0.7752 -2.4165
  190SLPC  H17S21991   4.882   5.217   8.386 -1.1242 -0.6764 -0.0646
  190SLPC  C21821992   4.723   5.346   8.486 -0.0943  0.4696  0.0670
  190SLPC  H18R21993   4.636   5.284   8.516  0.1830  0.2304  0.3812
  190SLPC  H18S21994   4.678   5.445   8.464 -1.5796  0.0127  0.8899
  190SLPC  H18T21995   4.792   5.365   8.571 -3.0542 -1.3418  3.1257
  190SLPC   C3321996   4.674   5.082   7.074 -0.7823 -0.5505  0.6365
  190SLPC   H3X21997   4.624   4.985   7.054  1.1545 -1.6114  0.7624
  190SLPC   H3Y21998   4.591   5.155   7.083  0.1973  0.4401  2.0287
  190SLPC   C3421999   4.771   5.084   7.188 -0.3709 -0.3418  0.0288
  190SLPC   H4X22000   4.809   5.187   7.202  1.9685 -1.1414  0.0282
  190SLPC   H4Y22001   4.859   5.017   7.174  0.9848  1.2511  0.5535
  190SLPC   C3522002   4.700   5.040   7.313 -0.3784 -0.0954 -0.1479
  190SLPC   H5X22003   4.668   4.936   7.288 -0.4612  0.3447 -2.0076
  190SLPC   H5Y22004   4.616   5.109   7.336  0.2766  0.3049  1.1195
  190SLPC   C3622005   4.787   5.033   7.437  0.0422 -0.4834 -0.2651
  190SLPC   H6X22006   4.856   5.121   7.434  0.5702 -0.9169 -1.3172
  190SLPC   H6Y22007   4.846   4.940   7.424 -0.9954 -1.1115 -0.5367
  190SLPC   C3722008   4.719   5.031   7.578  0.1859 -0.0560 -0.2118
  190SLPC   H7X22009   4.646   5.115   7.576  2.5435  2.0876 -1.3307
  190SLPC   H7Y22010   4.796   5.051   7.655  1.5474  3.9074 -2.3050
  190SLPC   C3822011   4.645   4.901   7.611  0.0347 -0.0620  0.2883
  190SLPC   H8X22012   4.716   4.815   7.606 -1.2993 -1.1985  0.2367
  190SLPC   H8Y22013   4.559   4.887   7.543  0.0792 -0.3918  0.2971
  190SLPC   C3922014   4.583   4.890   7.753 -0.1433 -0.6679 -0.7358
  190SLPC   H9X22015   4.528   4.985   7.766  2.1706  0.7711 -0.9692
  190SLPC   H9Y22016   4.661   4.891   7.833 -0.2696 -0.2631 -0.6186
  190SLPC  C31022017   4.491   4.770   7.775 -0.5360 -0.2079 -0.2671
  190SLPC  H10X22018   4.551   4.678   7.763 -0.7305 -0.2467 -0.9977
  190SLPC  H10Y22019   4.417   4.762   7.693 -0.6514 -0.5795 -0.1269
  190SLPC  C31122020   4.411   4.774   7.906  0.5100 -0.4298 -0.9320
  190SLPC  H11X22021   4.326   4.703   7.921 -1.1317  1.4379 -0.9154
  190SLPC  H11Y22022   4.383   4.878   7.932  1.5685 -0.9384  2.8968
  190SLPC  C31222023   4.504   4.725   8.016  0.0094 -0.0276  0.0977
  190SLPC  H12X22024   4.598   4.780   7.994 -1.5176  3.7940  2.1860
  190SLPC  H12Y22025   4.514   4.615   8.006 -0.3817  0.0334 -1.0472
  190SLPC  C31322026   4.464   4.780   8.154 -0.8379  0.5625 -0.5418
  190SLPC  H13X22027   4.402   4.715   8.219  0.6583 -0.9234 -0.5296
  190SLPC  H13Y22028   4.401   4.870   8.136 -2.6087 -0.5919 -0.3642
  190SLPC  C31422029   4.589   4.802   8.242 -0.1536  0.1292 -0.2602
  190SLPC  H14X22030   4.554   4.841   8.341 -0.0613 -0.8209  0.1576
  190SLPC  H14Y22031   4.658   4.872   8.191  0.8546 -1.1428 -0.6833
  190SLPC  C31522032   4.660   4.672   8.270 -0.2159  0.1798  0.0767
  190SLPC  H15X22033   4.732   4.644   8.190  0.5259 -1.3167  1.2137
  190SLPC  H15Y22034   4.593   4.584   8.283  2.5038 -1.8027  1.4496
  190SLPC  C31622035   4.752   4.673   8.392  0.3234 -0.0929 -0.3953
  190SLPC  H16X22036   4.811   4.580   8.405  0.8077  0.2652 -0.0038
  190SLPC  H16Y22037   4.690   4.695   8.482 -1.5785  0.0196 -1.6789
  190SLPC  C31722038   4.858   4.781   8.375  0.6825 -0.2169 -0.1723
  190SLPC  H17X22039   4.819   4.885   8.374  0.6951 -0.1974  0.4757
  190SLPC  H17Y22040   4.904   4.769   8.275  1.3888 -1.8161  0.3106
  190SLPC  C31822041   4.965   4.766   8.486  0.1673  0.4256  0.1279
  190SLPC  H18X22042   5.000   4.661   8.472  0.3356  0.6437 -1.1424
  190SLPC  H18Y22043   4.919   4.780   8.587  0.7748 -1.5229  0.7146
  190SLPC  H18Z22044   5.045   4.842   8.477  0.0032  0.4179 -1.7971
  191SLPC     N22045   2.008   0.460   5.695 -0.4824  0.3687  0.0215
  191SLPC   C1322046   1.963   0.325   5.732  0.4390  0.0463 -0.5761
  191SLPC  H13A22047   1.872   0.297   5.682  0.0769 -0.3692  0.3035
  191SLPC  H13B22048   2.036   0.250   5.703 -0.5884  0.4538 -4.7805
  191SLPC  H13C22049   1.949   0.311   5.838 -0.0796 -4.4091 -1.0241
  191SLPC   C1422050   2.018   0.463   5.548 -0.2165  0.5419 -0.0200
  191SLPC  H14A22051   2.039   0.560   5.505 -0.3143 -0.4800 -2.5492
  191SLPC  H14B22052   2.081   0.389   5.501 -1.0272 -2.0269  2.6773
  191SLPC  H14C22053   1.917   0.438   5.521  0.1255 -2.7239  1.3142
  191SLPC   C1522054   2.151   0.478   5.748 -0.1336 -0.1621  0.1629
  191SLPC  H15A22055   2.194   0.577   5.734  3.4794 -1.6350 -0.3388
  191SLPC  H15B22056   2.153   0.466   5.855 -0.5276  1.5917  0.3961
  191SLPC  H15C22057   2.215   0.400   5.709 -0.4937  0.5378 -1.9555
  191SLPC   C1222058   1.917   0.556   5.757  0.2411 -0.4278  0.6897
  191SLPC  H12A22059   1.930   0.551   5.864 -1.0299  0.5605  0.9136
  191SLPC  H12B22060   1.815   0.545   5.724  0.5173  1.9574 -1.2451
  191SLPC   C1122061   1.926   0.707   5.719 -0.3359  0.1398  0.0332
  191SLPC  H11A22062   1.837   0.761   5.757  0.0347 -1.0853  2.9292
  191SLPC  H11B22063   1.928   0.711   5.608 -0.7563 -1.0905 -0.0381
  191SLPC     P22064   2.043   0.838   5.912  0.0204 -0.0099 -0.1508
  191SLPC   O1322065   2.181   0.857   5.955  0.1952 -0.2073  0.0730
  191SLPC   O1422066   1.962   0.960   5.902  0.3939  0.2532 -0.1864
  191SLPC   O1222067   2.046   0.763   5.775 -0.4796 -0.0991  0.2973
  191SLPC   O1122068   1.978   0.731   6.015  0.3565 -0.5759 -0.1556
  191SLPC    C122069   1.884   0.760   6.115 -0.2470  0.0252  0.5805
  191SLPC    HA22070   1.804   0.827   6.076  0.7877 -0.2059 -2.1382
  191SLPC    HB22071   1.849   0.667   6.164 -1.3743  1.2570  2.2253
  191SLPC    C222072   1.956   0.833   6.235  0.4157 -0.3504  0.0331
  191SLPC    HS22073   1.993   0.929   6.194  1.6549 -0.7990  0.0486
  191SLPC   O2122074   2.062   0.749   6.287 -0.6652 -0.1656 -0.1598
  191SLPC   C2122075   2.154   0.816   6.352 -0.1376  0.7169  0.5368
  191SLPC   O2222076   2.156   0.941   6.354  0.2769  0.3493 -0.5691
  191SLPC   C2222077   2.253   0.728   6.419  0.1039 -0.3085 -0.5649
  191SLPC   H2R22078   2.221   0.622   6.413  4.4213 -1.8061 -0.3262
  191SLPC   H2S22079   2.347   0.741   6.362  0.9537  2.4958  1.2518
  191SLPC    C322080   1.851   0.865   6.343 -0.0106 -0.7466 -0.3888
  191SLPC    HX22081   1.813   0.768   6.381 -0.0160 -0.3749  0.5679
  191SLPC    HY22082   1.761   0.908   6.293 -0.9881 -2.0062  0.2294
  191SLPC   O3122083   1.885   0.943   6.462 -0.4041  0.4162 -0.4822
  191SLPC   C3122084   1.921   1.076   6.450 -0.2692  0.0211 -0.5303
  191SLPC   O3222085   1.919   1.139   6.350 -0.5068  0.0802 -0.2316
  191SLPC   C3222086   1.967   1.125   6.587  0.5305  0.0635  0.3699
  191SLPC   H2X22087   1.879   1.155   6.647  0.6238 -0.5165  0.8068
  191SLPC   H2Y22088   2.022   1.221   6.576 -1.4482  1.2431  0.3395
  191SLPC   C2322089   2.267   0.758   6.566 -0.7927 -0.1810 -0.0095
  191SLPC   H3R22090   2.167   0.741   6.613 -0.2760  0.9476  1.6024
  191SLPC   H3S22091   2.315   0.855   6.591 -0.1066  0.5493 -3.6797
  191SLPC   C2422092   2.366   0.650   6.627  0.3064 -0.0439  0.3750
  191SLPC   H4R22093   2.464   0.684   6.586 -1.0007  0.2579 -2.8170
  191SLPC   H4S22094   2.348   0.547   6.588  0.2756 -0.2503  0.9213
  191SLPC   C2522095   2.351   0.648   6.776  0.5088 -0.2232  0.1526
  191SLPC   H5R22096   2.247   0.621   6.803  0.1218 -0.2801 -1.2783
  191SLPC   H5S22097   2.363   0.753   6.811 -2.6540  0.7021 -1.2036
  191SLPC   C2622098   2.448   0.554   6.840  0.6203  0.0886 -0.0485
  191SLPC   H6R22099   2.556   0.570   6.819  0.5684 -0.3081 -0.6571
  191SLPC   H6S22100   2.420   0.453   6.802  1.3156  0.5811 -2.0147
  191SLPC   C2722101   2.459   0.563   6.993  0.0377  0.7287 -0.3885
  191SLPC   H7R22102   2.357   0.536   7.027  0.6085  0.3585  1.0818
  191SLPC   H7S22103   2.480   0.668   7.022 -0.4817  0.8660 -0.4945
  191SLPC   C2822104   2.561   0.461   7.045  0.0708  0.1054 -0.3577
  191SLPC   H8R22105   2.653   0.467   6.983 -0.1294  0.4057 -0.6274
  191SLPC   H8S22106   2.514   0.362   7.027 -1.2848  0.5460  0.6551
  191SLPC   C2922107   2.580   0.483   7.193 -0.8267  0.0483 -1.5389
  191SLPC   H9R22108   2.625   0.582   7.214 -0.1643 -0.9493  2.6046
  191SLPC  C21022109   2.543   0.402   7.297 -0.0251  0.5335  0.7695
  191SLPC  H10R22110   2.576   0.434   7.398 -4.6307  1.5894  2.1756
  191SLPC  C21122111   2.482   0.263   7.285  0.0859 -0.1189 -0.6504
  191SLPC  H11R22112   2.401   0.269   7.208 -0.1554  0.6407 -0.3390
  191SLPC  H11S22113   2.442   0.244   7.387  1.2732  1.3031  0.1175
  191SLPC  C21222114   2.578   0.156   7.224 -0.1071  0.0276 -0.7317
  191SLPC  H12R22115   2.670   0.204   7.187  0.2474  2.0245  2.3454
  191SLPC  C21322116   2.561   0.024   7.226 -0.4960  0.2755 -0.0536
  191SLPC  H13R22117   2.644  -0.032   7.182 -0.0131  0.1271  1.0142
  191SLPC  C21422118   2.441  -0.044   7.279  0.4187  0.0223 -0.8304
  191SLPC  H14R22119   2.446  -0.033   7.389  0.7091 -1.2514 -0.6992
  191SLPC  H14S22120   2.434  -0.153   7.260 -0.9524 -0.5629  2.3663
  191SLPC  C21522121   2.294   0.009   7.242 -0.2143  0.6288 -0.1427
  191SLPC  H15R22122   2.273   0.115   7.266 -2.6678  0.3929 -0.9554
  191SLPC  H15S22123   2.218  -0.052   7.295  0.1726  0.4948  0.2591
  191SLPC  C21622124   2.262   0.014   7.090  0.8702  0.3061 -0.1643
  191SLPC  H16R22125   2.333  -0.056   7.041  1.0394  0.3504  0.0151
  191SLPC  H16S22126   2.276   0.115   7.048  0.4795 -0.0419 -1.1578
  191SLPC  C21722127   2.111  -0.027   7.073 -0.0011  0.0000 -0.2520
  191SLPC  H17R22128   2.047   0.031   7.142  2.1003  0.2653  1.5851
  191SLPC  H17S22129   2.110  -0.130   7.113  0.6417  0.3927  0.8258
  191SLPC  C21822130   2.054  -0.024   6.933 -0.2567  0.5714 -0.1109
  191SLPC  H18R22131   2.056  -0.113   6.867 -2.1036  2.0632 -2.3534
  191SLPC  H18S22132   2.094   0.059   6.871 -1.8654 -0.1703 -2.2368
  191SLPC  H18T22133   1.949   0.009   6.948  0.0193  0.9291  1.2423
  191SLPC   C3322134   2.044   1.018   6.667 -0.5701  0.7258 -0.8563
  191SLPC   H3X22135   2.143   0.993   6.624 -1.3352  1.7253 -3.3621
  191SLPC   H3Y22136   1.984   0.925   6.679  0.1017  0.2686 -1.0216
  191SLPC   C3422137   2.062   1.071   6.814  0.1155 -0.3239 -0.6051
  191SLPC   H4X22138   1.963   1.106   6.850 -0.3970  0.4739 -2.6074
  191SLPC   H4Y22139   2.125   1.162   6.802 -0.9280  0.4930 -0.0699
  191SLPC   C3522140   2.112   0.968   6.916  0.4750 -0.2765 -0.9167
  191SLPC   H5X22141   2.209   0.918   6.894  0.1989 -0.7993 -0.9461
  191SLPC   H5Y22142   2.039   0.884   6.921  0.1944 -0.0644 -1.4451
  191SLPC   C3622143   2.141   1.026   7.058 -0.4226  0.4091 -0.3862
  191SLPC   H6X22144   2.051   1.074   7.102 -0.3135  2.4560 -2.2221
  191SLPC   H6Y22145   2.216   1.108   7.055 -0.7818  0.7655  0.1180
  191SLPC   C3722146   2.207   0.922   7.152 -0.0483  0.4315 -0.0926
  191SLPC   H7X22147   2.299   0.871   7.115 -0.4772 -0.6640  0.3396
  191SLPC   H7Y22148   2.129   0.846   7.172 -2.5628  2.3794 -1.9096
  191SLPC   C3822149   2.261   0.973   7.289 -0.5127 -0.5430 -0.6630
  191SLPC   H8X22150   2.365   1.013   7.287 -0.1137 -1.3875  0.9818
  191SLPC   H8Y22151   2.272   0.884   7.354 -1.7859 -0.9377 -0.9563
  191SLPC   C3922152   2.169   1.074   7.371 -0.3449 -0.0741 -0.5061
  191SLPC   H9X22153   2.063   1.075   7.337 -0.4047  3.3934 -0.5855
  191SLPC   H9Y22154   2.195   1.179   7.344 -0.2720  0.2864  0.8777
  191SLPC  C31022155   2.176   1.035   7.526  0.6614 -0.0393 -0.6594
  191SLPC  H10X22156   2.156   0.927   7.537  2.1233 -0.2975 -0.2644
  191SLPC  H10Y22157   2.097   1.091   7.581  1.7254  2.9949 -1.9972
  191SLPC  C31122158   2.299   1.081   7.595 -0.2996  0.8054  0.2890
  191SLPC  H11X22159   2.286   1.191   7.601  0.6331  0.9062  0.6727
  191SLPC  H11Y22160   2.394   1.068   7.540 -1.0133 -2.1780 -0.3985
  191SLPC  C31222161   2.311   1.048   7.744 -0.2990 -0.5305 -0.6059
  191SLPC  H12X22162   2.335   0.940   7.752 -0.9381 -0.6529 -0.2830
  191SLPC  H12Y22163   2.209   1.054   7.787 -0.3274 -0.0707 -0.7361
  191SLPC  C31322164   2.415   1.133   7.822 -0.6737 -0.1255 -0.2680
  191SLPC  H13X22165   2.399   1.242   7.828  5.1065  0.9844  0.4733
  191SLPC  H13Y22166   2.513   1.129   7.769  0.5975 -0.6151  1.9805
  191SLPC  C31422167   2.438   1.079   7.964 -0.3370 -0.9757 -0.2647
  191SLPC  H14X22168   2.486   1.159   8.022 -0.5334 -0.3125 -0.9933
  191SLPC  H14Y22169   2.503   0.989   7.967 -1.0893 -1.6219 -1.7617
  191SLPC  C31522170   2.308   1.058   8.043 -0.0456  0.0081  0.2850
  191SLPC  H15X22171   2.275   0.955   8.018 -1.0852 -0.1442  2.1281
  191SLPC  H15Y22172   2.221   1.123   8.019 -0.8451  0.1844  3.2956
  191SLPC  C31622173   2.320   1.051   8.200 -0.0902  0.9160 -1.0108
  191SLPC  H16X22174   2.416   1.003   8.231 -0.2280  1.2422 -0.0640
  191SLPC  H16Y22175   2.236   0.996   8.247  2.2941 -2.6565 -0.5250
  191SLPC  C31722176   2.308   1.184   8.273  0.1106 -0.1147 -0.2227
  191SLPC  H17X22177   2.203   1.220   8.271 -0.1902 -0.9816 -1.7384
  191SLPC  H17Y22178   2.377   1.260   8.230  0.5496 -1.5752 -2.2403
  191SLPC  C31822179   2.338   1.151   8.415 -0.4875  1.0789  0.0219
  191SLPC  H18X22180   2.274   1.067   8.450  0.9299 -1.9967 -3.8978
  191SLPC  H18Y22181   2.316   1.240   8.478  1.4894  1.5646  0.0919
  191SLPC  H18Z22182   2.441   1.114   8.432 -0.3015  1.7359  0.3572
  192SLPC     N22183   3.299   0.944   6.149  0.5508 -0.6384 -0.6371
  192SLPC   C1322184   3.335   0.815   6.099  0.3723  0.2021  0.1823
  192SLPC  H13A22185   3.360   0.764   6.191 -1.8921  1.0749  1.3844
  192SLPC  H13B22186   3.254   0.759   6.054 -1.5999  0.3651  3.2158
  192SLPC  H13C22187   3.418   0.818   6.031  0.7796 -2.8564  0.4169
  192SLPC   C1422188   3.285   1.037   6.032 -0.2596  0.6033 -0.3032
  192SLPC  H14A22189   3.241   1.132   6.060 -0.2724  0.2521  0.9472
  192SLPC  H14B22190   3.373   1.060   5.974  0.4652  0.2483  0.6230
  192SLPC  H14C22191   3.228   0.984   5.958 -1.2629 -0.0495  0.8879
  192SLPC   C1522192   3.418   0.995   6.227  0.4034 -0.1104 -0.1262
  192SLPC  H15A22193   3.453   0.918   6.294 -0.8099 -0.1714  0.4716
  192SLPC  H15B22194   3.496   1.038   6.166 -0.5011 -0.0140 -1.2573
  192SLPC  H15C22195   3.381   1.072   6.293  2.0072 -0.1819  0.9041
  192SLPC   C1222196   3.183   0.925   6.244  0.3466 -0.0764 -0.0584
  192SLPC  H12A22197   3.226   0.893   6.337  1.3736 -0.2327 -0.5738
  192SLPC  H12B22198   3.129   0.838   6.212  1.7218 -0.2801 -2.0040
  192SLPC   C1122199   3.079   1.044   6.275 -0.3143 -0.0974  0.1288
  192SLPC  H11A22200   3.013   1.018   6.360  0.4826  0.5824  0.9832
  192SLPC  H11B22201   3.016   1.054   6.184  3.4896  3.4247 -2.4779
  192SLPC     P22202   3.115   1.303   6.362  0.2107  0.2308  0.2115
  192SLPC   O1322203   3.248   1.338   6.415 -0.9471  0.8321 -0.4264
  192SLPC   O1422204   3.055   1.403   6.278 -0.1663 -0.1487 -0.0998
  192SLPC   O1222205   3.134   1.172   6.286 -0.2940  0.6913  0.2898
  192SLPC   O1122206   3.028   1.274   6.496  0.5580 -0.0194  1.1966
  192SLPC    C122207   2.947   1.374   6.557 -0.3142  0.6103 -0.1015
  192SLPC    HA22208   2.955   1.470   6.502  0.0757 -0.0004 -1.1306
  192SLPC    HB22209   2.844   1.337   6.536 -0.5978  0.8183  0.8647
  192SLPC    C222210   2.956   1.382   6.710  0.3246 -0.0207 -0.1561
  192SLPC    HS22211   2.916   1.483   6.735 -1.1902 -0.7634  0.5813
  192SLPC   O2122212   3.093   1.359   6.765 -0.5162  0.1902 -0.1370
  192SLPC   C2122213   3.182   1.446   6.713 -0.2561  0.0034  0.3625
  192SLPC   O2222214   3.155   1.539   6.643 -0.1587 -0.4619 -0.2996
  192SLPC   C2222215   3.326   1.414   6.766 -0.2788 -0.4833 -0.4925
  192SLPC   H2R22216   3.317   1.313   6.812  0.1933 -0.4721 -0.3655
  192SLPC   H2S22217   3.393   1.396   6.680  0.5456  0.1359  0.0021
  192SLPC    C322218   2.869   1.278   6.780 -0.0271 -0.5026 -0.4579
  192SLPC    HX22219   2.895   1.180   6.735  1.1590  0.5972 -2.3307
  192SLPC    HY22220   2.763   1.301   6.756  0.1959  0.0574 -0.9638
  192SLPC   O3122221   2.872   1.281   6.921 -0.0720 -0.4857 -0.4550
  192SLPC   C3122222   2.969   1.216   6.982  0.0714 -0.2426  0.3781
  192SLPC   O3222223   3.043   1.140   6.926 -0.2861 -0.2757 -0.2500
  192SLPC   C3222224   2.971   1.267   7.123  0.6605  0.1649 -0.8423
  192SLPC   H2X22225   2.874   1.290   7.170 -0.4030 -2.2790 -1.6625
  192SLPC   H2Y22226   3.028   1.362   7.123 -2.0831  1.9291  0.4336
  192SLPC   C2322227   3.379   1.532   6.848 -0.2677  0.0232  0.1135
  192SLPC   H3R22228   3.373   1.628   6.793  1.6666 -0.2600 -0.6532
  192SLPC   H3S22229   3.489   1.524   6.862 -0.3133 -0.1395  0.4015
  192SLPC   C2422230   3.313   1.544   6.984  0.0532  0.3162 -0.0519
  192SLPC   H4R22231   3.205   1.525   6.965  0.8056 -2.5316 -2.2137
  192SLPC   H4S22232   3.324   1.646   7.027 -0.9482  0.4429 -0.0792
  192SLPC   C2522233   3.361   1.437   7.078  0.1253  0.0168  0.7060
  192SLPC   H5R22234   3.472   1.435   7.080  0.1586  1.3751  1.3749
  192SLPC   H5S22235   3.321   1.340   7.042 -1.4779  0.7432  0.4642
  192SLPC   C2622236   3.315   1.439   7.227  0.2137 -0.5168  0.1070
  192SLPC   H6R22237   3.329   1.335   7.263 -0.3542  0.0926  2.2280
  192SLPC   H6S22238   3.209   1.469   7.240  0.3114 -0.3920  0.6388
  192SLPC   C2722239   3.391   1.529   7.325 -0.4593  0.2881 -0.5273
  192SLPC   H7R22240   3.366   1.635   7.306 -0.1712  0.4584  0.0458
  192SLPC   H7S22241   3.496   1.506   7.298 -0.8803 -0.9900 -1.1768
  192SLPC   C2822242   3.358   1.488   7.467  0.2690 -0.2196  0.3769
  192SLPC   H8R22243   3.393   1.383   7.474 -1.4136 -0.7936  0.7573
  192SLPC   H8S22244   3.248   1.475   7.465  0.3300 -0.7346 -0.4734
  192SLPC   C2922245   3.407   1.599   7.553 -0.0582  0.1274 -0.0258
  192SLPC   H9R22246   3.365   1.699   7.532  2.1387  1.4790  1.5730
  192SLPC  C21022247   3.485   1.577   7.661  0.6443  0.1186 -0.3627
  192SLPC  H10R22248   3.503   1.667   7.721  1.9112  0.5991 -1.4121
  192SLPC  C21122249   3.536   1.443   7.711  0.4810  0.1459 -0.3686
  192SLPC  H11R22250   3.461   1.363   7.697  0.7912 -0.6040  1.9399
  192SLPC  H11S22251   3.555   1.439   7.820 -0.2809  1.8285 -0.1416
  192SLPC  C21222252   3.661   1.414   7.638 -0.9274  0.4372  0.5906
  192SLPC  H12R22253   3.654   1.385   7.532  0.0575  1.8052  0.1250
  192SLPC  C21322254   3.780   1.401   7.701  0.0688  0.2419 -0.7285
  192SLPC  H13R22255   3.874   1.381   7.648 -0.7086 -0.9716 -1.7257
  192SLPC  C21422256   3.818   1.421   7.850  0.3506  0.2967  0.4032
  192SLPC  H14R22257   3.770   1.516   7.881  0.1515 -0.4843  2.6580
  192SLPC  H14S22258   3.929   1.435   7.849  0.4698 -0.5094 -0.8402
  192SLPC  C21522259   3.760   1.300   7.931 -0.0705  0.4808  0.1997
  192SLPC  H15R22260   3.809   1.203   7.905  0.2940 -0.3195  3.4686
  192SLPC  H15S22261   3.652   1.280   7.919  0.4101 -2.1064 -0.5820
  192SLPC  C21622262   3.788   1.311   8.085 -0.0072  0.4136  0.4404
  192SLPC  H16R22263   3.893   1.332   8.112 -0.1315  1.4844  0.1019
  192SLPC  H16S22264   3.770   1.211   8.130  1.6884  1.3381  3.4233
  192SLPC  C21722265   3.700   1.411   8.161  0.1070 -0.4326  0.5377
  192SLPC  H17R22266   3.751   1.416   8.259  1.6120 -0.4896 -0.2013
  192SLPC  H17S22267   3.694   1.509   8.109 -2.2818 -0.3426  0.8818
  192SLPC  C21822268   3.558   1.362   8.171 -0.5062  0.3928  0.8925
  192SLPC  H18R22269   3.548   1.288   8.253 -0.2590 -0.7782 -0.1200
  192SLPC  H18S22270   3.517   1.315   8.079  0.7515 -2.2582  1.5882
  192SLPC  H18T22271   3.482   1.442   8.187 -1.1294  0.2198 -1.0094
  192SLPC   C3322272   3.041   1.159   7.213 -0.1294  0.1118 -0.3851
  192SLPC   H3X22273   3.145   1.134   7.186 -0.2606 -1.6633  0.6070
  192SLPC   H3Y22274   2.990   1.065   7.185  0.5441 -0.5895  0.7050
  192SLPC   C3422275   3.011   1.199   7.364 -0.8250  0.6727  0.4098
  192SLPC   H4X22276   2.904   1.181   7.388 -0.3264 -0.8920  1.6852
  192SLPC   H4Y22277   3.050   1.303   7.373 -0.2331  0.6813 -1.6788
  192SLPC   C3522278   3.083   1.103   7.461 -0.9748  0.1511  0.9195
  192SLPC   H5X22279   3.185   1.081   7.424 -1.2931 -0.4875  0.3846
  192SLPC   H5Y22280   3.036   1.002   7.469  0.1851 -0.7732 -2.2519
  192SLPC   C3622281   3.087   1.163   7.611  0.2238 -0.3708 -0.1489
  192SLPC   H6X22282   2.987   1.162   7.659  0.2751 -0.1096 -0.0372
  192SLPC   H6Y22283   3.137   1.262   7.613  3.3897 -1.7905 -1.3237
  192SLPC   C3722284   3.172   1.070   7.700  0.1208 -0.2252 -0.4783
  192SLPC   H7X22285   3.270   1.064   7.648  1.2446  2.3109  1.1873
  192SLPC   H7Y22286   3.140   0.963   7.694  1.7219 -0.7124 -0.9468
  192SLPC   C3822287   3.179   1.104   7.852  0.0676  0.3415 -0.5191
  192SLPC   H8X22288   3.078   1.112   7.898 -0.8900  0.5155 -2.5344
  192SLPC   H8Y22289   3.234   1.200   7.855 -0.2292  0.5139 -0.5081
  192SLPC   C3922290   3.254   1.004   7.938 -0.4422 -0.0466 -0.1124
  192SLPC   H9X22291   3.328   0.937   7.889  2.8956  1.6534  2.1501
  192SLPC   H9Y22292   3.172   0.931   7.953  0.0281 -0.5713 -0.0806
  192SLPC  C31022293   3.305   1.049   8.069  0.1881 -1.0242 -0.3804
  192SLPC  H10X22294   3.232   1.118   8.118  1.9743 -0.8175  2.2163
  192SLPC  H10Y22295   3.398   1.111   8.068 -1.6281  2.0074  1.2258
  192SLPC  C31122296   3.318   0.937   8.171 -0.1151 -0.5520 -0.0313
  192SLPC  H11X22297   3.380   0.861   8.118 -0.0069  0.8830 -2.1085
  192SLPC  H11Y22298   3.218   0.892   8.189  0.4884 -1.9774 -0.0911
  192SLPC  C31222299   3.388   0.975   8.299 -0.4580  0.1879  0.0734
  192SLPC  H12X22300   3.315   1.012   8.374 -0.7836 -0.3928  0.0481
  192SLPC  H12Y22301   3.464   1.055   8.287 -1.0314  0.6534 -0.4932
  192SLPC  C31322302   3.468   0.859   8.371 -0.4338  0.1814  0.1751
  192SLPC  H13X22303   3.547   0.818   8.305  2.4473  0.7291  3.0028
  192SLPC  H13Y22304   3.387   0.786   8.389  0.5623 -1.2383 -0.9093
  192SLPC  C31422305   3.538   0.901   8.498  0.0434 -0.5911  0.1009
  192SLPC  H14X22306   3.473   0.971   8.555 -0.2799  0.1069 -1.0829
  192SLPC  H14Y22307   3.628   0.958   8.463  0.1330  0.6737  2.1967
  192SLPC  C31522308   3.589   0.786   8.588  0.0695 -0.7415 -0.0716
  192SLPC  H15X22309   3.634   0.712   8.518 -0.7122 -0.7397 -0.5878
  192SLPC  H15Y22310   3.506   0.741   8.647  0.3638 -2.1753 -0.7048
  192SLPC  C31622311   3.694   0.822   8.689 -0.5271  0.8020 -0.5534
  192SLPC  H16X22312   3.699   0.932   8.698 -0.6075  0.7446  0.2752
  192SLPC  H16Y22313   3.790   0.772   8.663 -0.5978  0.4305 -0.1017
  192SLPC  C31722314   3.658   0.774   8.831  0.3303  0.4942 -1.1928
  192SLPC  H17X22315   3.643   0.664   8.828 -2.6942  0.7588  0.5591
  192SLPC  H17Y22316   3.559   0.818   8.859  1.2067  1.6587  0.2563
  192SLPC  C31822317   3.769   0.817   8.927  0.6549  0.4473  0.0923
  192SLPC  H18X22318   3.770   0.928   8.921 -2.0913  0.6159  1.2185
  192SLPC  H18Y22319   3.866   0.774   8.895 -0.3753 -1.0027 -1.2867
  192SLPC  H18Z22320   3.735   0.790   9.029  0.2921  1.1918  0.1731
  193SOD    SOD22321   3.328   2.816   4.884  0.1866 -0.3205 -0.5884
  194SOD    SOD22322   6.183   1.439  12.947 -0.5303  0.4268 -0.5161
  195SOD    SOD22323   1.180   1.694  14.266  0.1619 -0.1648 -0.2638
  196SOD    SOD22324   1.023   6.038   3.386  0.0648 -0.4284 -0.0675
  197SOD    SOD22325   6.329   1.551   6.244  0.3362 -0.3567  0.7912
  198SOD    SOD22326   5.302   6.358  12.204  0.3445 -0.3139  0.0823
  199SOD    SOD22327   2.492   3.558   5.853  0.1165  0.2866  0.7750
  200SOD    SOD22328   6.169   1.438   1.973  0.3348 -0.2912  0.1014
  201SOD    SOD22329   0.893   5.989  15.637  0.3526 -0.4658 -0.1152
  202SOD    SOD22330   3.461   5.988  12.930  0.1883 -0.1620 -0.5762
  203SOD    SOD22331   1.997   1.609   5.549 -0.3699 -0.3677  0.0686
  204SOD    SOD22332   3.336   5.853  14.355 -0.2117  0.3600 -0.1299
  205SOD    SOD22333   6.803   2.149  16.764 -0.0352 -0.7119  0.1609
  206SOD    SOD22334   1.673   1.649   0.861 -0.2949  0.2039  0.7231
  207SOD    SOD22335   6.298   1.398   0.949  0.0852  0.1696 -0.2329
  208SOD    SOD22336   4.691   4.786   5.935  0.4738  0.2215  0.5515
  209SOD    SOD22337   2.043   0.776   0.048  0.2383  0.2314  0.1943
  210SOD    SOD22338   2.221   6.121  11.220 -0.3281  0.4487  0.6230
  211SOD    SOD22339   2.528   5.472   4.693 -0.9131 -0.2905 -0.6943
  212SOD    SOD22340   4.236   1.300   3.306  0.0250  0.3321  0.0150
  213SOD    SOD22341   1.959   4.344  12.448 -0.3576  0.3290  0.0351
  214SOD    SOD22342   4.609   6.118  14.574  0.1657 -0.1830 -0.5375
  215SOD    SOD22343   1.311   0.314  13.523  0.1579 -0.7036  0.3594
  216SOD    SOD22344   6.350   1.582  12.139  0.2426  0.0571  0.4260
  217SOD    SOD22345   6.039   2.408   5.172  0.0085  0.2280 -0.6854
  218SOD    SOD22346   1.239   6.577   6.015 -0.2462 -0.1071 -0.2546
  219SOD    SOD22347   6.735   3.328   6.535  0.2370  0.3605 -0.2290
  220SOD    SOD22348   4.158   5.799  11.466  0.2320 -0.0348 -0.0910
  221SOD    SOD22349   0.553   2.707   0.057 -0.5020  0.6719  0.3960
  222SOD    SOD22350   0.456   3.464   0.117  0.4857  0.8984 -0.0398
  223SOD    SOD22351   5.245   3.906  16.749 -0.2108  0.2440  0.2162
  224SOD    SOD22352   4.475   6.703  11.115 -0.0731  0.5319 -0.5478
  225SOD    SOD22353   4.830   1.463   5.939 -0.3925 -0.0496 -0.1799
  226SOD    SOD22354   0.162   4.963  11.188 -0.3540 -0.2199  0.4496
  227SOD    SOD22355   3.647   0.509  11.556 -0.1465 -0.6350  0.2652
  228SOD    SOD22356   2.861   2.464   3.292  0.4541 -0.1582  0.8862
  229SOD    SOD22357   3.486   6.765   0.884  0.5816  0.0624 -0.4356
  230SOD    SOD22358   4.250   2.968  10.554  0.1937 -0.3260 -0.1519
  231SOD    SOD22359   2.324   3.659  10.488 -0.1696 -0.1353 -0.0738
  232SOD    SOD22360   3.139   3.179   2.780  0.4579  0.0985  0.0537
  233SOD    SOD22361   6.071   4.412  13.104 -0.0858 -0.0523  0.4894
  234SOD    SOD22362   5.293   4.625   4.705 -0.2576 -0.1888  0.1468
  235SOD    SOD22363   1.833   1.992  10.791  0.3587 -0.0831 -0.3564
  236SOD    SOD22364   2.935   5.036   1.919 -0.3066  0.5094 -0.6865
  237SOD    SOD22365   0.853   4.429   5.791 -0.1573 -0.1311  0.0674
  238SOD    SOD22366   0.971   0.055  16.715  0.7176 -0.4056 -0.2334
  239SOD    SOD22367   4.823   5.664  13.552 -0.1088 -0.3025  0.0024
  240SOD    SOD22368   2.131   4.589   0.469  0.3375  0.5953 -0.3230
  241SOD    SOD22369   5.704   1.048   4.878 -0.0573 -0.3841 -0.0619
  242SOD    SOD22370   0.729   4.453  14.536 -0.3884 -0.2903  0.8643
  243SOD    SOD22371   6.415   6.799  15.302 -0.3143 -0.0824 -0.0272
  244SOD    SOD22372   4.453   4.269  16.956 -0.0580  0.4634  0.1871
  245SOD    SOD22373   2.389   6.666  14.887  0.1556 -0.2293  0.5634
  246SOD    SOD22374   4.682   2.937  16.738 -0.3186  0.0959  0.0373
  247SOD    SOD22375   5.447   2.576   5.724  0.1092 -0.0393  0.5959
  248SOD    SOD22376   0.324   3.157   1.745 -0.6001  0.2266 -0.5962
  249SOD    SOD22377   6.842   6.017   2.736  0.1630 -0.2047 -0.5022
  250SOD    SOD22378   5.416   4.661   6.131  0.6615 -0.2618  0.0369
  251SOD    SOD22379   5.706   5.651   2.880 -0.2974  0.2178 -0.4041
  252SOD    SOD22380   3.760   1.826   6.332 -0.1081  0.2195  0.0932
  253SOD    SOD22381   3.942   3.557   1.926  0.2116 -0.6066 -0.0815
  254SOD    SOD22382   3.544   2.129   3.352 -0.5157 -0.1854 -0.1771
  255SOD    SOD22383   0.040   4.487  15.416 -0.4666 -0.5595 -0.1954
  256SOD    SOD22384   6.705   5.061  10.574 -0.1330  0.2050 -0.2469
  257SOD    SOD22385   2.805   6.256  10.263  0.1330 -0.3702 -0.3151
  258SOD    SOD22386   3.437   4.234  10.844 -0.0531  0.5619 -0.0345
  259SOD    SOD22387   0.384   1.910   5.778 -0.2222 -0.2685  0.1266
  260SOD    SOD22388   0.430   4.823   4.879  0.1335 -0.1365  0.1683
  261SOD    SOD22389   0.571   2.681   3.217  0.3733 -0.2031  0.2064
  262SOD    SOD22390   6.134   0.719   1.310  0.5292 -0.0219 -0.1252
  263SOD    SOD22391   1.740   0.332   4.285  0.4895  0.5171 -0.0456
  264SOD    SOD22392   0.067   5.716   0.613 -0.1877 -0.2573  0.1585
  265SOD    SOD22393   5.913   3.513   4.208  0.4423  0.1474 -0.5326
  266CLA    CLA22394   1.111   5.900   3.870 -0.2369  0.1748 -0.0892
  267CLA    CLA22395   1.091   5.014   2.250 -0.4256 -0.0182  0.4962
  268CLA    CLA22396   5.782   4.089   0.039  0.2742 -0.4543  0.1425
  269CLA    CLA22397   4.518   2.199   5.100  0.0367 -0.3016 -0.1183
  270CLA    CLA22398   6.043   2.910  16.612 -0.3769  0.2955  0.5269
  271CLA    CLA22399   5.176   3.260   4.409  0.1187 -0.3501  0.1539
  272CLA    CLA22400   6.334   1.599   5.553  0.4058  0.1569 -0.1629
  273CLA    CLA22401   3.390   3.423   5.324  0.4201 -0.5154 -0.0180
  274CLA    CLA22402   1.299   2.808   4.351 -0.5268  0.3241  0.4824
  275CLA    CLA22403   2.234   3.874  14.501 -0.6366  0.6796 -0.4839
  276CLA    CLA22404   1.233   5.909   2.621  0.0594 -0.0166 -0.3476
  277CLA    CLA22405   6.775   1.668   5.122  0.3491 -0.1048 -0.1718
  278CLA    CLA22406   1.952   4.828  13.584  0.1151  0.1094  0.0999
  279CLA    CLA22407   3.038   1.882   0.802 -0.1976 -0.4758  0.0518
  280CLA    CLA22408   4.061   4.194   0.021  0.0009 -0.1926  0.2220
  281CLA    CLA22409   6.287   1.446   4.136  0.0339  0.0989 -0.0792
  282CLA    CLA22410   3.403   5.842  13.442  0.0783  0.0442 -0.3684
  283CLA    CLA22411   1.264   2.065   0.462  0.3256 -0.1078 -0.0994
  284CLA    CLA22412   4.788   0.085  16.941 -0.2494 -0.1515 -0.2138
  285CLA    CLA22413   4.642   1.281  15.142 -0.0717 -0.1964  0.1043
  286CLA    CLA22414   6.655   3.328   3.982  0.1720 -0.1013 -0.1450
  287CLA    CLA22415   4.654   3.680   4.031  0.2110 -0.0024 -0.0379
  288CLA    CLA22416   3.749   6.757  17.076 -0.6378 -0.3208  0.0806
  289CLA    CLA22417   1.884   3.534   1.403 -0.0963 -0.0739 -0.0583
  290CLA    CLA22418   6.444   5.094   0.790 -0.1477 -0.3729  0.0837
  291CLA    CLA22419   0.849   6.492  15.879 -0.0288 -0.2175 -0.2099
  292CLA    CLA22420   1.150   6.295  16.394  0.0070 -0.2942 -0.1723
  293CLA    CLA22421   2.781   3.763   2.169  0.2808 -0.0594 -0.1662
  294CLA    CLA22422   1.637   1.017  14.674  0.5238 -0.4801 -0.5989
  295CLA    CLA22423   3.080   6.838  13.663 -0.3266 -0.4595 -0.0125
  296CLA    CLA22424   3.779   5.558   3.852 -0.1645  0.0865  0.0022
  297CLA    CLA22425   5.038   0.836  13.372  0.0998 -0.3757  0.1327
  298CLA    CLA22426   3.550   4.593  14.345  0.3013 -0.0285  0.3890
  299CLA    CLA22427   3.991   1.435   3.299  0.0878  0.3354 -0.0479
  300CLA    CLA22428   0.287   0.558  14.016  0.0944  0.0654 -0.0076
  301CLA    CLA22429   0.707   1.053  14.394  0.2610  0.0571  0.4904
  302CLA    CLA22430   2.328   4.429   5.976  0.4556 -0.0207  0.0921
  303CLA    CLA22431   6.419   0.969  11.758 -0.2960 -0.2523 -0.1973
  304CLA    CLA22432   5.859   2.156  14.471  0.1141 -0.1240  0.1161
  305CLA    CLA22433   3.646   1.735   4.777 -0.5425 -0.4343  0.1363
  306CLA    CLA22434   4.263   1.804   0.409  0.0280  0.0665  0.6516
  307CLA    CLA22435   5.756   2.994   1.140 -0.2518  0.2725  0.1390
  308CLA    CLA22436   1.582   2.699  15.234 -0.0972  0.1129  0.0906
  309CLA    CLA22437   0.871   5.167  16.290  0.2294 -0.1042  0.1111
  310CLA    CLA22438   2.423   0.385  13.765 -0.3151 -0.1301 -0.3508
  311CLA    CLA22439   5.112   3.050  16.355 -0.2454 -0.3395  0.1257
  312CLA    CLA22440   3.062   6.544   0.076  0.5002  0.0682 -0.0105
  313CLA    CLA22441   3.614   6.441  12.437  0.3238  0.3618  0.0466
  314CLA    CLA22442   6.561   5.909   2.039  0.4630 -0.1541 -0.3882
  315CLA    CLA22443   6.568   0.595   2.695 -0.0043  0.2488  0.2889
  316CLA    CLA22444   2.951   1.989  11.349 -0.3160  0.2641  0.1709
  317CLA    CLA22445   5.729   0.580   2.028  0.4368 -0.0089 -0.2889
  318CLA    CLA22446   5.339   0.446   5.800  0.0493  0.3532 -0.2566
  319TIP3   OH222447   1.219   5.693  11.111  0.2769 -0.9100  0.2253
  319TIP3    H122448   1.288   5.694  11.045  1.3324 -0.8628  1.2935
  319TIP3    H222449   1.259   5.652  11.188 -0.4410  0.4047  1.3406
  320TIP3   OH222450   6.392   0.755   4.529 -0.3530 -0.0804 -0.0987
  320TIP3    H122451   6.341   0.763   4.448 -0.1641  1.0551 -0.1186
  320TIP3    H222452   6.337   0.704   4.587  0.3431 -2.7603 -1.6150
  321TIP3   OH222453   2.803   2.090   3.549  0.3816 -0.0604  0.0616
  321TIP3    H122454   2.888   2.059   3.518 -0.2240 -1.6662 -0.1062
  321TIP3    H222455   2.769   2.142   3.476  1.0659  0.3017 -0.0098
  322TIP3   OH222456   3.141   0.809   2.734 -0.0736  0.1102 -0.6611
  322TIP3    H122457   3.178   0.739   2.680  1.9277  0.3653  0.3098
  322TIP3    H222458   3.178   0.889   2.696  1.0865  0.3147  0.8141
  323TIP3   OH222459   1.697   3.676   0.911 -0.4930  0.2365  0.5665
  323TIP3    H122460   1.649   3.663   0.993  0.8175  2.1006  1.6946
  323TIP3    H222461   1.636   3.647   0.843 -1.4133 -1.8643  2.1916
  324TIP3   OH222462   4.658   4.040   6.213 -0.4909 -0.1836 -0.2044
  324TIP3    H122463   4.678   3.948   6.226 -0.5786 -0.5303 -2.1576
  324TIP3    H222464   4.742   4.085   6.223 -0.6995 -0.2003  2.3658
  325TIP3   OH222465   1.384   1.368  11.725 -0.3467  0.4133 -0.3152
  325TIP3    H122466   1.359   1.347  11.815  0.0425 -1.0695 -0.5264
  325TIP3    H222467   1.404   1.462  11.727 -0.6698  0.4758  1.0564
  326TIP3   OH222468   0.983   3.928  16.205  0.8055 -0.3265  0.1620
  326TIP3    H122469   1.033   3.980  16.142  0.1307 -0.4956 -0.5275
  326TIP3    H222470   0.998   3.972  16.289 -1.6047  2.4726 -0.7070
  327TIP3   OH222471   3.595   1.735  11.351 -0.4442 -0.2665  0.0596
  327TIP3    H122472   3.673   1.790  11.363 -0.2641 -0.5220  0.0714
  327TIP3    H222473   3.624   1.667  11.290 -0.4460 -0.7823  0.6289
  328TIP3   OH222474   4.548   4.903   5.325 -0.3866  0.1311 -0.0303
  328TIP3    H122475   4.636   4.942   5.318 -0.8033  1.3202  1.1208
  328TIP3    H222476   4.551   4.852   5.405 -0.8511  0.4508  0.1922
  329TIP3   OH222477   4.503   4.095  15.969  0.0085 -0.0456  0.2749
  329TIP3    H122478   4.425   4.084  15.915  0.0701 -0.3887  0.2537
  329TIP3    H222479   4.552   4.166  15.927  1.1846 -1.7747 -1.4687
  330TIP3   OH222480   5.456   4.453   3.632  0.5217  0.2705 -0.0932
  330TIP3    H122481   5.511   4.379   3.659  2.2531  2.1278  1.9211
  330TIP3    H222482   5.389   4.459   3.701  0.1374  0.3299 -0.4708
  331TIP3   OH222483   5.948   1.554   3.515  0.3917 -0.1734  0.5637
  331TIP3    H122484   5.967   1.631   3.569 -0.4532  0.1205  0.4573
  331TIP3    H222485   5.958   1.480   3.575 -1.4165  0.2017  1.4104
  332TIP3   OH222486   6.400   5.972  12.025  0.6874  0.6427 -0.0152
  332TIP3    H122487   6.456   6.022  12.084 -0.3341 -0.5411  2.0960
  332TIP3    H222488   6.378   5.893  12.075 -2.3425  0.7668 -0.9419
  333TIP3   OH222489   5.592   4.529   1.119 -0.1376 -0.2409  0.4968
  333TIP3    H122490   5.562   4.553   1.031  2.0729 -0.8245 -0.4716
  333TIP3    H222491   5.515   4.489   1.160 -1.4391  0.7544 -0.8558
  334TIP3   OH222492   2.798   0.930   4.182  0.9775 -0.0981  0.3849
  334TIP3    H122493   2.893   0.923   4.172  0.8257 -0.6369 -0.7289
  334TIP3    H222494   2.776   1.015   4.144  0.9066 -0.3552 -0.1499
  335TIP3   OH222495   0.575   1.634  15.819 -0.5078 -0.0758  0.7514
  335TIP3    H122496   0.537   1.675  15.897  1.1158  0.5032  1.2951
  335TIP3    H222497   0.663   1.673  15.813 -0.9901  0.7622 -2.0530
  336TIP3   OH222498   3.434   4.618   4.845  0.0274 -0.2964  0.2194
  336TIP3    H122499   3.516   4.631   4.798 -0.1017 -0.0449  0.0574
  336TIP3    H222500   3.431   4.689   4.909 -0.2123 -0.1106  0.0062
  337TIP3   OH222501   4.396   6.846  10.575  0.0734  0.4153  0.7691
  337TIP3    H122502   4.485   6.853  10.609 -0.9626  3.3285  3.4507
  337TIP3    H222503   4.348   6.798  10.642 -0.9693  1.5756  0.8860
  338TIP3   OH222504   5.219   0.619   6.535  0.3586 -0.5573  0.3269
  338TIP3    H122505   5.296   0.561   6.540  1.4797  0.9887  3.4626
  338TIP3    H222506   5.239   0.679   6.463  0.3439 -2.3893 -1.2862
  339TIP3   OH222507   3.527   1.745  11.916 -0.0316  0.2524 -0.0093
  339TIP3    H122508   3.591   1.711  11.854 -0.2229 -0.0345 -0.0518
  339TIP3    H222509   3.565   1.827  11.948  1.7860 -1.3435  2.2326
  340TIP3   OH222510   0.501   1.577  16.473 -0.8530 -0.0154  0.0935
  340TIP3    H122511   0.523   1.540  16.387  0.1078  0.6727  0.0304
  340TIP3    H222512   0.501   1.501  16.532 -1.7258 -0.5233 -0.5395
  341TIP3   OH222513   3.162   6.211   3.689  0.4617  0.0948 -0.7306
  341TIP3    H122514   3.250   6.246   3.677  0.5382  0.3319  0.4512
  341TIP3    H222515   3.175   6.116   3.697  0.7006  0.1968  0.1843
  342TIP3   OH222516   5.865   3.893  11.356 -0.4312  0.3576 -0.5978
  342TIP3    H122517   5.884   3.892  11.262  2.5937 -0.7976 -0.0837
  342TIP3    H222518   5.850   3.801  11.378  3.8747 -0.2686  0.7326
  343TIP3   OH222519   4.289   2.479  13.623 -0.3410 -0.2192  0.4954
  343TIP3    H122520   4.276   2.537  13.698  1.6351 -0.5912  1.1778
  343TIP3    H222521   4.294   2.392  13.661  4.0912 -0.1910  0.5637
  344TIP3   OH222522   0.605   3.557  16.089 -0.3151 -0.4040  0.4268
  344TIP3    H122523   0.643   3.643  16.110  0.0661 -0.5734  0.4338
  344TIP3    H222524   0.516   3.562  16.124 -0.2903 -0.0167  0.4455
  345TIP3   OH222525   1.189   1.930  11.734  0.3541 -0.4282 -0.2236
  345TIP3    H122526   1.099   1.909  11.759  0.3896 -0.4465 -0.1102
  345TIP3    H222527   1.184   2.020  11.700  0.2191 -0.5835 -0.6222
  346TIP3   OH222528   2.478   4.166  10.826  0.7188 -0.0274  0.3171
  346TIP3    H122529   2.551   4.155  10.888  1.3296  0.4316 -0.3095
  346TIP3    H222530   2.520   4.169  10.740  0.1014  1.7854  0.0557
  347TIP3   OH222531   4.775   1.812   3.900  0.4805 -0.7057  0.0106
  347TIP3    H122532   4.763   1.851   3.987  0.5114  2.1126 -1.1497
  347TIP3    H222533   4.733   1.874   3.840  0.0761 -2.7917 -1.9739
  348TIP3   OH222534   3.812   0.859  14.267 -0.5988  0.3171 -0.5081
  348TIP3    H122535   3.892   0.842  14.317 -0.5342 -0.9098 -0.9983
  348TIP3    H222536   3.750   0.892  14.332  0.0850  0.6164  0.0061
  349TIP3   OH222537   1.732   2.662   1.100  0.0641 -0.0556 -0.2549
  349TIP3    H122538   1.806   2.667   1.160 -0.1328  2.2811 -0.1163
  349TIP3    H222539   1.656   2.648   1.157  0.1563 -0.4616 -0.2244
  350TIP3   OH222540   5.471   1.053  12.919 -0.1021  0.1585 -0.0574
  350TIP3    H122541   5.462   1.076  12.826  1.1397  1.4582  0.1033
  350TIP3    H222542   5.465   1.137  12.965  1.7204 -0.1506  0.8260
  351TIP3   OH222543   1.192   3.348   5.465  0.1224  0.2076 -0.1696
  351TIP3    H122544   1.171   3.434   5.500  0.4722  1.2962 -2.4635
  351TIP3    H222545   1.108   3.302   5.463  0.0617  0.1068  1.8681
  352TIP3   OH222546   2.969   1.785   4.871  0.3920 -0.4762  0.7826
  352TIP3    H122547   2.917   1.710   4.840 -0.8391 -0.5308  2.7858
  352TIP3    H222548   2.936   1.859   4.820 -0.9309 -0.7137  1.2427
  353TIP3   OH222549   6.273   6.432   5.772 -0.7234  0.5342 -0.3326
  353TIP3    H122550   6.247   6.376   5.700 -1.6373  0.8573 -0.2647
  353TIP3    H222551   6.272   6.521   5.736  2.2259  0.4495 -0.8861
  354TIP3   OH222552   1.037   2.240   0.638  0.2744 -0.0225 -0.3597
  354TIP3    H122553   1.026   2.321   0.588  1.8087  1.2095  1.1682
  354TIP3    H222554   1.101   2.189   0.589  1.8514  1.2250  0.3077
  355TIP3   OH222555   3.982   6.563  16.759  0.0994 -0.5174  0.0346
  355TIP3    H122556   3.934   6.490  16.799  1.8687 -2.7501 -1.6237
  355TIP3    H222557   3.938   6.577  16.675 -0.2078  0.3150  0.3308
  356TIP3   OH222558   1.126   6.054   6.370  0.5476 -0.1055 -0.7481
  356TIP3    H122559   1.068   6.130   6.378  1.6403  0.6786  0.1104
  356TIP3    H222560   1.067   5.979   6.371 -0.5057  0.6946 -0.7487
  357TIP3   OH222561   5.135   0.609   3.508 -0.0271  0.3497  0.1731
  357TIP3    H122562   5.056   0.619   3.562  0.0974  0.9425  0.2546
  357TIP3    H222563   5.194   0.677   3.540  0.4673 -0.0107  0.0238
  358TIP3   OH222564   0.487   1.087   4.056  0.0477  0.3165  0.2535
  358TIP3    H122565   0.408   1.046   4.091 -0.0504 -0.5543 -0.9396
  358TIP3    H222566   0.488   1.063   3.964  2.1708 -0.4803  0.4198
  359TIP3   OH222567   6.049   4.053  11.526 -0.0602  0.3068 -0.3635
  359TIP3    H122568   5.994   4.070  11.602 -0.1237  0.6353 -0.4822
  359TIP3    H222569   6.002   3.987  11.476  0.2618 -0.3519  0.1802
  360TIP3   OH222570   2.984   1.230  12.991 -0.3503 -0.4799 -0.0875
  360TIP3    H122571   3.032   1.167  12.936 -2.2993  0.3620 -2.9981
  360TIP3    H222572   2.994   1.196  13.080  2.8858 -2.0381 -0.8687
  361TIP3   OH222573   5.650   0.844  11.026 -0.0497 -0.4878 -0.1731
  361TIP3    H122574   5.726   0.859  10.970 -0.6994  0.6306 -0.7879
  361TIP3    H222575   5.629   0.751  11.014  1.8695 -1.1235  0.8797
  362TIP3   OH222576   3.513   2.791  12.571  0.0064  0.3533  0.1114
  362TIP3    H122577   3.535   2.722  12.509  0.3046  0.8748 -0.3688
  362TIP3    H222578   3.436   2.757  12.618  0.9713 -0.8956  0.8491
  363TIP3   OH222579   4.943   4.486  11.767  0.3627 -0.6135  0.4415
  363TIP3    H122580   4.994   4.409  11.790 -0.3300 -0.8953  1.0910
  363TIP3    H222581   5.007   4.551  11.740  1.2825 -0.2144  3.2707
  364TIP3   OH222582   0.565   1.275   2.117  0.1847  0.3116  0.1481
  364TIP3    H122583   0.473   1.254   2.128  0.0189  0.6788 -0.5211
  364TIP3    H222584   0.611   1.209   2.171 -0.4157 -0.4580 -0.2642
  365TIP3   OH222585   3.833   0.967   2.996 -0.5089  0.2276  0.2652
  365TIP3    H122586   3.835   1.062   2.984  1.0096  0.2860  0.7913
  365TIP3    H222587   3.864   0.932   2.912 -0.5066  0.2204  0.2691
  366TIP3   OH222588   2.822   6.757   0.649 -0.0876  0.2656 -0.0094
  366TIP3    H122589   2.865   6.719   0.725 -0.1227  0.6974  0.2292
  366TIP3    H222590   2.859   6.845   0.641 -0.6383  0.4991 -0.0348
  367TIP3   OH222591   5.547   4.693   5.939 -0.0111 -0.0454 -0.1165
  367TIP3    H122592   5.490   4.649   5.876  0.3026  0.7595 -0.9970
  367TIP3    H222593   5.629   4.708   5.891  0.7281 -0.6130  0.9194
  368TIP3   OH222594   1.558   4.209  11.609  1.0362 -0.0502 -0.0213
  368TIP3    H122595   1.484   4.255  11.568  1.3206  1.4936  1.0751
  368TIP3    H222596   1.609   4.176  11.536 -1.2392 -2.0916 -0.8139
  369TIP3   OH222597   4.407   0.745   2.524  0.1713 -0.2266 -0.0834
  369TIP3    H122598   4.465   0.811   2.486 -0.2957  0.4487  0.3709
  369TIP3    H222599   4.460   0.665   2.525  0.9912  0.3099  0.0505
  370TIP3   OH222600   0.501   0.392   2.160  0.1293 -0.5156 -0.2705
  370TIP3    H122601   0.511   0.302   2.129 -0.9627 -0.0437 -2.1662
  370TIP3    H222602   0.435   0.430   2.101 -0.1329  1.2447  1.0886
  371TIP3   OH222603   3.894   4.518  15.938  0.0405  0.2706  0.1193
  371TIP3    H122604   3.868   4.460  15.867  2.8346 -1.4645  0.3561
  371TIP3    H222605   3.933   4.594  15.895  2.8213 -1.3008 -0.3785
  372TIP3   OH222606   3.451   0.714  10.953 -0.1046 -0.4008  0.1904
  372TIP3    H122607   3.385   0.761  10.903  0.0947 -0.3378 -0.0163
  372TIP3    H222608   3.405   0.680  11.029  0.0694  1.4571  1.1676
  373TIP3   OH222609   2.040   2.019  16.826 -0.8124  0.1890 -0.3653
  373TIP3    H122610   2.084   1.946  16.782  0.8440  1.2110 -0.4953
  373TIP3    H222611   1.952   1.986  16.845  0.2423 -2.2970  0.6861
  374TIP3   OH222612   5.652   2.127  14.235  0.6662 -0.3551 -0.1255
  374TIP3    H122613   5.595   2.051  14.247  0.1071  0.0295 -0.3325
  374TIP3    H222614   5.705   2.129  14.315  1.9278 -1.9776 -0.8402
  375TIP3   OH222615   3.459   6.628   4.420 -0.6820 -0.3467 -0.0189
  375TIP3    H122616   3.477   6.544   4.377  0.0631  0.3113 -1.0412
  375TIP3    H222617   3.544   6.656   4.454 -0.8948  0.0694  0.1737
  376TIP3   OH222618   4.597   5.566   4.256  0.3694  0.4533  0.0471
  376TIP3    H122619   4.581   5.655   4.226  0.2291  0.6795  0.7612
  376TIP3    H222620   4.516   5.540   4.301  0.5990  0.1695  0.3062
  377TIP3   OH222621   0.505   0.356  10.321  0.4168  0.7450  0.0148
  377TIP3    H122622   0.501   0.377  10.227  0.7121 -2.7951 -0.9339
  377TIP3    H222623   0.589   0.393  10.350  0.9513  0.7868 -1.4743
  378TIP3   OH222624   1.716   5.559  14.273  0.1756 -1.2498 -0.2192
  378TIP3    H122625   1.679   5.636  14.316  0.6390 -0.9554 -0.3385
  378TIP3    H222626   1.666   5.485  14.309 -0.8831 -0.8290 -0.7650
  379TIP3   OH222627   2.326   4.640   4.217 -0.1651  0.3810  0.5529
  379TIP3    H122628   2.328   4.625   4.122  2.2080  1.9427  0.2748
  379TIP3    H222629   2.336   4.553   4.255  1.6889 -0.0382 -0.7341
  380TIP3   OH222630   3.338   0.853  13.181  0.5338 -0.3550 -0.0223
  380TIP3    H122631   3.243   0.841  13.180  0.5276 -0.4677 -2.0981
  380TIP3    H222632   3.371   0.780  13.128  1.7252  0.0719  0.1163
  381TIP3   OH222633   1.510   6.323   4.789 -0.0108  0.4879  0.2332
  381TIP3    H122634   1.425   6.347   4.827 -0.3548  1.0859 -0.8876
  381TIP3    H222635   1.573   6.380   4.832 -0.4056  1.2028 -0.1234
  382TIP3   OH222636   0.665   5.504  14.860  0.4060  0.0633 -0.5933
  382TIP3    H122637   0.748   5.507  14.812  0.3242 -0.0952 -0.7465
  382TIP3    H222638   0.658   5.590  14.900  1.5017 -0.4798  0.8795
  383TIP3   OH222639   6.571   2.097   1.055  0.2006 -0.0201 -0.5409
  383TIP3    H122640   6.551   2.043   1.131 -0.7906 -2.5852 -2.4744
  383TIP3    H222641   6.486   2.120   1.018  0.6569  0.1708 -1.5068
  384TIP3   OH222642   3.805   4.502   4.279 -0.1852 -0.0395  0.5686
  384TIP3    H122643   3.855   4.584   4.284 -1.1078  0.5538  0.3245
  384TIP3    H222644   3.821   4.459   4.362 -1.8400  1.6763  1.8669
  385TIP3   OH222645   2.816   4.432  10.724  0.1857 -0.2411  0.1830
  385TIP3    H122646   2.856   4.519  10.725  2.9045 -1.3619  0.6769
  385TIP3    H222647   2.890   4.373  10.706 -1.7245 -2.3835 -1.0450
  386TIP3   OH222648   2.378   3.516   2.370 -0.1367  0.5638  0.4946
  386TIP3    H122649   2.464   3.547   2.398 -0.6659  2.1146  0.4753
  386TIP3    H222650   2.344   3.586   2.314 -0.7243 -0.7604 -0.8895
  387TIP3   OH222651   6.473   5.017  16.411  0.7082  0.6793  0.0142
  387TIP3    H122652   6.426   5.065  16.343 -1.1285 -0.4762  0.3883
  387TIP3    H222653   6.474   5.077  16.486 -2.3967 -0.0170  0.7901
  388TIP3   OH222654   1.439   3.357   3.966  0.3454 -0.3229  0.2914
  388TIP3    H122655   1.378   3.405   3.910 -0.7603 -2.2441 -0.2624
  388TIP3    H222656   1.465   3.281   3.913  2.5687 -0.0397  0.8614
  389TIP3   OH222657   4.841   4.963   1.378  0.0270  0.2752  0.1551
  389TIP3    H122658   4.787   4.944   1.301 -0.1826  0.1374  0.3343
  389TIP3    H222659   4.854   4.878   1.420 -0.3962  0.4398  0.6215
  390TIP3   OH222660   6.281   0.988  17.081  0.0245 -0.1245 -0.2367
  390TIP3    H122661   6.259   1.073  17.119 -0.6824  0.6096 -2.1820
  390TIP3    H222662   6.373   0.975  17.102 -0.0842  0.6982  0.8372
  391TIP3   OH222663   3.024   0.181  12.782  0.4244  1.0202 -0.2806
  391TIP3    H122664   2.964   0.179  12.856 -0.6753  1.7870 -1.1164
  391TIP3    H222665   3.024   0.092  12.749 -1.5091  1.3192 -1.2080
  392TIP3   OH222666   5.576   6.166   2.674  0.2193  0.9952 -0.0331
  392TIP3    H122667   5.502   6.124   2.630 -0.7721  3.5123 -0.9097
  392TIP3    H222668   5.537   6.231   2.732  1.7186  2.7043 -0.8580
  393TIP3   OH222669   3.132   6.113   2.096 -0.4618 -0.1629 -0.5017
  393TIP3    H122670   3.041   6.118   2.064  0.1564 -0.8349 -2.5511
  393TIP3    H222671   3.145   6.020   2.114 -0.0989 -0.1165 -0.5221
  394TIP3   OH222672   0.628   6.225  12.972  0.1049  0.0294 -0.2733
  394TIP3    H122673   0.680   6.264  13.043 -1.2761 -0.5957  1.1453
  394TIP3    H222674   0.568   6.166  13.017  0.3128 -1.6732 -2.1443
  395TIP3   OH222675   2.078   3.977  16.633  0.0113 -0.1979  0.6614
  395TIP3    H122676   1.991   3.980  16.673  0.4270  0.7166  1.5673
  395TIP3    H222677   2.105   4.069  16.628 -0.2648 -0.2140 -2.3552
  396TIP3   OH222678   0.885   1.884   0.911  0.7970 -0.0387  0.0570
  396TIP3    H122679   0.870   1.946   0.840 -0.3411 -1.8208 -1.3524
  396TIP3    H222680   0.837   1.806   0.886  2.5907 -1.7262  1.4745
  397TIP3   OH222681   4.361   5.563   6.385  0.1389 -0.3400 -0.0347
  397TIP3    H122682   4.391   5.535   6.471  0.0484  0.1102  0.1483
  397TIP3    H222683   4.389   5.655   6.379 -0.9006 -0.0093  0.0062
  398TIP3   OH222684   1.702   6.374   1.122 -0.0155 -0.2364  0.4718
  398TIP3    H122685   1.732   6.322   1.047 -0.8146  0.4478 -0.3506
  398TIP3    H222686   1.681   6.460   1.085 -0.5042  0.0918  1.4676
  399TIP3   OH222687   2.689   6.265  16.226  0.6173  0.4779 -0.4273
  399TIP3    H122688   2.605   6.301  16.255  0.3130 -0.6118  0.0911
  399TIP3    H222689   2.754   6.309  16.280  0.3795  1.2806 -0.7867
  400TIP3   OH222690   1.043   5.023  16.893  0.7466 -0.0907 -0.0530
  400TIP3    H122691   1.000   5.076  16.826  1.5338  0.1817 -0.3553
  400TIP3    H222692   1.129   5.063  16.904  0.4839  0.1305  1.4322
  401TIP3   OH222693   1.843   6.173  12.081 -0.2873  0.5641  0.0503
  401TIP3    H122694   1.835   6.250  12.137 -2.6973 -0.8475  1.8414
  401TIP3    H222695   1.780   6.110  12.117 -0.0487 -1.4320 -2.6815
  402TIP3   OH222696   2.247   0.787   3.973  0.0645  0.0484  0.0900
  402TIP3    H122697   2.217   0.739   3.896 -1.4421 -0.9574  1.2329
  402TIP3    H222698   2.166   0.819   4.014  0.9183  1.7660  0.5190
  403TIP3   OH222699   6.848   6.521   4.227 -0.6565 -0.2407 -0.3584
  403TIP3    H122700   6.943   6.516   4.221 -0.5682 -0.0486  0.7102
  403TIP3    H222701   6.825   6.453   4.291 -1.4371 -1.7089 -2.1137
  404TIP3   OH222702   1.993   0.629   2.634  0.8443 -0.1255  0.5970
  404TIP3    H122703   1.939   0.566   2.681  1.3040 -0.1712  1.0741
  404TIP3    H222704   2.018   0.583   2.553 -0.2642  0.0964  0.1132
  405TIP3   OH222705   3.072   1.358  16.689  0.0462  0.1783 -0.1762
  405TIP3    H122706   3.074   1.449  16.661 -0.7439 -0.4085 -2.3479
  405TIP3    H222707   3.164   1.330  16.686  0.2390  0.7686  0.0695
  406TIP3   OH222708   4.729   1.355  16.148  0.3529 -0.7826  0.1620
  406TIP3    H122709   4.814   1.383  16.114  0.3105  0.2782  0.8632
  406TIP3    H222710   4.713   1.270  16.107  1.2709 -0.5240 -0.7758
  407TIP3   OH222711   5.678   1.150   0.602 -0.2565 -0.6856  0.3897
  407TIP3    H122712   5.623   1.075   0.578  0.2953 -0.8659 -0.3646
  407TIP3    H222713   5.628   1.196   0.669 -2.5233  0.5523 -1.9966
  408TIP3   OH222714   1.154   4.092   1.757 -0.1787 -0.0563  0.7215
  408TIP3    H122715   1.214   4.026   1.790 -1.0182 -1.1352  0.1835
  408TIP3    H222716   1.173   4.097   1.663 -0.8594 -0.3576  0.5585
  409TIP3   OH222717   5.931   5.039  16.718 -0.1413 -0.2381  0.0234
  409TIP3    H122718   5.983   4.980  16.773  2.0549  2.3964  0.9399
  409TIP3    H222719   5.984   5.051  16.640  0.1201  1.5512  0.4475
  410TIP3   OH222720   1.568   6.727   4.961 -0.5925 -0.3236 -0.1612
  410TIP3    H122721   1.541   6.806   4.913  0.1464  0.1428  0.1610
  410TIP3    H222722   1.510   6.658   4.929 -2.2943  0.6575  0.6472
  411TIP3   OH222723   1.268   4.134   1.472 -0.1686 -0.9241  0.3135
  411TIP3    H122724   1.289   4.126   1.379 -0.1566  0.1328  0.2098
  411TIP3    H222725   1.344   4.179   1.510 -1.1411  0.7647  0.3756
  412TIP3   OH222726   6.839   3.444  14.186  0.8701  0.4198 -0.7466
  412TIP3    H122727   6.824   3.465  14.094 -1.5135  0.3628 -0.4421
  412TIP3    H222728   6.859   3.350  14.186 -1.1430 -0.0546 -1.0987
  413TIP3   OH222729   3.290   4.686   0.918  0.6668 -0.7057 -0.3022
  413TIP3    H122730   3.370   4.653   0.877  1.8821  2.0547 -0.4084
  413TIP3    H222731   3.321   4.745   0.986 -1.2820  0.3965 -0.2893
  414TIP3   OH222732   2.543   3.996   0.276 -0.0565  0.0128 -0.0533
  414TIP3    H122733   2.608   4.064   0.295  1.3538 -0.8777 -1.3729
  414TIP3    H222734   2.569   3.922   0.332 -0.7824  0.0917  0.4051
  415TIP3   OH222735   4.599   2.273   6.468  0.4405  0.1679  0.1553
  415TIP3    H122736   4.631   2.199   6.521 -1.3997 -1.0884 -0.4036
  415TIP3    H222737   4.506   2.279   6.489  0.0229  0.7231 -1.6734
  416TIP3   OH222738   0.542   3.492  14.091  0.4498 -0.6930  0.3850
  416TIP3    H122739   0.593   3.499  14.172 -0.2340  0.8453  0.7294
  416TIP3    H222740   0.471   3.432  14.114 -1.3918  1.8692  1.9361
  417TIP3   OH222741   4.554   2.585  11.745 -0.0399 -0.0848  0.4157
  417TIP3    H122742   4.511   2.531  11.811  1.1707 -0.5723  0.8363
  417TIP3    H222743   4.594   2.656  11.795 -1.8857  1.4328 -0.1628
  418TIP3   OH222744   3.582   4.070  15.608  0.2157 -0.1482 -0.1159
  418TIP3    H122745   3.509   4.017  15.639  0.5301 -0.7629 -0.3948
  418TIP3    H222746   3.647   4.006  15.578  0.4851  0.4017 -0.7406
  419TIP3   OH222747   1.438   3.379   2.627  0.5980  0.2781 -0.2728
  419TIP3    H122748   1.467   3.412   2.542 -0.6610  0.9566 -0.4596
  419TIP3    H222749   1.500   3.416   2.690  1.7625 -0.5345 -0.9172
  420TIP3   OH222750   2.843   6.164  14.828 -0.4692  0.7536 -0.0526
  420TIP3    H122751   2.786   6.225  14.875 -1.1684  0.0937 -0.0316
  420TIP3    H222752   2.798   6.080  14.833 -0.2281  0.5366 -1.3493
  421TIP3   OH222753   4.568   0.959   1.774 -0.6822  0.3545 -0.0545
  421TIP3    H122754   4.544   1.051   1.762  1.1244  0.8970  0.1923
  421TIP3    H222755   4.657   0.953   1.739 -0.3537 -1.0548  0.9411
  422TIP3   OH222756   5.007   3.540  15.062 -0.0377  0.1995 -0.6009
  422TIP3    H122757   5.041   3.481  15.129  0.2844 -2.1560 -2.6892
  422TIP3    H222758   4.927   3.497  15.032  0.4348  0.5575 -2.4837
  423TIP3   OH222759   3.445   2.871   0.702  0.0758 -0.0616 -0.0046
  423TIP3    H122760   3.426   2.780   0.679 -0.0705 -0.2338  0.7735
  423TIP3    H222761   3.422   2.921   0.624 -2.0284 -0.4282  0.3139
  424TIP3   OH222762   3.948   5.761  15.388  0.7565 -0.5625  0.3632
  424TIP3    H122763   3.988   5.828  15.332 -0.5404  0.7418  0.9052
  424TIP3    H222764   3.998   5.682  15.371  0.5948 -0.1786 -2.4793
  425TIP3   OH222765   2.293   4.483   5.376  0.0754  0.3087 -0.2930
  425TIP3    H122766   2.269   4.413   5.315  1.9089  1.0943 -2.0183
  425TIP3    H222767   2.304   4.560   5.321 -0.6757  1.7058  1.4029
  426TIP3   OH222768   3.527   3.959  16.290  0.7053  0.2038  0.3072
  426TIP3    H122769   3.541   3.883  16.233  0.0648  1.1139 -1.1372
  426TIP3    H222770   3.612   3.975  16.330  1.2744 -0.2868 -0.6620
  427TIP3   OH222771   4.030   1.298  11.580 -0.5783  0.2313 -0.2552
  427TIP3    H122772   4.085   1.347  11.642 -0.7382  0.8517 -0.6017
  427TIP3    H222773   4.088   1.229  11.547 -0.4716 -0.0771  0.5359
  428TIP3   OH222774   3.549   3.536  14.904  0.2145 -0.0443 -0.3382
  428TIP3    H122775   3.645   3.535  14.902  0.2135 -0.8307 -0.3253
  428TIP3    H222776   3.526   3.628  14.891  0.9054 -0.1719 -2.8407
  429TIP3   OH222777   5.433   2.798   5.843  0.2021  0.2133  0.4905
  429TIP3    H122778   5.393   2.835   5.922 -1.4412 -0.1335 -0.1215
  429TIP3    H222779   5.382   2.835   5.771  2.6122  1.7038 -0.5764
  430TIP3   OH222780   3.220   3.550  16.470 -0.4801 -0.0944  0.1960
  430TIP3    H122781   3.141   3.495  16.472  0.4567 -1.4581  1.0163
  430TIP3    H222782   3.232   3.578  16.561 -0.4454  0.7578 -0.0610
  431TIP3   OH222783   6.348   2.981  12.204  0.2484 -0.2884  0.3903
  431TIP3    H122784   6.350   2.885  12.204  0.2203 -0.2894  0.1811
  431TIP3    H222785   6.304   3.004  12.286 -2.0155 -0.5091 -0.6852
  432TIP3   OH222786   4.881   2.183  14.652  0.4310 -0.1101 -0.3365
  432TIP3    H122787   4.874   2.272  14.619  0.2936  0.4130  1.0676
  432TIP3    H222788   4.796   2.144  14.634 -0.6081  1.0317  1.8029
  433TIP3   OH222789   1.958   1.401   2.695 -0.6625  0.3771 -0.4085
  433TIP3    H122790   1.868   1.416   2.724 -0.7828 -1.0425  0.0285
  433TIP3    H222791   1.957   1.313   2.658  0.2001  0.9652 -1.9025
  434TIP3   OH222792   2.176   0.203  15.931  0.0849 -0.4549 -0.1879
  434TIP3    H122793   2.152   0.195  16.023  0.3943  1.0468  0.0452
  434TIP3    H222794   2.097   0.174  15.883 -0.8593  0.7790  0.5615
  435TIP3   OH222795   6.278   1.904   3.798  0.1397  0.0226  0.1327
  435TIP3    H122796   6.308   1.902   3.707 -0.4826 -0.1407 -0.0729
  435TIP3    H222797   6.235   1.819   3.811 -0.3593  0.3105  0.3795
  436TIP3   OH222798   6.565   6.641  16.690 -0.3381  0.4784  0.4825
  436TIP3    H122799   6.531   6.730  16.685  0.2636  0.6420 -1.4195
  436TIP3    H222800   6.655   6.647  16.658  0.0679 -0.6533  1.3362
  437TIP3   OH222801   1.794   1.398   4.490 -0.1464  0.2009 -0.2495
  437TIP3    H122802   1.861   1.459   4.520 -0.0987  0.4645 -0.8759
  437TIP3    H222803   1.751   1.444   4.418 -0.4788 -0.2824 -0.3609
  438TIP3   OH222804   2.013   1.005  12.159  0.1421  0.6335 -0.5594
  438TIP3    H122805   2.019   0.970  12.248  0.0838  2.3087  0.1522
  438TIP3    H222806   1.985   1.096  12.172  0.9327  1.1487 -2.2464
  439TIP3   OH222807   6.397   1.218   3.212 -0.2090  0.0903  0.7033
  439TIP3    H122808   6.440   1.196   3.295 -0.2674 -0.6873  0.5385
  439TIP3    H222809   6.454   1.284   3.172  1.2390 -1.3863  0.1914
  440TIP3   OH222810   2.074   5.372  16.554 -0.5964  0.4643  0.0642
  440TIP3    H122811   2.085   5.434  16.626 -1.8911  0.2925  0.4376
  440TIP3    H222812   2.029   5.422  16.486 -0.4132  0.3030 -0.1790
  441TIP3   OH222813   4.680   4.270  12.773  0.2371 -0.0265  0.2214
  441TIP3    H122814   4.619   4.302  12.706  1.4619  0.8329 -0.5192
  441TIP3    H222815   4.624   4.248  12.848 -1.2084 -1.2981 -1.1444
  442TIP3   OH222816   6.649   6.354  15.875 -0.0075  0.0152 -0.1954
  442TIP3    H122817   6.645   6.265  15.909 -0.9222  0.6194  1.3583
  442TIP3    H222818   6.561   6.372  15.842 -0.0255  0.5927  0.1596
  443TIP3   OH222819   4.936   4.690   3.120 -0.0716 -0.1390  0.2752
  443TIP3    H122820   4.857   4.730   3.085 -0.3900 -1.4897 -0.6237
  443TIP3    H222821   5.002   4.704   3.052  0.0294 -0.3943  0.3185
  444TIP3   OH222822   0.065   5.580  17.027 -0.1836 -0.3110 -0.5548
  444TIP3    H122823  -0.029   5.580  17.015 -0.3846 -1.2685  0.7571
  444TIP3    H222824   0.099   5.636  16.957 -1.6475 -0.5682 -1.5046
  445TIP3   OH222825   2.887   2.337  16.941 -0.5045 -0.6925  0.0209
  445TIP3    H122826   2.815   2.359  16.882  0.4585  0.2024 -0.8586
  445TIP3    H222827   2.854   2.263  16.993 -1.4145 -1.4722 -1.5909
  446TIP3   OH222828   0.064   6.760   2.373 -0.2431 -0.1668 -0.0220
  446TIP3    H122829   0.059   6.842   2.324 -1.4532 -0.1689  0.0626
  446TIP3    H222830   0.126   6.707   2.324 -3.3774 -1.2556 -3.2791
  447TIP3   OH222831   3.627   4.436   0.878 -0.3467 -0.3847  0.0194
  447TIP3    H122832   3.718   4.452   0.853 -0.3055 -2.6752 -1.5658
  447TIP3    H222833   3.578   4.509   0.841  0.7246  0.5026  0.2896
  448TIP3   OH222834   4.610   0.106  14.819 -0.1354 -0.5171 -0.6185
  448TIP3    H122835   4.583   0.134  14.732 -2.2858  1.6995  0.6303
  448TIP3    H222836   4.686   0.160  14.839  0.5139 -1.2033 -1.1709
  449TIP3   OH222837   0.305   5.337  16.045  0.5359 -0.2643  0.4764
  449TIP3    H122838   0.341   5.249  16.039  0.1397 -0.3801 -0.2149
  449TIP3    H222839   0.211   5.326  16.034  0.6925  0.4946 -2.3779
  450TIP3   OH222840   6.780   0.079  13.051  0.8570 -0.4261  0.6857
  450TIP3    H122841   6.811   0.036  12.971  0.6359 -0.0593  0.4022
  450TIP3    H222842   6.747   0.164  13.022  0.7559 -0.2977  1.1649
  451TIP3   OH222843   6.595   0.340   5.671  0.0088 -0.6160 -0.5109
  451TIP3    H122844   6.527   0.379   5.725  0.1456  0.1242 -0.8641
  451TIP3    H222845   6.575   0.247   5.670 -0.3470 -0.5565  0.3101
  452TIP3   OH222846   2.724   5.044  17.082  0.1151  0.0895  0.2524
  452TIP3    H122847   2.726   5.095  17.001 -0.0029  0.6723  0.6062
  452TIP3    H222848   2.740   5.109  17.151 -1.8915 -0.0235  0.8794
  453TIP3   OH222849   0.566   4.776  17.112  0.4744  0.6670 -0.5648
  453TIP3    H122850   0.605   4.774  17.025  3.0956  1.3565  0.4883
  453TIP3    H222851   0.632   4.819  17.167 -1.0808  0.2769  1.7668
  454TIP3   OH222852   3.096   2.135   0.393 -0.0084  0.1281 -0.4324
  454TIP3    H122853   3.135   2.210   0.439 -0.9426  0.8843 -0.8326
  454TIP3    H222854   3.044   2.091   0.461 -0.6200  0.6888 -0.5322
  455TIP3   OH222855   6.602   1.290   4.221 -0.7679  0.1635  0.0134
  455TIP3    H122856   6.517   1.297   4.265 -0.8291 -0.7769  0.0504
  455TIP3    H222857   6.644   1.214   4.261 -0.1858  0.2241 -0.4764
  456TIP3   OH222858   2.929   5.654   2.347 -0.0170 -0.1031 -0.2665
  456TIP3    H122859   2.999   5.640   2.282 -0.0815  0.8243 -0.5456
  456TIP3    H222860   2.975   5.655   2.431 -0.0083 -1.9759 -0.1926
  457TIP3   OH222861   4.693   5.984  15.812 -0.1635  0.3459 -0.4943
  457TIP3    H122862   4.616   5.930  15.834 -0.0834 -0.0370 -1.1244
  457TIP3    H222863   4.698   5.980  15.716 -0.0257  1.3041 -0.5385
  458TIP3   OH222864   0.362   2.950  12.541 -0.3406  0.6548  0.0593
  458TIP3    H122865   0.273   2.982  12.556  0.1513  2.9669 -1.4693
  458TIP3    H222866   0.370   2.943  12.446  1.0365  0.1959  0.1814
  459TIP3   OH222867   1.750   0.802  15.637 -0.8688 -0.0489 -0.0131
  459TIP3    H122868   1.809   0.738  15.678 -2.5068 -2.4681 -1.2164
  459TIP3    H222869   1.688   0.825  15.706 -0.8482 -0.5292  0.1726
  460TIP3   OH222870   2.799   0.191   0.331 -0.2652  0.0532  0.1451
  460TIP3    H122871   2.802   0.231   0.418  0.5922  1.0636 -0.3304
  460TIP3    H222872   2.883   0.147   0.322 -0.7931 -1.0120  0.2499
  461TIP3   OH222873   2.172   4.292  16.291  0.2213  0.1646 -0.4751
  461TIP3    H122874   2.144   4.204  16.265 -0.8984  1.3154 -3.5448
  461TIP3    H222875   2.223   4.323  16.217  1.3930  1.8211  0.9532
  462TIP3   OH222876   5.809   4.832   5.991 -0.3345  0.2969  0.3723
  462TIP3    H122877   5.847   4.814   6.077  0.6090 -0.0528 -0.0993
  462TIP3    H222878   5.813   4.927   5.982 -1.8901  0.4871  1.3424
  463TIP3   OH222879   1.017   4.714  14.233  0.6141  0.0369 -0.1723
  463TIP3    H122880   0.948   4.774  14.206 -0.1101 -1.5018 -1.8962
  463TIP3    H222881   1.050   4.752  14.315 -1.0856  1.7249 -0.1933
  464TIP3   OH222882   4.306   5.590  11.394 -0.0583  0.1657  0.5434
  464TIP3    H122883   4.350   5.624  11.316 -0.0649 -0.4921  0.2459
  464TIP3    H222884   4.274   5.503  11.367  1.0048 -0.5975  1.6497
  465TIP3   OH222885   2.752   5.226  11.858  1.0193  0.1396 -0.3575
  465TIP3    H122886   2.834   5.264  11.889  1.5429 -1.4730  0.3410
  465TIP3    H222887   2.729   5.162  11.925 -1.1242  0.9326 -0.2471
  466TIP3   OH222888   0.895   5.894  14.067 -0.2881  0.1205  0.1596
  466TIP3    H122889   0.826   5.941  14.115 -0.5213  0.9202 -0.9275
  466TIP3    H222890   0.887   5.803  14.098 -3.3526 -0.3376 -1.5236
  467TIP3   OH222891   1.737   2.526  16.536 -0.1784 -0.3568  0.3808
  467TIP3    H122892   1.650   2.547  16.571 -1.1596 -0.9746 -1.5376
  467TIP3    H222893   1.732   2.434  16.510  0.3633  0.1009 -1.5420
  468TIP3   OH222894   2.980   5.050  16.727 -0.6692 -0.3269 -0.0630
  468TIP3    H122895   2.994   4.973  16.782 -1.6434 -0.5239 -0.0638
  468TIP3    H222896   3.054   5.107  16.745  0.4773 -1.5984 -0.6394
  469TIP3   OH222897   4.721   1.204  15.789 -0.4676 -0.5798 -0.1070
  469TIP3    H122898   4.663   1.280  15.796 -0.3870 -0.5945  0.8896
  469TIP3    H222899   4.691   1.158  15.711 -1.7517 -0.5410  0.3422
  470TIP3   OH222900   1.767   3.899   0.730 -0.1881  0.0649 -0.2733
  470TIP3    H122901   1.794   3.981   0.771  3.7619 -1.5925  1.0243
  470TIP3    H222902   1.770   3.835   0.801 -0.5115 -1.6430 -1.7265
  471TIP3   OH222903   0.929   3.307   1.710  0.6676  0.1386 -0.5672
  471TIP3    H122904   0.903   3.398   1.699 -0.2562  0.0387  0.6968
  471TIP3    H222905   0.999   3.310   1.775 -0.9672 -0.2311  1.3052
  472TIP3   OH222906   6.430   1.744   0.541  0.3418  0.7562 -0.0975
  472TIP3    H122907   6.380   1.791   0.474 -0.6017 -0.0809 -0.0098
  472TIP3    H222908   6.365   1.723   0.609  1.0603  0.6631  0.5760
  473TIP3   OH222909   1.340   2.996  13.269 -0.1044  0.3232 -0.7824
  473TIP3    H122910   1.435   2.997  13.259  0.0233 -0.3358  0.2202
  473TIP3    H222911   1.326   2.999  13.363 -1.0661 -0.0789 -0.9012
  474TIP3   OH222912   0.368   5.155   0.665 -0.2825 -0.0628  0.0553
  474TIP3    H122913   0.393   5.246   0.677 -0.3157 -0.0956  0.3847
  474TIP3    H222914   0.310   5.155   0.589 -0.6310  0.2501  0.3171
  475TIP3   OH222915   0.294   4.872  13.236  0.6543 -0.8071 -0.2102
  475TIP3    H122916   0.353   4.860  13.310  0.9593 -0.4947 -0.3999
  475TIP3    H222917   0.313   4.961  13.204 -2.6432  0.9864  2.1932
  476TIP3   OH222918   0.194   4.699   3.639  0.4363  0.2863  0.0556
  476TIP3    H122919   0.137   4.776   3.641 -0.1367 -0.1362  0.3206
  476TIP3    H222920   0.212   4.686   3.546 -1.8781 -0.9825 -0.2943
  477TIP3   OH222921   4.907   3.335  11.454 -0.0080  0.1197 -0.1161
  477TIP3    H122922   4.924   3.301  11.542 -0.3280 -1.3352 -0.5867
  477TIP3    H222923   4.838   3.400  11.467  0.3339  0.3196  0.7741
  478TIP3   OH222924   1.908   0.865  12.659  0.2413  0.1214  0.0684
  478TIP3    H122925   1.876   0.775  12.665 -0.8100  0.5693  1.9388
  478TIP3    H222926   1.943   0.885  12.746  0.5534  1.4772 -0.3322
  479TIP3   OH222927   6.550   4.011   1.613 -0.0306 -0.5230  0.1386
  479TIP3    H122928   6.463   4.051   1.620  0.6587  1.6500 -1.9883
  479TIP3    H222929   6.536   3.931   1.563 -0.9721 -0.9879  1.1114
  480TIP3   OH222930   0.570   0.200   4.881 -0.2991  0.0791  0.4382
  480TIP3    H122931   0.613   0.279   4.913  0.9056 -0.0065 -0.8891
  480TIP3    H222932   0.483   0.229   4.853  0.6658  1.3058 -1.4915
  481TIP3   OH222933   3.955   5.862   1.140 -0.4698  0.1662 -0.4666
  481TIP3    H122934   3.896   5.876   1.066 -1.6341 -0.5521  0.2905
  481TIP3    H222935   4.040   5.844   1.099 -0.6471  1.6108 -1.5755
  482TIP3   OH222936   6.241   0.220   4.165  0.3680 -0.2330  0.2207
  482TIP3    H122937   6.154   0.216   4.127  0.5935  0.0828 -0.3425
  482TIP3    H222938   6.300   0.233   4.091  0.6796  2.0298  0.7752
  483TIP3   OH222939   2.253   3.934   5.828 -0.4803  0.1436 -0.1888
  483TIP3    H122940   2.216   4.014   5.790  1.8279  0.9684 -0.8485
  483TIP3    H222941   2.316   3.965   5.893 -0.1643 -1.1667  0.1479
  484TIP3   OH222942   2.793   0.733  14.856 -0.5432 -0.2666  0.1735
  484TIP3    H122943   2.846   0.770  14.785 -0.7935  0.4431  0.3491
  484TIP3    H222944   2.838   0.652  14.879  1.6300  1.2317  1.6256
  485TIP3   OH222945   2.065   0.369  12.185  0.1332  0.3060  0.4141
  485TIP3    H122946   1.995   0.330  12.238 -0.2619  0.4919  0.0400
  485TIP3    H222947   2.095   0.298  12.129 -0.5471  0.5061 -0.2268
  486TIP3   OH222948   4.628   2.165   4.198  0.2406 -0.0330 -0.0540
  486TIP3    H122949   4.614   2.174   4.293  0.3617  1.0852 -0.1283
  486TIP3    H222950   4.597   2.248   4.162  1.3018  0.0270 -0.8720
  487TIP3   OH222951   1.276   2.541   2.412 -0.7573  0.0330 -0.2103
  487TIP3    H122952   1.316   2.515   2.495 -0.0985  0.2661 -0.4492
  487TIP3    H222953   1.248   2.459   2.372 -1.1900 -0.0730  0.2914
  488TIP3   OH222954   0.912   3.134  12.883 -0.1196  0.4955 -0.5486
  488TIP3    H122955   0.985   3.076  12.906 -0.0509  0.1572 -1.5695
  488TIP3    H222956   0.923   3.210  12.940 -0.7524 -0.8661  1.5184
  489TIP3   OH222957   4.472   3.449   1.760 -0.0343 -0.0344  0.3251
  489TIP3    H122958   4.530   3.472   1.688 -0.8412  0.4401 -0.1974
  489TIP3    H222959   4.384   3.470   1.728 -0.3323  1.3216  1.8736
  490TIP3   OH222960   2.931   2.388  13.248  0.0684 -0.5587 -0.2632
  490TIP3    H122961   2.976   2.351  13.325  0.8731 -0.5288 -0.7110
  490TIP3    H222962   2.935   2.483  13.262 -3.6842 -0.5107  1.8640
  491TIP3   OH222963   1.452   1.527   1.382  0.0638  0.0789  0.1079
  491TIP3    H122964   1.403   1.476   1.447  0.0967  0.5982  0.5487
  491TIP3    H222965   1.389   1.592   1.351 -0.9337 -1.9739 -2.6107
  492TIP3   OH222966   3.114   4.731  11.236 -0.9626 -0.3016  0.2795
  492TIP3    H122967   3.103   4.692  11.323 -1.0291 -0.7179  0.0887
  492TIP3    H222968   3.031   4.777  11.220  0.0198  2.1446  1.5778
  493TIP3   OH222969   1.781   5.242  15.925  0.0733  0.4120 -0.4120
  493TIP3    H122970   1.755   5.251  15.833 -3.1045 -0.8616  0.2489
  493TIP3    H222971   1.749   5.322  15.967 -0.9323 -0.2201  0.0461
  494TIP3   OH222972   2.802   0.993   0.284 -0.3394 -0.4771 -0.1010
  494TIP3    H122973   2.894   1.018   0.279 -0.8351  1.3261 -0.9139
  494TIP3    H222974   2.795   0.942   0.364  1.3326 -0.5302  0.0427
  495TIP3   OH222975   5.486   5.229   3.627  0.0855 -0.2085 -0.1934
  495TIP3    H122976   5.406   5.223   3.678  0.8205 -1.2470  0.9129
  495TIP3    H222977   5.485   5.317   3.589 -1.3270 -0.0442  0.1713
  496TIP3   OH222978   1.191   0.442  13.139 -0.3317  0.7410 -0.2948
  496TIP3    H122979   1.256   0.505  13.108  1.5557  0.0172  1.8698
  496TIP3    H222980   1.136   0.425  13.063  0.9969  2.6444 -1.7833
  497TIP3   OH222981   4.671   3.994   5.346 -0.3781  0.4896  0.3408
  497TIP3    H122982   4.626   4.069   5.386 -0.8047  0.8110 -0.7055
  497TIP3    H222983   4.628   3.917   5.383  0.7752  0.6928  2.2618
  498TIP3   OH222984   3.995   1.843  13.088  0.2900  0.4992  0.2804
  498TIP3    H122985   4.030   1.932  13.074 -0.7428  1.5004  3.2966
  498TIP3    H222986   3.901   1.855  13.096  0.3603 -0.3365  3.5923
  499TIP3   OH222987   4.852   6.550  10.518 -0.9089 -0.1741  0.0736
  499TIP3    H122988   4.922   6.615  10.524 -2.1539  1.1277  1.1967
  499TIP3    H222989   4.896   6.466  10.528  0.6990  0.5044 -1.0359
  500TIP3   OH222990   6.684   2.445  12.293 -0.5148  0.2266 -0.3683
  500TIP3    H122991   6.625   2.394  12.237 -0.7150  1.0959 -0.9677
  500TIP3    H222992   6.767   2.398  12.289 -0.5259  0.2703 -1.4085
  501TIP3   OH222993   3.690   2.891   2.392  0.3923 -0.4754  0.1977
  501TIP3    H122994   3.601   2.866   2.367  0.1022  1.4078 -0.7790
  501TIP3    H222995   3.716   2.824   2.456 -1.2819 -1.6995 -0.3236
  502TIP3   OH222996   4.222   0.066  14.049 -0.2482 -0.1710 -0.7397
  502TIP3    H122997   4.226   0.157  14.018 -0.3879  0.4691  0.9974
  502TIP3    H222998   4.306   0.028  14.022 -0.3628  0.3207 -1.8666
  503TIP3   OH222999   2.710   0.738  15.721  0.3007  0.2620  0.0092
  503TIP3    H123000   2.691   0.671  15.656  1.1402 -0.7555  0.7726
  503TIP3    H223001   2.712   0.691  15.804  1.0736  1.2020  0.5512
  504TIP3   OH223002   1.222   1.309   1.081  0.1547  0.2996 -0.1176
  504TIP3    H123003   1.314   1.284   1.084  0.1777  0.4123  0.1627
  504TIP3    H223004   1.195   1.312   1.173 -0.7547 -2.0484 -0.2598
  505TIP3   OH223005   2.316   3.485  13.003  0.0921  0.2723  0.2701
  505TIP3    H123006   2.366   3.406  13.024 -1.2576 -0.5175  0.6388
  505TIP3    H223007   2.311   3.485  12.908  0.5895  0.2312  0.2413
  506TIP3   OH223008   0.547   3.696   2.876 -0.6987  0.8141 -0.0093
  506TIP3    H123009   0.627   3.746   2.894 -0.5995  0.2369  1.2958
  506TIP3    H223010   0.496   3.752   2.818  1.7076  0.1620 -2.9841
  507TIP3   OH223011   2.019   5.624  13.777  0.4554  0.1250 -0.3299
  507TIP3    H123012   2.085   5.556  13.791  0.7152  0.4832  0.2468
  507TIP3    H223013   2.070   5.705  13.766  0.1131  0.4169  0.1940
  508TIP3   OH223014   5.832   0.519  12.245  0.1919  0.0658 -0.4115
  508TIP3    H123015   5.891   0.540  12.173  0.3166  0.5538 -0.1674
  508TIP3    H223016   5.748   0.499  12.203 -0.4742  2.8479 -0.5682
  509TIP3   OH223017   5.578   5.713   5.637  0.8292  0.0569 -0.1228
  509TIP3    H123018   5.563   5.620   5.656 -1.0873 -0.3432 -2.9498
  509TIP3    H223019   5.671   5.719   5.616  1.1170 -1.0510  0.7333
  510TIP3   OH223020   1.253   5.485  15.227 -0.2336 -0.6239 -0.1225
  510TIP3    H123021   1.175   5.431  15.242 -0.6344 -0.4003 -1.3109
  510TIP3    H223022   1.245   5.514  15.136  0.4339  0.7137  0.2214
  511TIP3   OH223023   3.213   2.044   1.794  0.0993 -0.2201  0.1585
  511TIP3    H123024   3.251   2.101   1.861  0.0509  1.0197 -0.8487
  511TIP3    H223025   3.142   1.998   1.840 -1.1073  1.9265  0.5649
  512TIP3   OH223026   4.481   5.781  13.332  0.0100  0.5198  0.3576
  512TIP3    H123027   4.472   5.690  13.303 -1.0446  1.0832 -1.2186
  512TIP3    H223028   4.558   5.813  13.285 -1.0682  1.1251 -1.0539
  513TIP3   OH223029   1.117   5.242   3.691  0.3029  0.4405  0.8930
  513TIP3    H123030   1.096   5.251   3.598 -0.6120  0.0797  1.0600
  513TIP3    H223031   1.193   5.184   3.693  1.0738  1.4082  0.3086
  514TIP3   OH223032   5.399   3.353  13.711  0.1688 -0.2230 -0.0935
  514TIP3    H123033   5.403   3.274  13.765  1.5305  0.1132  0.3470
  514TIP3    H223034   5.413   3.322  13.622  1.5339 -0.4201  0.1662
  515TIP3   OH223035   5.882   5.091  10.880 -0.4737 -0.7048 -0.1643
  515TIP3    H123036   5.956   5.105  10.821 -0.3417 -1.1873 -0.1166
  515TIP3    H223037   5.836   5.016  10.844 -1.8117  0.4700 -1.0416
  516TIP3   OH223038   5.093   6.254   5.710 -0.3322 -0.2757  0.4139
  516TIP3    H123039   5.156   6.307   5.759 -0.2971 -1.0219  1.2015
  516TIP3    H223040   5.022   6.237   5.771 -1.0848  0.1399 -0.3159
  517TIP3   OH223041   0.680   5.458   1.147  0.2147  0.1454  0.4457
  517TIP3    H123042   0.609   5.490   1.092 -0.4677 -0.8170  0.7508
  517TIP3    H223043   0.676   5.514   1.225  0.2284  0.5344  0.1699
  518TIP3   OH223044   1.698   2.138  12.792  0.0061 -0.5658 -0.0144
  518TIP3    H123045   1.755   2.158  12.867 -0.0139 -1.2031  0.1796
  518TIP3    H223046   1.758   2.108  12.724 -0.0993 -1.5079  0.2829
  519TIP3   OH223047   1.379   3.196   0.606  0.5809 -0.0349  0.0125
  519TIP3    H123048   1.293   3.154   0.609  0.9566 -0.7696  0.8872
  519TIP3    H223049   1.439   3.126   0.581  0.7833  0.7462 -1.8250
  520TIP3   OH223050   1.915   4.157   2.886  0.6508 -0.4146 -0.2316
  520TIP3    H123051   1.907   4.217   2.961  0.4138 -0.4938 -0.1949
  520TIP3    H223052   1.971   4.204   2.825 -2.6486  1.6353 -1.9636
  521TIP3   OH223053   6.171   5.150   5.453  0.1485  0.0441  0.1302
  521TIP3    H123054   6.187   5.150   5.358 -1.1173  1.9249 -0.1353
  521TIP3    H223055   6.166   5.057   5.476 -0.4564 -0.4560 -1.8291
  522TIP3   OH223056   4.608   6.584   4.544  0.4782 -0.4988  0.1744
  522TIP3    H123057   4.682   6.645   4.543  0.0292  0.0509 -0.1820
  522TIP3    H223058   4.558   6.606   4.465  0.0839 -1.0492  0.2681
  523TIP3   OH223059   3.306   0.552   4.574 -0.4579  0.7029  0.2412
  523TIP3    H123060   3.364   0.507   4.636  0.1000  0.6288 -0.3280
  523TIP3    H223061   3.282   0.633   4.619  0.9057  1.2141  0.0841
  524TIP3   OH223062   5.706   2.691   1.210  0.1677 -0.1675 -0.2479
  524TIP3    H123063   5.676   2.648   1.130  0.0944  1.4926 -1.1495
  524TIP3    H223064   5.705   2.784   1.189  2.8727  0.1644  0.7529
  525TIP3   OH223065   0.344   5.988  15.312 -1.0916 -0.0453  0.4778
  525TIP3    H123066   0.358   5.986  15.406 -2.1635 -0.1087  0.6480
  525TIP3    H223067   0.392   5.912  15.278 -1.2330 -0.3823  1.0395
  526TIP3   OH223068   6.286   2.149  12.707  0.0858 -0.2757 -0.2037
  526TIP3    H123069   6.258   2.142  12.798  3.2629 -2.8888  0.7859
  526TIP3    H223070   6.371   2.193  12.712  0.2037 -0.2607 -1.9282
  527TIP3   OH223071   2.549   4.008   0.560 -0.5693  0.6218  0.4487
  527TIP3    H123072   2.547   3.913   0.567 -0.2137  0.6149  0.4551
  527TIP3    H223073   2.641   4.030   0.546 -0.4471  1.0643  1.8145
  528TIP3   OH223074   0.969   2.415   0.464 -0.1686 -0.2366 -0.4709
  528TIP3    H123075   0.936   2.487   0.516  0.1571 -0.7564  0.4810
  528TIP3    H223076   0.983   2.452   0.377 -0.8207  0.6139 -0.2198
  529TIP3   OH223077   0.960   1.315   2.462  0.4600  0.1388  0.6115
  529TIP3    H123078   0.965   1.237   2.519 -2.2959 -0.2223  0.5106
  529TIP3    H223079   0.954   1.388   2.523 -0.3985 -0.0665  0.7914
  530TIP3   OH223080   1.927   2.317   5.111  0.2969  0.9415 -0.0735
  530TIP3    H123081   1.856   2.278   5.060  1.3828 -0.7570 -0.3525
  530TIP3    H223082   1.924   2.410   5.087  0.0056  0.4176 -2.3372
  531TIP3   OH223083   3.236   6.589   4.581 -0.2830  0.1807 -0.0358
  531TIP3    H123084   3.307   6.634   4.535 -1.2079  0.6049 -1.1093
  531TIP3    H223085   3.172   6.658   4.601 -2.3034 -0.7015 -2.7832
  532TIP3   OH223086   6.448   3.071  13.854  0.0521 -0.0804 -0.1028
  532TIP3    H123087   6.470   3.133  13.924  1.1955 -0.4787 -0.1042
  532TIP3    H223088   6.370   3.109  13.812  1.0095  1.6121 -0.4139
  533TIP3   OH223089   0.544   6.171  10.708 -0.4575 -0.1002 -0.3376
  533TIP3    H123090   0.569   6.088  10.667  0.5652 -0.0953  0.2267
  533TIP3    H223091   0.449   6.176  10.697 -0.2443  0.0211 -2.9077
  534TIP3   OH223092   1.315   2.359   0.493 -0.8041 -0.5978  0.2735
  534TIP3    H123093   1.381   2.364   0.563 -0.0370 -0.0848 -0.4669
  534TIP3    H223094   1.296   2.266   0.484  0.1633 -0.7930  0.1898
  535TIP3   OH223095   6.348   1.187  12.288 -0.0040 -0.3270  0.1090
  535TIP3    H123096   6.443   1.182  12.299 -0.0149 -2.9508 -0.3806
  535TIP3    H223097   6.332   1.151  12.201 -1.5076 -0.8042  0.5647
  536TIP3   OH223098   2.333   1.345  14.934  0.0410 -0.3943  0.0835
  536TIP3    H123099   2.339   1.437  14.959  0.0694 -0.5918  0.8599
  536TIP3    H223100   2.240   1.331  14.917  0.2607  0.1909 -1.7906
  537TIP3   OH223101   0.219   2.787  14.175  0.4116  0.9666 -0.2829
  537TIP3    H123102   0.272   2.866  14.176  2.8299 -0.5655 -0.3051
  537TIP3    H223103   0.258   2.733  14.106 -0.7567 -0.5151  0.1630
  538TIP3   OH223104   4.636   2.016  14.119  0.1733  0.3319  0.0463
  538TIP3    H123105   4.633   1.969  14.035  1.1563 -0.7149  0.5707
  538TIP3    H223106   4.581   1.964  14.177 -1.2622  1.5522 -0.1394
  539TIP3   OH223107   5.517   1.430  14.502  0.0793 -0.6784 -0.3377
  539TIP3    H123108   5.514   1.337  14.526  1.8560 -0.5941  0.3079
  539TIP3    H223109   5.586   1.467  14.556  0.2832  0.7667 -1.5272
  540TIP3   OH223110   5.396   2.441   5.510 -0.0205 -0.5057  0.2837
  540TIP3    H123111   5.432   2.386   5.441 -0.3137 -0.3174 -0.0233
  540TIP3    H223112   5.313   2.399   5.533  0.6853 -1.3258  1.4674
  541TIP3   OH223113   6.283   0.075   4.731 -0.4737 -0.3548 -0.2942
  541TIP3    H123114   6.232  -0.004   4.746 -1.0194 -0.2623 -1.5173
  541TIP3    H223115   6.266   0.130   4.807  0.7057 -1.7914  1.0767
  542TIP3   OH223116   5.387   5.705  15.459  0.1827 -0.3565  0.0376
  542TIP3    H123117   5.364   5.644  15.529 -0.3209 -0.7702 -0.4762
  542TIP3    H223118   5.319   5.692  15.393 -0.6689  1.6640  0.4565
  543TIP3   OH223119   3.323   0.607  11.157 -0.3058 -0.3720 -0.2823
  543TIP3    H123120   3.229   0.587  11.166 -0.0131 -1.8762 -0.2701
  543TIP3    H223121   3.358   0.596  11.245  0.1787 -1.6199 -0.6082
  544TIP3   OH223122   6.197   4.621  12.713 -0.4216  0.1154 -0.1262
  544TIP3    H123123   6.229   4.540  12.674 -0.5775 -0.3274  0.6515
  544TIP3    H223124   6.246   4.690  12.669  0.9452 -0.4941  0.4017
  545TIP3   OH223125   5.023   5.114   3.048 -0.0638 -0.4973 -0.1175
  545TIP3    H123126   5.073   5.096   3.128 -1.2949  0.8053  0.9896
  545TIP3    H223127   5.020   5.209   3.043  0.9064 -0.5357 -2.3506
  546TIP3   OH223128   3.828   1.599   2.752 -0.7676 -0.1387 -0.3100
  546TIP3    H123129   3.869   1.670   2.703 -0.6235 -0.8579 -1.2713
  546TIP3    H223130   3.846   1.619   2.844 -1.5394  1.5497 -0.5037
  547TIP3   OH223131   5.353   6.561  10.918 -0.2379  0.0507 -0.6532
  547TIP3    H123132   5.349   6.468  10.940 -1.2477  0.6163  2.0597
  547TIP3    H223133   5.412   6.566  10.843 -0.1046 -2.7435 -0.8429
  548TIP3   OH223134   3.293   1.053   2.697  0.1950 -0.0006  0.1063
  548TIP3    H123135   3.276   1.104   2.618 -1.2940  0.7886  0.8944
  548TIP3    H223136   3.386   1.033   2.693  0.3042  0.6765 -1.4585
  549TIP3   OH223137   3.364   2.834   6.135 -0.1138 -0.4909 -0.2289
  549TIP3    H123138   3.437   2.854   6.194 -0.4394  1.4254 -0.3996
  549TIP3    H223139   3.287   2.831   6.192 -0.2417 -0.0137 -0.3749
  550TIP3   OH223140   3.622   2.350  13.284  0.4360 -0.0478  0.2085
  550TIP3    H123141   3.710   2.363  13.320  0.5000 -0.3261  0.1559
  550TIP3    H223142   3.608   2.425  13.227  1.3423 -0.8882 -1.1702
  551TIP3   OH223143   0.108   2.407   0.030 -0.0900 -0.5168  0.3740
  551TIP3    H123144   0.146   2.369   0.109  1.5065 -0.6356 -0.3987
  551TIP3    H223145   0.081   2.495   0.056  1.5117 -0.1110  0.8110
  552TIP3   OH223146   0.100   0.386  15.434 -0.9106 -0.2419  0.8215
  552TIP3    H123147   0.146   0.361  15.353 -0.3642  1.8383  0.4214
  552TIP3    H223148   0.155   0.353  15.504  0.2787  0.6644  0.3362
  553TIP3   OH223149   3.094   6.581   0.830 -0.0018 -0.6194 -0.2606
  553TIP3    H123150   3.042   6.610   0.905 -1.2987  0.5591 -1.5472
  553TIP3    H223151   3.173   6.634   0.835 -0.7515  0.5678 -0.5390
  554TIP3   OH223152   1.334   5.925  15.866  0.0580  0.4185 -0.1584
  554TIP3    H123153   1.357   6.007  15.909 -1.2984  0.4083  0.6645
  554TIP3    H223154   1.415   5.894  15.827  0.4842  2.4292 -0.9869
  555TIP3   OH223155   5.899   5.898   4.413  0.0248  0.7650  0.0806
  555TIP3    H123156   5.979   5.882   4.464  0.8020  3.0421 -0.3171
  555TIP3    H223157   5.841   5.826   4.436  1.6528 -0.1482  1.5195
  556TIP3   OH223158   4.389   5.258   0.048  0.3657 -0.2790  0.1207
  556TIP3    H123159   4.414   5.306   0.127 -1.3850 -1.0110  1.1627
  556TIP3    H223160   4.377   5.168   0.077  0.3190 -0.6991 -1.1223
  557TIP3   OH223161   1.547   4.138   5.947  0.5285  0.3047  0.5943
  557TIP3    H123162   1.559   4.043   5.940 -1.0467  0.1012  0.0717
  557TIP3    H223163   1.617   4.176   5.894  0.5878 -0.6133 -0.0040
  558TIP3   OH223164   6.495   1.454   1.591  0.7182 -0.3269 -0.5199
  558TIP3    H123165   6.562   1.517   1.616  0.3671 -0.3860  0.6406
  558TIP3    H223166   6.543   1.373   1.575  0.9558 -0.3215  0.1337
  559TIP3   OH223167   5.203   1.574   6.721 -0.2834  0.2675  0.3714
  559TIP3    H123168   5.235   1.607   6.637  0.0732  0.5807  0.6268
  559TIP3    H223169   5.231   1.483   6.724  0.0110  0.3544  0.3011
  560TIP3   OH223170   4.641   4.736  12.074 -0.5311  0.4094 -0.0463
  560TIP3    H123171   4.577   4.681  12.028  0.4105  1.1594 -2.4414
  560TIP3    H223172   4.715   4.740  12.014  0.2197  2.6672  0.9367
  561TIP3   OH223173   1.911   0.531  11.995 -0.1479 -0.4478 -0.0170
  561TIP3    H123174   1.843   0.579  12.042  0.4035 -0.0209  0.3571
  561TIP3    H223175   1.960   0.485  12.063 -0.5500 -1.3980 -0.3583
  562TIP3   OH223176   4.747   6.662   6.200  0.2774  0.0063 -0.1352
  562TIP3    H123177   4.666   6.678   6.249 -0.0352 -0.3879 -0.5127
  562TIP3    H223178   4.719   6.611   6.124  0.9146 -0.3099 -0.1637
  563TIP3   OH223179   1.458   4.296  10.785  0.4021 -0.6371  0.1445
  563TIP3    H123180   1.414   4.292  10.700  0.5689 -0.1442  0.0334
  563TIP3    H223181   1.443   4.209  10.823  1.0928 -1.1814 -0.7644
  564TIP3   OH223182   4.845   6.497   5.919 -0.1567 -0.6395  0.0582
  564TIP3    H123183   4.834   6.445   5.998  0.4029 -0.8392  0.0094
  564TIP3    H223184   4.766   6.552   5.914  0.2290  0.0482  1.2594
  565TIP3   OH223185   4.731   6.515   3.890 -0.2975  0.0845  0.1196
  565TIP3    H123186   4.659   6.576   3.875  0.7907  0.7245 -3.5641
  565TIP3    H223187   4.808   6.570   3.898  0.1861 -0.7076  1.2099
  566TIP3   OH223188   5.321   2.074  10.981 -0.2783 -0.0572 -0.0086
  566TIP3    H123189   5.251   2.106  10.923 -0.5026  0.8687  0.7354
  566TIP3    H223190   5.278   2.008  11.035 -0.2807 -0.3218 -0.3311
  567TIP3   OH223191   0.050   4.896   0.777 -0.6120 -0.2649  0.4247
  567TIP3    H123192   0.095   4.948   0.844  0.7577  0.6158 -1.0878
  567TIP3    H223193  -0.006   4.959   0.731  0.1931 -0.3086 -0.6811
  568TIP3   OH223194   2.977   5.417  12.330  0.3609  0.2378  0.0423
  568TIP3    H123195   2.954   5.331  12.364  0.6699  1.0260  2.4718
  568TIP3    H223196   3.071   5.414  12.316  0.1370 -0.3132 -1.5930
  569TIP3   OH223197   4.185   5.085  11.683 -0.4641 -0.5954 -0.4196
  569TIP3    H123198   4.150   5.045  11.763  0.8933  0.0939  0.5533
  569TIP3    H223199   4.134   5.165  11.671 -1.3438 -1.2034 -0.8284
  570TIP3   OH223200   5.758   6.359   2.717 -0.3449 -0.2868  1.1039
  570TIP3    H123201   5.687   6.295   2.715  0.4450 -1.1653 -0.5630
  570TIP3    H223202   5.834   6.309   2.746 -0.1137  0.3585  1.6338
  571TIP3   OH223203   0.591   1.808   0.502  0.6764  0.5297  0.3427
  571TIP3    H123204   0.566   1.826   0.593 -1.3516  0.2176 -0.1115
  571TIP3    H223205   0.508   1.791   0.457  1.7942 -3.3006 -0.7206
  572TIP3   OH223206   2.125   1.313   3.208  0.0826  0.0517  0.0922
  572TIP3    H123207   2.105   1.302   3.301  1.5569 -0.6710  0.3525
  572TIP3    H223208   2.138   1.224   3.175 -1.9301  0.1859 -1.1909
  573TIP3   OH223209   4.517   5.699  14.541 -0.4390 -0.3035  0.3504
  573TIP3    H123210   4.454   5.630  14.519 -1.0739  0.6829 -1.0451
  573TIP3    H223211   4.602   5.663  14.516 -0.8040 -0.4758 -0.6795
  574TIP3   OH223212   0.799   0.077  12.136  0.7326 -0.9381 -0.1028
  574TIP3    H123213   0.775   0.094  12.045 -1.3220 -1.5608  0.2772
  574TIP3    H223214   0.786  -0.018  12.147  0.4699 -0.7945  0.9551
  575TIP3   OH223215   2.820   2.912   6.746 -0.1212 -0.2474  0.2438
  575TIP3    H123216   2.753   2.944   6.687  0.7120  0.1207 -0.5276
  575TIP3    H223217   2.825   2.818   6.729 -0.6524 -0.3325  0.5373
  576TIP3   OH223218   2.616   1.063   5.411  0.4229  0.1936  0.3781
  576TIP3    H123219   2.619   0.991   5.474 -0.2405 -0.7209 -0.5942
  576TIP3    H223220   2.548   1.037   5.349  1.1236  1.0189 -0.7642
  577TIP3   OH223221   3.707   3.120   5.614  0.1735 -0.2007 -0.6957
  577TIP3    H123222   3.740   3.179   5.681  2.4620 -0.1440 -1.7768
  577TIP3    H223223   3.654   3.175   5.557 -0.6295  0.0307  0.2514
  578TIP3   OH223224   1.676   6.448   4.975 -0.6027  0.0046 -0.0921
  578TIP3    H123225   1.673   6.540   5.002  1.5325  0.3622 -0.9321
  578TIP3    H223226   1.701   6.401   5.054  2.2864  0.6637 -0.5186
  579TIP3   OH223227   5.062   3.557  14.624 -0.7905 -0.0412 -0.2084
  579TIP3    H123228   4.981   3.606  14.612  0.1209  2.0895  1.4440
  579TIP3    H223229   5.130   3.614  14.587  0.2085 -0.4730  0.8811
  580TIP3   OH223230   6.295   1.994  16.786  0.2473 -0.2418 -0.3692
  580TIP3    H123231   6.233   2.046  16.837  2.1287  0.1065  1.7265
  580TIP3    H223232   6.339   2.057  16.730 -0.0468 -0.1981 -0.5525
  581TIP3   OH223233   3.063   1.736  14.341  0.1071  0.2340  0.3628
  581TIP3    H123234   3.035   1.645  14.340 -0.4291  0.3845  0.8126
  581TIP3    H223235   3.018   1.774  14.417  0.9428  0.6806  0.6464
  582TIP3   OH223236   5.046   6.553  12.668  0.3212  0.2841  0.1235
  582TIP3    H123237   5.136   6.559  12.637  0.0778 -0.9051 -0.9088
  582TIP3    H223238   5.047   6.595  12.754  1.2937  2.5330 -0.9239
  583TIP3   OH223239   1.201   4.395   3.221 -0.4288 -0.2373 -0.1554
  583TIP3    H123240   1.176   4.440   3.302 -0.3830 -1.2551  0.4428
  583TIP3    H223241   1.242   4.462   3.167 -3.5557  1.3460 -0.7962
  584TIP3   OH223242   6.180   0.624  12.756  0.4218 -0.0991  0.4586
  584TIP3    H123243   6.208   0.673  12.834  0.8996 -0.4148  0.4878
  584TIP3    H223244   6.135   0.688  12.702  1.6925  0.5478  0.1532
  585TIP3   OH223245   6.825   0.453  13.295 -0.0011 -0.2779  0.4234
  585TIP3    H123246   6.798   0.362  13.285 -0.1692 -0.1661 -0.1493
  585TIP3    H223247   6.823   0.489  13.207  0.2515  0.2305  0.6207
  586TIP3   OH223248   1.889   5.809   0.614  0.7994 -0.7145 -0.9842
  586TIP3    H123249   1.948   5.756   0.559  1.7575  1.6728 -2.4122
  586TIP3    H223250   1.872   5.888   0.562 -2.2534 -0.4692  0.1592
  587TIP3   OH223251   5.715   5.075  11.702  0.3107  0.1578 -0.1818
  587TIP3    H123252   5.652   5.007  11.680 -1.4760  1.6678 -0.0335
  587TIP3    H223253   5.783   5.030  11.752 -0.0572 -1.7312 -1.2695
  588TIP3   OH223254   3.491   2.648   3.184  1.3957  0.2152 -0.4551
  588TIP3    H123255   3.450   2.723   3.227  2.2401  0.5167 -0.1713
  588TIP3    H223256   3.418   2.605   3.138  0.7244  0.6329  0.1876
  589TIP3   OH223257   3.569   0.517   3.977  0.1269  0.1765  0.2891
  589TIP3    H123258   3.510   0.503   3.903 -0.0401 -1.4381  0.6981
  589TIP3    H223259   3.615   0.434   3.987 -0.1596  0.2186  2.2639
  590TIP3   OH223260   5.788   0.271  14.901 -0.1312  0.1405 -0.7529
  590TIP3    H123261   5.862   0.257  14.842 -0.5459  0.9526 -1.4838
  590TIP3    H223262   5.713   0.234  14.854 -0.1072 -1.2798  0.2651
  591TIP3   OH223263   0.482   2.615  16.998  0.2008 -0.2384  0.3678
  591TIP3    H123264   0.518   2.529  16.975  1.4073  0.0712  1.0358
  591TIP3    H223265   0.493   2.667  16.918 -0.2378 -0.5969  0.0647
  592TIP3   OH223266   4.880   1.214   0.417 -0.3366  0.2170  0.6683
  592TIP3    H123267   4.925   1.187   0.336  0.3997 -1.2176  1.5146
  592TIP3    H223268   4.860   1.306   0.403 -2.5606 -0.5383 -2.2399
  593TIP3   OH223269   2.605   3.638   0.162 -0.4481  0.6377 -0.1535
  593TIP3    H123270   2.644   3.652   0.075 -0.0285 -0.2706 -0.1100
  593TIP3    H223271   2.511   3.655   0.148 -0.4351  0.1676 -0.8638
  594TIP3   OH223272   6.792   5.894   6.149 -0.1801  0.4136 -0.2419
  594TIP3    H123273   6.850   5.943   6.092 -0.9982 -1.3472 -2.7583
  594TIP3    H223274   6.707   5.896   6.105 -1.4875  0.9067  2.1252
  595TIP3   OH223275   5.293   5.205  13.984 -0.1845  0.1015 -0.3454
  595TIP3    H123276   5.292   5.205  13.888 -0.6563  0.5529 -0.3417
  595TIP3    H223277   5.277   5.296  14.009  0.8631  0.1657  0.1624
  596TIP3   OH223278   4.582   3.391  14.544  0.4031  1.0090 -0.2098
  596TIP3    H123279   4.669   3.429  14.527  0.6044  0.2342 -0.9969
  596TIP3    H223280   4.588   3.357  14.633  0.9750  0.8077 -0.3169
  597TIP3   OH223281   3.175   5.547  10.451  0.4682  0.2656 -0.0998
  597TIP3    H123282   3.163   5.616  10.385 -0.2246  1.6465  1.4020
  597TIP3    H223283   3.269   5.540  10.462  0.5806  0.2735 -0.9479
  598TIP3   OH223284   3.175   5.663  13.946 -0.2141  0.2592 -0.3865
  598TIP3    H123285   3.121   5.702  13.878 -0.1954  0.4012 -0.3224
  598TIP3    H223286   3.124   5.590  13.979  0.0683 -0.2334 -1.0192
  599TIP3   OH223287   6.538   2.776  13.852  0.4458 -0.3323 -0.4733
  599TIP3    H123288   6.589   2.715  13.904  2.9880  0.7588 -1.5371
  599TIP3    H223289   6.581   2.861  13.864 -1.5481  0.8167 -0.9017
  600TIP3   OH223290   4.717   4.007   3.144 -0.1770 -0.0597 -0.5160
  600TIP3    H123291   4.679   3.984   3.059 -1.4993 -0.7396  0.2249
  600TIP3    H223292   4.646   3.992   3.206 -0.0670  2.8907  0.4448
  601TIP3   OH223293   2.851   2.657   1.019  0.4731 -0.3430 -0.4553
  601TIP3    H123294   2.864   2.565   0.993  0.3556 -0.7559  0.8556
  601TIP3    H223295   2.939   2.692   1.029  0.5616  0.4607 -3.3992
  602TIP3   OH223296   2.121   3.450  14.595  0.3794  0.2110 -0.4436
  602TIP3    H123297   2.181   3.474  14.665 -0.1413  0.8557 -0.2087
  602TIP3    H223298   2.045   3.508  14.607  0.2799  0.3236 -1.5255
  603TIP3   OH223299   1.863   2.392  12.211  0.3819 -0.0208  0.6005
  603TIP3    H123300   1.859   2.359  12.301 -2.1221 -1.5036  0.0496
  603TIP3    H223301   1.784   2.357  12.169  1.7205  0.1763 -2.3486
  604TIP3   OH223302   1.445   3.590   0.833 -0.7166  0.2511  0.8801
  604TIP3    H123303   1.376   3.619   0.893 -2.6551 -0.0163 -1.0802
  604TIP3    H223304   1.486   3.516   0.878 -0.5856  1.3889  2.7731
  605TIP3   OH223305   0.765   5.760  13.041  0.3314  0.6422 -0.0830
  605TIP3    H123306   0.674   5.733  13.051  0.6133 -1.1127 -1.6745
  605TIP3    H223307   0.765   5.853  13.063 -2.0507  0.9442 -1.0874
  606TIP3   OH223308   1.177   4.199   4.575  0.0488  0.7219  0.7778
  606TIP3    H123309   1.226   4.153   4.643  2.2839  0.8559 -0.6281
  606TIP3    H223310   1.117   4.133   4.541  2.4945 -1.0295 -0.5133
  607TIP3   OH223311   0.014   2.844   0.710  0.6998 -0.0423 -0.2561
  607TIP3    H123312  -0.062   2.787   0.723  1.0850 -0.1504  1.8442
  607TIP3    H223313  -0.023   2.924   0.671 -0.5517  0.0067  0.9330
  608TIP3   OH223314   6.112   2.612  16.684  0.2038  0.5474 -0.1406
  608TIP3    H123315   6.208   2.617  16.685  0.2648  0.8207 -2.2785
  608TIP3    H223316   6.083   2.703  16.678 -0.1119  0.4134 -0.8318
  609TIP3   OH223317   3.298   3.304  14.414 -0.3180 -0.1753  0.0155
  609TIP3    H123318   3.270   3.383  14.459  0.8992 -0.2188  0.8890
  609TIP3    H223319   3.217   3.254  14.402 -0.7558  0.0539  1.7184
  610TIP3   OH223320   2.044   1.125  16.434 -0.0544 -0.2107 -0.1963
  610TIP3    H123321   1.999   1.130  16.350  0.5582 -1.4544 -0.6197
  610TIP3    H223322   1.973   1.109  16.497 -0.6300  1.7385 -0.3109
  611TIP3   OH223323   5.060   1.925   0.896 -0.0699 -0.3620  0.4437
  611TIP3    H123324   5.027   2.008   0.862 -0.6576 -0.7494  0.0415
  611TIP3    H223325   5.012   1.911   0.978  0.7955  0.1998  1.0661
  612TIP3   OH223326   5.065   5.366   4.418  0.0143  0.4705 -0.1320
  612TIP3    H123327   5.160   5.352   4.419  0.1757  1.4968  0.0696
  612TIP3    H223328   5.055   5.461   4.407 -0.9941  0.3267 -0.5350
  613TIP3   OH223329   2.644   2.055   5.174  0.0386  0.1114 -0.6654
  613TIP3    H123330   2.619   2.080   5.263 -1.3492  1.1149 -1.2994
  613TIP3    H223331   2.680   2.135   5.136 -0.6571  0.0789 -1.4253
  614TIP3   OH223332   3.629   3.009   4.181  0.0165  0.0560 -0.9459
  614TIP3    H123333   3.556   2.994   4.121  0.5334 -0.8930 -1.3594
  614TIP3    H223334   3.666   3.093   4.153  0.3030 -0.4065 -2.0286
  615TIP3   OH223335   6.726   1.908   1.818  0.4806 -0.4171 -0.0992
  615TIP3    H123336   6.702   1.993   1.856 -0.1921 -0.7566  0.2454
  615TIP3    H223337   6.818   1.918   1.796  0.8846 -0.1837  1.5732
  616TIP3   OH223338   6.327   0.924  12.577  0.3457 -0.1699  0.4664
  616TIP3    H123339   6.293   1.013  12.571  0.8594  0.0453  0.7182
  616TIP3    H223340   6.249   0.869  12.572 -0.0837  0.3314  1.3463
  617TIP3   OH223341   6.473   3.313   6.541  0.0012 -0.2986 -0.8743
  617TIP3    H123342   6.393   3.362   6.524 -0.2603 -0.5188 -0.2852
  617TIP3    H223343   6.445   3.239   6.594  0.7199  0.0494  0.0084
  618TIP3   OH223344   1.952   4.297  14.416 -0.2478  0.4768  0.1452
  618TIP3    H123345   2.043   4.322  14.401  0.4140 -1.9051 -0.0904
  618TIP3    H223346   1.917   4.277  14.329 -0.6545  0.3022  0.3434
  619TIP3   OH223347   1.819   3.956  16.717  0.0573  0.6895 -0.1224
  619TIP3    H123348   1.766   3.887  16.758  0.0218  0.6122 -0.2968
  619TIP3    H223349   1.757   4.026  16.698 -0.4656 -0.3184 -2.4580
  620TIP3   OH223350   2.535   5.258  10.226 -0.4592 -0.3031 -0.0827
  620TIP3    H123351   2.604   5.196  10.204 -2.2708 -2.9623  1.2087
  620TIP3    H223352   2.572   5.312  10.295  1.2904  0.4214 -1.4908
  621TIP3   OH223353   3.270   3.422  16.151 -0.0431  0.4781  0.0532
  621TIP3    H123354   3.312   3.365  16.215  1.9560  1.0929 -0.6498
  621TIP3    H223355   3.193   3.456  16.197  0.1734 -0.7266  1.3765
  622TIP3   OH223356   0.089   1.269   1.405  0.3701 -0.2708  0.5367
  622TIP3    H123357   0.087   1.179   1.373 -0.0437 -0.5744  1.3724
  622TIP3    H223358   0.135   1.263   1.489  0.3577  0.3002  0.5871
  623TIP3   OH223359   4.217   1.299  16.831 -0.3885  0.1862  0.1463
  623TIP3    H123360   4.305   1.336  16.839  0.6147 -1.7945 -0.8515
  623TIP3    H223361   4.180   1.307  16.919  0.8668  0.8712  0.6417
  624TIP3   OH223362   3.761   0.445   1.360  0.3145  0.4497  0.0574
  624TIP3    H123363   3.808   0.374   1.317 -0.4861  0.8178 -1.4661
  624TIP3    H223364   3.774   0.428   1.454 -0.8999 -2.4140 -0.1987
  625TIP3   OH223365   0.957   3.551  12.318  0.1437 -0.1662 -0.2691
  625TIP3    H123366   0.898   3.540  12.392  1.0232  1.1199  0.6790
  625TIP3    H223367   1.020   3.480  12.326  0.9163  0.6151  0.9339
  626TIP3   OH223368   5.522   2.157  15.951 -0.0750  0.0745  0.1603
  626TIP3    H123369   5.530   2.129  16.042  0.6615 -0.2459  0.0008
  626TIP3    H223370   5.496   2.078  15.904 -1.6575  0.5010  0.2630
  627TIP3   OH223371   6.026   2.514   5.391 -0.5968 -0.0592 -0.2215
  627TIP3    H123372   6.087   2.474   5.452 -0.4078  1.6227  0.7547
  627TIP3    H223373   5.947   2.529   5.442 -0.9567  0.0402 -0.8001
  628TIP3   OH223374   0.732   3.515   2.984 -0.7636  0.0913 -0.7765
  628TIP3    H123375   0.673   3.454   3.029  0.0158 -1.6340 -1.9893
  628TIP3    H223376   0.673   3.573   2.935 -1.5049  0.0597  0.0332
  629TIP3   OH223377   4.094   1.156   3.176  0.0977  0.2678  0.5243
  629TIP3    H123378   4.106   1.091   3.107  3.1642 -0.3928  1.5117
  629TIP3    H223379   4.033   1.220   3.139 -1.6363 -2.1612 -1.1651
  630TIP3   OH223380   1.511   3.658   5.975  0.0879 -0.1744  0.5211
  630TIP3    H123381   1.598   3.697   5.990  0.8933 -2.2909  1.8251
  630TIP3    H223382   1.473   3.711   5.905  2.0091  1.4609  0.6091
  631TIP3   OH223383   5.398   1.891   1.650 -0.1845 -0.4517 -0.0652
  631TIP3    H123384   5.443   1.928   1.574  0.3004  0.3621  0.6047
  631TIP3    H223385   5.348   1.817   1.614  0.3976 -0.3696 -1.0933
  632TIP3   OH223386   2.674   6.465   4.986 -0.0394 -0.5024  0.1404
  632TIP3    H123387   2.753   6.516   4.969  1.3879 -2.1747  1.2977
  632TIP3    H223388   2.667   6.405   4.911  0.4821 -1.1146  0.5649
  633TIP3   OH223389   4.004   4.707   4.285 -0.0794 -0.1638  0.1062
  633TIP3    H123390   3.974   4.796   4.266  2.0962  0.0529 -3.1378
  633TIP3    H223391   4.029   4.709   4.378 -0.9398  2.3191  0.3404
  634TIP3   OH223392   1.929   4.375  15.437  0.0212  0.1566 -0.7750
  634TIP3    H123393   2.015   4.349  15.404  0.4604  2.2935 -1.4560
  634TIP3    H223394   1.881   4.293  15.446  2.3151 -1.1725  0.2391
  635TIP3   OH223395   0.401   2.216   4.021  0.1724 -0.4164 -0.4814
  635TIP3    H123396   0.334   2.182   4.081  0.9465 -0.9699  0.0819
  635TIP3    H223397   0.466   2.147   4.016  0.5223 -0.0362 -1.3299
  636TIP3   OH223398   4.681   3.912  14.977 -0.1820 -0.1590  0.3069
  636TIP3    H123399   4.653   3.919  15.069 -1.2105 -0.6435  0.0562
  636TIP3    H223400   4.740   3.986  14.964 -1.5007  1.0438  0.8521
  637TIP3   OH223401   2.711   4.172  13.968 -0.1945  0.0625 -0.7788
  637TIP3    H123402   2.715   4.115  13.891  0.8080  0.2828 -0.8988
  637TIP3    H223403   2.731   4.114  14.042 -3.0582 -0.5892 -0.4029
  638TIP3   OH223404   1.216   3.632  12.942  0.1385 -0.1261 -0.4660
  638TIP3    H123405   1.156   3.683  12.888  0.2523 -0.2459 -0.7066
  638TIP3    H223406   1.216   3.677  13.027 -1.1271 -0.7579 -0.1172
  639TIP3   OH223407   3.317   1.632  15.134 -0.3179 -0.1206 -0.0405
  639TIP3    H123408   3.223   1.646  15.132 -0.1287  1.3582 -0.1047
  639TIP3    H223409   3.334   1.567  15.067 -1.2651 -0.1816 -0.2218
  640TIP3   OH223410   0.500   4.778   2.878  0.7484 -0.3398  0.1487
  640TIP3    H123411   0.460   4.721   2.813  1.6492  0.4274 -1.1107
  640TIP3    H223412   0.427   4.805   2.934 -0.6585  1.3901 -2.3425
  641TIP3   OH223413   6.707   5.681   2.217  0.4882 -0.6315  0.2337
  641TIP3    H123414   6.753   5.629   2.150 -0.2489 -0.2192 -0.6081
  641TIP3    H223415   6.675   5.758   2.170 -1.0224 -0.8801  0.8007
  642TIP3   OH223416   6.656   5.121  11.570 -0.4780 -0.4033 -0.1108
  642TIP3    H123417   6.578   5.073  11.543  1.0107 -1.3061 -3.2433
  642TIP3    H223418   6.715   5.053  11.604 -1.0235  0.3009  2.4955
  643TIP3   OH223419   1.231   1.950   1.712  0.4391  0.0366  0.2849
  643TIP3    H123420   1.276   1.877   1.668  1.8757  1.4486 -0.6907
  643TIP3    H223421   1.154   1.965   1.659 -0.7003 -1.6951  1.3449
  644TIP3   OH223422   1.062   0.299  15.603 -0.2487  0.0655  0.2254
  644TIP3    H123423   1.095   0.282  15.515 -0.8128 -2.0996  0.3687
  644TIP3    H223424   1.096   0.385  15.626  1.3498 -0.0728 -1.4373
  645TIP3   OH223425   0.769   6.736  12.841  0.4133 -0.5711  0.3298
  645TIP3    H123426   0.787   6.661  12.784 -1.7672 -0.7120 -0.2558
  645TIP3    H223427   0.683   6.719  12.877  0.3222  1.1566  1.0364
  646TIP3   OH223428   0.260   2.762  15.122 -0.0741 -0.7305 -0.4055
  646TIP3    H123429   0.200   2.687  15.126  0.2096 -1.1177 -2.4467
  646TIP3    H223430   0.341   2.726  15.086  0.2237  0.4470 -0.9530
  647TIP3   OH223431   0.436   4.415   0.685  0.3008 -0.1333 -0.0886
  647TIP3    H123432   0.374   4.389   0.753  0.8289 -0.0821  0.4214
  647TIP3    H223433   0.382   4.430   0.608 -0.2403 -0.7981  0.1470
  648TIP3   OH223434   5.301   2.919   3.654 -0.0572  0.2149 -0.1048
  648TIP3    H123435   5.320   2.914   3.561 -1.3029 -0.0578 -0.3675
  648TIP3    H223436   5.205   2.919   3.659 -0.0206  1.0542  1.1295
  649TIP3   OH223437   0.844   2.908  15.026 -0.0006 -0.3953 -0.2332
  649TIP3    H123438   0.819   2.985  15.077 -0.6632  0.4150 -1.7201
  649TIP3    H223439   0.919   2.937  14.975 -0.4967 -0.5989 -1.0904
  650TIP3   OH223440   6.108   5.680  12.734  0.0297 -0.4488 -0.2519
  650TIP3    H123441   6.202   5.660  12.738  0.3023  0.8314  0.1601
  650TIP3    H223442   6.072   5.614  12.674  1.1610 -1.0506 -0.2949
  651TIP3   OH223443   2.158   2.949  11.408  0.1612 -0.3075  0.0380
  651TIP3    H123444   2.151   2.949  11.313  0.9596 -2.3611 -0.0785
  651TIP3    H223445   2.169   3.041  11.432 -1.5100  0.4004 -1.7024
  652TIP3   OH223446   4.171   3.686   0.831 -0.3047 -0.0864  0.5418
  652TIP3    H123447   4.162   3.647   0.744  0.8095 -0.8562  0.7491
  652TIP3    H223448   4.262   3.669   0.856  0.3759  2.9386  0.5432
  653TIP3   OH223449   5.677   1.997  17.023 -0.1824  0.2805  0.5331
  653TIP3    H123450   5.586   1.986  17.053 -1.0371  0.2317 -1.8756
  653TIP3    H223451   5.724   2.026  17.101 -2.9562  3.7120  1.2066
  654TIP3   OH223452   6.691   1.610   1.767 -0.0755  0.1579 -0.1274
  654TIP3    H123453   6.683   1.705   1.772  0.3071  0.1490  0.7557
  654TIP3    H223454   6.667   1.579   1.854  0.4263 -0.5086 -0.2192
  655TIP3   OH223455   6.410   2.389  10.530 -0.5458  0.4786  0.4425
  655TIP3    H123456   6.336   2.438  10.565 -0.8840 -0.0567  0.4925
  655TIP3    H223457   6.450   2.448  10.466 -0.0256  1.4096  1.5735
  656TIP3   OH223458   4.056   0.689  16.269  0.0714  0.1981  0.4222
  656TIP3    H123459   3.979   0.705  16.215 -1.2606 -1.0148  1.8443
  656TIP3    H223460   4.121   0.653  16.209 -0.8806  0.1250 -0.5975
  657TIP3   OH223461   0.284   6.214   1.570  0.4513 -0.4331 -0.6208
  657TIP3    H123462   0.252   6.303   1.582 -0.8883 -0.8171 -1.1203
  657TIP3    H223463   0.280   6.174   1.657  0.3943 -0.2075 -0.5202
  658TIP3   OH223464   6.569   1.597  12.084 -0.3588  0.1689 -0.1691
  658TIP3    H123465   6.632   1.594  12.156  0.1597 -0.0477 -0.6267
  658TIP3    H223466   6.623   1.597  12.005 -0.9623 -2.5362 -0.6611
  659TIP3   OH223467   5.224   3.037  10.549 -0.1297 -0.2572 -0.0989
  659TIP3    H123468   5.171   3.032  10.469 -0.1469 -0.1440 -0.0942
  659TIP3    H223469   5.176   3.096  10.606 -0.1362 -0.3674  0.0096
  660TIP3   OH223470   4.301   3.749  11.770  0.0397  0.4666 -0.2404
  660TIP3    H123471   4.387   3.709  11.759  0.9098  2.4862 -1.4542
  660TIP3    H223472   4.258   3.697  11.838  2.8262  0.3959  1.5889
  661TIP3   OH223473   4.800   3.555   2.269 -0.7152 -0.0159  0.4742
  661TIP3    H123474   4.752   3.627   2.311 -1.4268 -0.6556  0.7685
  661TIP3    H223475   4.867   3.531   2.334  0.6691  1.5102 -0.3210
  662TIP3   OH223476   3.258   6.738   0.562  0.5102  0.1678 -0.6326
  662TIP3    H123477   3.248   6.747   0.467 -0.5216 -1.0187 -0.6529
  662TIP3    H223478   3.233   6.823   0.597 -1.0493  0.0162 -1.3068
  663TIP3   OH223479   0.315   4.070   5.928  0.2421 -0.4285  0.5413
  663TIP3    H123480   0.376   4.019   5.981  1.2006  0.5780  0.4640
  663TIP3    H223481   0.286   4.140   5.987  2.2528  1.4239 -0.5203
  664TIP3   OH223482   5.248   4.890   6.093  0.4340 -0.4790  0.4240
  664TIP3    H123483   5.268   4.905   6.185  0.5592  0.7785  0.2233
  664TIP3    H223484   5.155   4.913   6.084  0.7759  0.8886 -0.0107
  665TIP3   OH223485   5.998   5.655  13.918 -0.6284  0.1954  0.6541
  665TIP3    H123486   6.054   5.733  13.918  0.7695 -0.6542 -2.3698
  665TIP3    H223487   5.938   5.668  13.844  2.3300 -3.1193 -2.7720
  666TIP3   OH223488   6.214   4.628  15.846 -0.1395 -0.5100  0.3548
  666TIP3    H123489   6.289   4.680  15.874  0.3769 -0.8792 -0.3268
  666TIP3    H223490   6.252   4.553  15.802 -0.6763 -3.4301  4.3241
  667TIP3   OH223491   1.887   1.813   1.719  0.1803 -1.0696 -0.2363
  667TIP3    H123492   1.879   1.895   1.671  1.2637 -0.2881  0.8637
  667TIP3    H223493   1.799   1.795   1.751  0.1534  0.2944  0.5004
  668TIP3   OH223494   1.167   1.418  10.552  0.0277  0.4233 -0.1220
  668TIP3    H123495   1.079   1.447  10.527 -0.2608  1.2600  1.6884
  668TIP3    H223496   1.161   1.322  10.553 -1.0944  0.4804  0.6979
  669TIP3   OH223497   3.355   1.556   0.009 -0.1832  0.3053 -0.3394
  669TIP3    H123498   3.412   1.502   0.063  0.7368 -0.4716 -2.0143
  669TIP3    H223499   3.268   1.545   0.048 -0.2157 -3.0864 -1.0517
  670TIP3   OH223500   0.223   2.190  15.069 -0.1429 -0.3082 -0.0414
  670TIP3    H123501   0.303   2.183  15.016 -0.5714 -1.1641 -0.5976
  670TIP3    H223502   0.214   2.103  15.109 -1.0227 -0.3491 -0.3170
  671TIP3   OH223503   0.133   6.314  15.195  0.2631  0.2602 -0.0282
  671TIP3    H123504   0.158   6.391  15.144 -1.2624  2.3967  2.2211
  671TIP3    H223505   0.192   6.315  15.271 -2.2406  1.7015  2.0760
  672TIP3   OH223506   0.402   1.159   5.894  0.0972 -0.2683  0.4439
  672TIP3    H123507   0.420   1.130   5.804 -0.2778 -0.7035  0.5080
  672TIP3    H223508   0.323   1.112   5.919 -1.2938  1.7644  0.1012
  673TIP3   OH223509   4.152   4.583  11.207 -0.3802 -0.3194  0.2590
  673TIP3    H123510   4.061   4.560  11.191 -0.0010 -1.5347 -0.2406
  673TIP3    H223511   4.150   4.677  11.224 -1.4640  0.0943 -1.8171
  674TIP3   OH223512   0.997   6.709  14.593  0.1974  0.2448  0.7262
  674TIP3    H123513   1.008   6.795  14.635  0.2176  0.8846 -0.5346
  674TIP3    H223514   1.086   6.683  14.569  0.1394  0.1022  0.6669
  675TIP3   OH223515   6.250   5.841   6.154 -0.2627  0.1769  0.2015
  675TIP3    H123516   6.230   5.928   6.119 -1.0675 -0.0398  0.0982
  675TIP3    H223517   6.211   5.780   6.092  3.0516 -0.4252 -1.5144
  676TIP3   OH223518   2.100   1.676  10.216 -0.7395  0.1743  0.2898
  676TIP3    H123519   2.142   1.669  10.302 -4.6615 -1.1031  2.3719
  676TIP3    H223520   2.112   1.589  10.177  0.5631  0.5856 -0.2907
  677TIP3   OH223521   2.080   5.920   4.733  0.8241  0.0104 -0.0429
  677TIP3    H123522   2.053   5.947   4.645  0.6363 -1.4086 -0.4539
  677TIP3    H223523   2.035   5.980   4.792  2.7703  2.5353 -0.9268
  678TIP3   OH223524   2.737   3.435  16.185  0.1590  0.4065  0.2689
  678TIP3    H123525   2.701   3.376  16.118  0.6236  2.5084 -1.9984
  678TIP3    H223526   2.687   3.416  16.264  0.3600 -3.0093 -0.2927
  679TIP3   OH223527   3.153   5.002   0.112  0.6507 -0.1337 -0.3030
  679TIP3    H123528   3.192   4.922   0.148  1.4323  0.6061  0.5272
  679TIP3    H223529   3.227   5.050   0.075  0.2030  0.2912 -0.6516
  680TIP3   OH223530   6.327   2.328  16.778 -0.0570  0.1961 -0.3677
  680TIP3    H123531   6.253   2.268  16.768  0.6898 -0.3753 -4.0072
  680TIP3    H223532   6.318   2.388  16.704  2.9977  0.1911 -0.8576
  681TIP3   OH223533   5.824   3.644  11.137 -0.2067  0.2638 -0.0890
  681TIP3    H123534   5.917   3.630  11.150 -0.7391 -3.2472  1.0566
  681TIP3    H223535   5.816   3.672  11.046  1.8683 -0.6278 -0.6007
  682TIP3   OH223536   5.829   4.011   1.398 -0.0941  0.5988  0.0810
  682TIP3    H123537   5.803   3.979   1.312  3.0609  0.5783 -0.9981
  682TIP3    H223538   5.830   4.107   1.389  0.8324  0.5770 -0.1311
  683TIP3   OH223539   0.476   2.219   6.417 -0.0949  0.2681 -0.5198
  683TIP3    H123540   0.490   2.187   6.506  0.0376  0.0398 -0.6216
  683TIP3    H223541   0.397   2.273   6.422  0.5359  1.1714 -0.0406
  684TIP3   OH223542   0.780   1.289   4.605  0.0776 -0.2052 -0.0085
  684TIP3    H123543   0.733   1.212   4.574  1.0172 -1.6717  1.9744
  684TIP3    H223544   0.727   1.322   4.678 -0.1511  0.8635 -0.6354
  685TIP3   OH223545   1.115   1.854   4.992 -0.1234  0.1480  0.0955
  685TIP3    H123546   1.086   1.814   4.909 -2.0469 -0.7996  1.1619
  685TIP3    H223547   1.049   1.921   5.010 -0.7592 -0.8610  1.7162
  686TIP3   OH223548   1.616   4.906   0.082 -0.0659 -0.1915  0.1479
  686TIP3    H123549   1.611   4.892   0.177  0.4700 -0.1365  0.1873
  686TIP3    H223550   1.528   4.935   0.058 -0.5296 -1.2715  0.4509
  687TIP3   OH223551   0.444   5.782   3.656  0.7942  0.6424  0.6469
  687TIP3    H123552   0.472   5.836   3.583 -1.6867 -0.2614 -1.1142
  687TIP3    H223553   0.358   5.818   3.681  0.7165 -0.2749  1.8117
  688TIP3   OH223554   5.600   4.373  11.925 -0.1758  0.5924  0.1374
  688TIP3    H123555   5.546   4.414  11.857 -0.3824 -0.2299 -0.2085
  688TIP3    H223556   5.595   4.279  11.907 -0.1848  0.3592  1.2586
  689TIP3   OH223557   1.262   4.591   5.393 -0.7675  0.3593  0.1288
  689TIP3    H123558   1.342   4.540   5.377 -0.6206  0.6430 -0.0511
  689TIP3    H223559   1.191   4.535   5.364 -0.6325  0.1170  0.2595
  690TIP3   OH223560   0.561   0.280   0.166 -0.0540  0.8854  0.2025
  690TIP3    H123561   0.497   0.209   0.175  0.0943  0.6374 -0.6102
  690TIP3    H223562   0.513   0.350   0.122  0.1872  0.7497 -0.2867
  691TIP3   OH223563   3.399   5.422  16.277 -0.0263 -0.1895  0.6797
  691TIP3    H123564   3.311   5.460  16.274  0.5326  1.1331  0.3927
  691TIP3    H223565   3.391   5.348  16.337 -1.6062 -0.8499 -0.2897
  692TIP3   OH223566   1.019   2.565   1.905  0.3151  0.0874 -0.9942
  692TIP3    H123567   1.082   2.636   1.890  0.7541 -0.4169 -1.6217
  692TIP3    H223568   1.021   2.514   1.824 -0.1825 -0.4957 -0.6496
  693TIP3   OH223569   5.402   4.719   2.405  0.0943  0.1701 -0.4536
  693TIP3    H123570   5.420   4.810   2.430  0.8931 -0.4916  1.7040
  693TIP3    H223571   5.470   4.698   2.341  1.0788  0.5939  0.4058
  694TIP3   OH223572   1.851   1.547  17.133 -0.5055  0.1064 -0.2671
  694TIP3    H123573   1.893   1.461  17.131 -0.2233  0.2422 -2.4873
  694TIP3    H223574   1.863   1.577  17.223 -1.1694 -2.4224  0.7696
  695TIP3   OH223575   4.548   2.687  10.789  0.0507  0.3667  0.5706
  695TIP3    H123576   4.564   2.778  10.812 -2.7661  0.6328  1.8625
  695TIP3    H223577   4.632   2.643  10.803  1.5150  2.7403 -0.2724
  696TIP3   OH223578   5.104   1.486   3.898 -0.4861  0.2568 -0.4194
  696TIP3    H123579   5.169   1.541   3.853 -0.1952 -0.4797 -0.9192
  696TIP3    H223580   5.139   1.475   3.986  0.3141 -0.4930 -0.8078
  697TIP3   OH223581   4.201   6.609   3.412  0.5238 -0.2892 -0.0072
  697TIP3    H123582   4.118   6.578   3.448  0.6295 -0.8769 -0.2597
  697TIP3    H223583   4.264   6.541   3.435  1.3663  1.0315  1.8780
  698TIP3   OH223584   0.508   2.255   2.649  0.2452  0.4880  0.7222
  698TIP3    H123585   0.522   2.272   2.556 -2.8837 -0.7394 -0.1104
  698TIP3    H223586   0.473   2.338   2.683  2.2877  1.2503  1.1303
  699TIP3   OH223587   6.669   4.105   4.868 -0.3644  0.0300  0.0042
  699TIP3    H123588   6.597   4.042   4.863 -0.0175 -0.3079 -1.0243
  699TIP3    H223589   6.747   4.051   4.881 -0.4060  0.4740  2.5212
  700TIP3   OH223590   2.538   3.026   4.532 -0.5366  0.3831 -0.1100
  700TIP3    H123591   2.612   3.083   4.550 -2.0642  2.5634 -0.3346
  700TIP3    H223592   2.578   2.942   4.510  1.7280  0.1787  3.7940
  701TIP3   OH223593   4.594   4.980  13.634  0.5838  0.0609 -0.5795
  701TIP3    H123594   4.548   5.041  13.692  0.6846  0.2208 -0.6693
  701TIP3    H223595   4.666   5.031  13.598  0.7109 -0.1323 -0.5994
  702TIP3   OH223596   0.855   3.004  17.048 -0.0599 -0.6414 -0.2705
  702TIP3    H123597   0.945   2.989  17.078 -0.7629 -1.3147  1.6465
  702TIP3    H223598   0.844   3.099  17.053 -0.4040 -0.7448  2.6205
  703TIP3   OH223599   3.451   6.181  11.812 -0.2883  0.1165 -0.0598
  703TIP3    H123600   3.524   6.144  11.862 -0.4977 -1.7164 -1.0189
  703TIP3    H223601   3.389   6.211  11.878  0.5719  0.1128  0.7700
  704TIP3   OH223602   3.814   3.154   0.349  0.5811 -0.2799  0.4384
  704TIP3    H123603   3.909   3.154   0.344  0.6271  0.0276  1.2180
  704TIP3    H223604   3.788   3.064   0.326  1.0955 -0.5523  0.9111
  705TIP3   OH223605   4.889   4.825   6.504 -0.3286 -0.0334 -0.2285
  705TIP3    H123606   4.818   4.874   6.547 -1.4506 -2.2563  0.5735
  705TIP3    H223607   4.845   4.758   6.452  1.1601 -1.5756  0.4057
  706TIP3   OH223608   4.118   2.942   3.535 -0.5320 -0.2970 -0.3239
  706TIP3    H123609   4.164   3.025   3.523  0.0385 -0.2821  1.5717
  706TIP3    H223610   4.171   2.895   3.600 -0.3828 -2.5100 -1.9320
  707TIP3   OH223611   3.745   1.347   1.189 -0.1870  0.5531 -0.0878
  707TIP3    H123612   3.750   1.380   1.279 -1.0785  1.5524 -0.3852
  707TIP3    H223613   3.679   1.278   1.192 -0.7641  1.0909 -0.1009
  708TIP3   OH223614   5.523   2.616  16.509 -0.4071 -0.0797 -0.8932
  708TIP3    H123615   5.449   2.652  16.558 -0.2271  0.2018 -0.8276
  708TIP3    H223616   5.564   2.691  16.467  0.0723 -0.1778 -0.6157
  709TIP3   OH223617   5.965   2.288   0.415 -0.5839  0.2078 -0.2610
  709TIP3    H123618   6.044   2.232   0.414 -0.0795  0.8997  0.1631
  709TIP3    H223619   5.906   2.244   0.475  0.1721  0.5911  0.7935
  710TIP3   OH223620   5.096   3.172   1.752  0.3431  0.6945  0.1676
  710TIP3    H123621   5.103   3.246   1.691  3.2097  0.3803 -0.0312
  710TIP3    H223622   5.184   3.164   1.790 -0.2409 -1.7683  1.1919
  711TIP3   OH223623   0.548   3.802  12.818  0.9311  0.0656  0.0083
  711TIP3    H123624   0.480   3.792  12.752  0.4438 -2.1102  0.7568
  711TIP3    H223625   0.619   3.847  12.773 -1.0426  2.7213 -0.7143
  712TIP3   OH223626   1.723   6.091   5.294 -0.5208 -0.4035 -0.0540
  712TIP3    H123627   1.814   6.104   5.320 -0.9605 -0.1072  1.4136
  712TIP3    H223628   1.728   6.062   5.203  1.0186 -0.1055 -0.0854
  713TIP3   OH223629   2.705   0.166  15.965  0.0057  0.0155 -0.1585
  713TIP3    H123630   2.611   0.159  15.953  0.1522 -1.3132 -0.7140
  713TIP3    H223631   2.716   0.238  16.027 -1.2240  1.7307 -1.8360
  714TIP3   OH223632   3.624   1.329  14.757  0.0921 -0.2801 -0.7705
  714TIP3    H123633   3.635   1.285  14.841  0.9360 -2.0427 -1.7348
  714TIP3    H223634   3.704   1.309  14.708 -0.7605 -0.0986 -2.3270
  715TIP3   OH223635   4.912   5.969   1.056 -0.2516 -0.0645  0.5686
  715TIP3    H123636   5.001   5.943   1.033 -0.5940 -0.9179  0.1891
  715TIP3    H223637   4.924   6.033   1.127  0.6690  0.0764  0.3010
  716TIP3   OH223638   6.849   4.601   4.370 -0.3926 -0.5556  0.0177
  716TIP3    H123639   6.843   4.657   4.293  0.2725  1.3131  1.2543
  716TIP3    H223640   6.934   4.621   4.409 -0.8762 -1.1116  1.4596
  717TIP3   OH223641   4.140   6.657  15.581 -0.5752  0.3350  0.3169
  717TIP3    H123642   4.099   6.721  15.638 -1.9340 -0.8135  0.6607
  717TIP3    H223643   4.071   6.630  15.520  0.7118  1.2082 -1.6254
  718TIP3   OH223644   4.445   2.967  16.821  0.5980  0.0883 -0.1983
  718TIP3    H123645   4.443   2.925  16.907  2.4462 -1.2934 -0.7714
  718TIP3    H223646   4.354   2.965  16.791  0.3441 -1.9430  0.5709
  719TIP3   OH223647   6.559   2.927  15.867 -0.1053 -0.3588 -0.6456
  719TIP3    H123648   6.649   2.957  15.880  1.1368 -3.6032 -0.8096
  719TIP3    H223649   6.530   2.901  15.955  0.3305 -2.1581 -0.9831
  720TIP3   OH223650   3.726   0.225   4.618  0.3883  0.0821 -0.1311
  720TIP3    H123651   3.753   0.154   4.676  0.7839 -1.6008 -2.2522
  720TIP3    H223652   3.637   0.203   4.593 -0.2187  1.4428  0.7076
  721TIP3   OH223653   2.937   2.391   0.923 -0.1400 -0.0509  0.0957
  721TIP3    H123654   3.014   2.364   0.974 -0.1224  0.4824  0.3575
  721TIP3    H223655   2.874   2.320   0.936 -0.0003 -0.0932  0.5652
  722TIP3   OH223656   6.206   5.817   2.770  0.2648  0.6825 -0.1029
  722TIP3    H123657   6.185   5.869   2.847  1.1354  0.6475  0.1612
  722TIP3    H223658   6.249   5.878   2.710 -1.3438  0.9759 -1.0243
  723TIP3   OH223659   2.846   4.715   5.903 -0.2423  0.2947  0.2818
  723TIP3    H123660   2.777   4.778   5.926  0.3985  1.0473  0.2023
  723TIP3    H223661   2.923   4.747   5.949 -0.1878 -1.1712  1.2725
  724TIP3   OH223662   4.050   5.582  16.473  0.5152  0.1549  0.9898
  724TIP3    H123663   4.107   5.561  16.547  0.9856  1.7158  1.1250
  724TIP3    H223664   4.014   5.668  16.495 -1.9932 -0.8043  0.9413
  725TIP3   OH223665   0.467   2.405  13.272  0.0946  0.6114 -0.1278
  725TIP3    H123666   0.416   2.327  13.293  0.7134  0.4925  1.0398
  725TIP3    H223667   0.508   2.429  13.355  2.6772  0.1736 -1.1874
  726TIP3   OH223668   0.148   0.373  12.403  0.1039  0.5316 -0.5248
  726TIP3    H123669   0.194   0.328  12.474  1.5191  0.6070 -1.3602
  726TIP3    H223670   0.122   0.303  12.344  1.7998  0.7113 -1.5359
  727TIP3   OH223671   5.671   5.001  10.560  0.1632  0.0630  0.3237
  727TIP3    H123672   5.696   4.964  10.645  0.3894 -0.9773 -0.1715
  727TIP3    H223673   5.723   4.952  10.497 -0.3561  0.4918 -0.4548
  728TIP3   OH223674   3.507   1.208   3.617 -0.4531  0.5452  0.1784
  728TIP3    H123675   3.594   1.249   3.609 -0.0435 -0.5526 -1.9485
  728TIP3    H223676   3.508   1.165   3.702  0.6223  1.5916  0.7198
  729TIP3   OH223677   5.512   5.762  12.805  0.2567  0.2719  0.0793
  729TIP3    H123678   5.600   5.740  12.837  0.0287  1.4220  1.6076
  729TIP3    H223679   5.456   5.694  12.841  0.2030  0.8210  1.0767
  730TIP3   OH223680   6.292   4.309   0.139 -0.2720 -0.0084 -0.5668
  730TIP3    H123681   6.313   4.218   0.159  0.1112  0.7402  3.1710
  730TIP3    H223682   6.207   4.324   0.181 -0.4682  1.3104 -1.3657
  731TIP3   OH223683   1.449   0.617  14.659 -0.7514 -0.2663 -0.3277
  731TIP3    H123684   1.353   0.620  14.656 -0.9157  2.9205  2.0815
  731TIP3    H223685   1.477   0.661  14.579 -1.4855  1.5245  0.3427
  732TIP3   OH223686   5.606   6.726   5.546  0.4558  0.0967 -0.0634
  732TIP3    H123687   5.521   6.723   5.589  0.2385  2.0634 -0.2473
  732TIP3    H223688   5.598   6.665   5.473 -1.4869  1.5375 -1.1617
  733TIP3   OH223689   5.577   4.459  12.706  0.1727 -0.2465 -0.2411
  733TIP3    H123690   5.537   4.417  12.630  0.7431 -1.6140  0.1631
  733TIP3    H223691   5.671   4.443  12.695  0.2089 -1.0505  1.0579
  734TIP3   OH223692   5.129   5.060  15.193  0.0126  0.3930  0.2948
  734TIP3    H123693   5.062   5.011  15.241 -1.0186  0.3876 -1.0802
  734TIP3    H223694   5.093   5.069  15.105  1.7077  0.6654 -0.3990
  735TIP3   OH223695   1.296   2.837   1.345 -0.7071  0.2839  0.0759
  735TIP3    H123696   1.309   2.809   1.436 -1.1076  0.7667  0.2816
  735TIP3    H223697   1.270   2.929   1.351  0.6725  0.7477 -0.5992
  736TIP3   OH223698   5.431   6.523   4.841  0.2367 -0.4366 -0.5990
  736TIP3    H123699   5.377   6.551   4.766  1.0903 -0.0972 -1.1080
  736TIP3    H223700   5.438   6.602   4.895 -1.5679 -1.0523  0.6122
  737TIP3   OH223701   3.315   2.775  15.333 -0.5557  0.2916  0.5701
  737TIP3    H123702   3.311   2.713  15.405  0.2271  0.1876  0.5279
  737TIP3    H223703   3.236   2.757  15.281 -0.1911 -0.8680  0.3899
  738TIP3   OH223704   5.245   0.148  16.958 -0.2788 -0.2486  0.0341
  738TIP3    H123705   5.283   0.233  16.937 -1.3885  0.4509  0.7307
  738TIP3    H223706   5.188   0.165  17.034 -3.6808 -0.7024 -2.1708
  739TIP3   OH223707   0.348   1.240   0.366 -0.2558 -0.1929 -0.5443
  739TIP3    H123708   0.263   1.244   0.410 -0.4480 -1.0180 -0.8220
  739TIP3    H223709   0.327   1.236   0.273  0.0530 -1.0609 -0.5851
  740TIP3   OH223710   5.016   6.643   6.257 -0.1657  0.2207  0.4784
  740TIP3    H123711   5.070   6.583   6.206 -0.6307 -1.6303  2.0249
  740TIP3    H223712   4.926   6.620   6.232 -0.3436  0.5684  0.7965
  741TIP3   OH223713   2.659   0.495   1.346  0.2717 -0.1463  0.7717
  741TIP3    H123714   2.745   0.459   1.370  0.8872  1.0779  0.4802
  741TIP3    H223715   2.622   0.524   1.429  0.1765 -0.5921  0.8875
  742TIP3   OH223716   1.634   5.117   2.664  0.1124  0.0560  0.0758
  742TIP3    H123717   1.607   5.208   2.675  0.6793  0.2190  0.1320
  742TIP3    H223718   1.696   5.119   2.591  0.3196 -0.2442  0.2409
  743TIP3   OH223719   6.625   1.996  16.797 -0.7553  0.3299  0.0057
  743TIP3    H123720   6.579   1.927  16.750  1.2499 -2.1034  1.3196
  743TIP3    H223721   6.596   1.987  16.888  0.5130  0.2981  0.4285
  744TIP3   OH223722   2.327   2.721  14.486  0.4732  0.1779  0.8648
  744TIP3    H123723   2.394   2.742  14.421  0.3776  0.3641  0.8284
  744TIP3    H223724   2.306   2.804  14.527 -3.8999  1.3926 -3.0080
  745TIP3   OH223725   4.651   2.029   6.646  0.3707  0.0660  0.1352
  745TIP3    H123726   4.717   1.960   6.654  0.8172 -0.1709 -3.5509
  745TIP3    H223727   4.568   1.983   6.637  0.4929  0.0263 -0.9352
  746TIP3   OH223728   2.298   6.046   5.882 -0.3670 -0.1810 -0.3222
  746TIP3    H123729   2.302   5.984   5.954  0.2088 -0.5109 -0.6299
  746TIP3    H223730   2.279   6.130   5.924  1.1342 -0.1413  0.3694
  747TIP3   OH223731   6.455   0.468   4.135 -0.2406  0.1925 -0.8105
  747TIP3    H123732   6.527   0.442   4.078  0.4980  2.5530 -1.0672
  747TIP3    H223733   6.494   0.471   4.223 -1.0638 -2.2497 -0.3058
  748TIP3   OH223734   5.516   1.396   4.649 -1.1523 -0.0617  0.2252
  748TIP3    H123735   5.476   1.482   4.635 -1.5468 -0.4331 -1.1212
  748TIP3    H223736   5.609   1.414   4.662 -1.1663  0.5517 -0.4674
  749TIP3   OH223737   2.480   3.887  15.878 -0.3122  0.0599  0.6295
  749TIP3    H123738   2.484   3.807  15.931  0.8632 -0.1224  0.2899
  749TIP3    H223739   2.555   3.938  15.907 -0.8944  0.9311  0.6443
  750TIP3   OH223740   3.207   2.090   5.058 -0.0204 -0.1987  0.0140
  750TIP3    H123741   3.266   2.158   5.090 -1.4907  1.2874 -0.2678
  750TIP3    H223742   3.217   2.018   5.120  1.0926  0.5349  0.7199
  751TIP3   OH223743   2.325   1.397  12.733 -0.0366  0.3653  0.2334
  751TIP3    H123744   2.324   1.489  12.759 -1.8370  0.2892  0.5667
  751TIP3    H223745   2.341   1.399  12.639  1.5090  0.9115  0.4878
  752TIP3   OH223746   5.276   5.326  15.766  0.3341 -0.0547 -0.5252
  752TIP3    H123747   5.299   5.260  15.831 -0.3346  1.0346  0.8655
  752TIP3    H223748   5.361   5.351  15.727  0.5845 -1.7738 -1.1882
  753TIP3   OH223749   3.419   5.960  14.551 -0.6427  0.0935  0.6446
  753TIP3    H123750   3.424   5.900  14.626  0.1184  0.2440  0.7175
  753TIP3    H223751   3.499   6.011  14.555 -0.6502  0.1892 -0.2066
  754TIP3   OH223752   4.061   4.278   4.471 -0.4067 -0.4649 -0.7928
  754TIP3    H123753   4.091   4.281   4.380  2.6890  0.6476  0.1389
  754TIP3    H223754   4.010   4.358   4.483  2.4042  1.4396 -0.6696
  755TIP3   OH223755   2.214   0.332  10.545 -0.1229  0.0469 -0.0702
  755TIP3    H123756   2.161   0.367  10.473 -1.0741  1.6093  1.3449
  755TIP3    H223757   2.156   0.331  10.620  1.1950 -0.4727  0.9835
  756TIP3   OH223758   2.009   0.859   4.357  0.2265 -0.1409 -0.5126
  756TIP3    H123759   1.966   0.945   4.354  1.0667  0.2884 -0.3849
  756TIP3    H223760   2.046   0.848   4.270 -2.4759 -1.7618 -1.5811
  757TIP3   OH223761   4.527   3.471  11.933  0.6737  0.4685  0.0571
  757TIP3    H123762   4.583   3.529  11.984  0.3299  0.3823  0.5359
  757TIP3    H223763   4.463   3.438  11.995  1.8582 -1.7522  0.1609
  758TIP3   OH223764   3.941   2.419  12.774 -0.0548 -0.0357 -0.2388
  758TIP3    H123765   3.964   2.327  12.760  2.1363  0.4473 -0.1419
  758TIP3    H223766   3.856   2.415  12.818  0.0103 -2.0137 -0.1786
  759TIP3   OH223767   2.832   3.397   3.762  0.1551  0.3150 -0.1121
  759TIP3    H123768   2.753   3.345   3.747 -1.0808  2.0018  0.2396
  759TIP3    H223769   2.878   3.352   3.833 -2.7782  1.6290  2.8610
  760TIP3   OH223770   2.962   5.353  11.356 -0.2303 -0.3557 -0.1886
  760TIP3    H123771   2.990   5.275  11.307 -2.0258 -1.4736  0.4469
  760TIP3    H223772   2.889   5.388  11.306 -1.2568 -0.7669  0.9704
  761TIP3   OH223773   2.448   3.426   3.659 -0.4487 -0.3961  0.6383
  761TIP3    H123774   2.361   3.432   3.620 -0.3095  0.2902  0.4054
  761TIP3    H223775   2.465   3.332   3.668  0.0707 -0.6773 -2.2860
  762TIP3   OH223776   1.896   4.985  17.001 -0.3501  0.3623  0.0179
  762TIP3    H123777   1.875   4.896  17.030  0.2569 -0.0229 -0.6991
  762TIP3    H223778   1.833   5.003  16.931 -0.4671  0.4919  0.1580
  763TIP3   OH223779   5.000   5.894  17.113 -0.4871 -0.0872  0.5735
  763TIP3    H123780   5.095   5.902  17.099 -0.4023 -0.6369  0.8302
  763TIP3    H223781   4.992   5.842  17.193 -1.0193 -0.6558  0.1565
  764TIP3   OH223782   0.500   3.315   1.793  0.2974  0.0874 -0.5330
  764TIP3    H123783   0.540   3.350   1.873 -1.3197  1.4855 -0.2768
  764TIP3    H223784   0.546   3.360   1.722  1.5880 -0.9943 -0.4111
  765TIP3   OH223785   1.369   1.856   6.081  0.4722 -0.4148 -0.3656
  765TIP3    H123786   1.417   1.784   6.041  2.1302  1.1047 -1.2329
  765TIP3    H223787   1.434   1.924   6.094 -0.1359 -0.4041  4.1570
  766TIP3   OH223788   4.359   6.619  11.359 -0.0530  0.0429 -0.3925
  766TIP3    H123789   4.362   6.574  11.444  0.1374  0.3389 -0.2407
  766TIP3    H223790   4.276   6.666  11.359  0.2030  0.5055 -0.1282
  767TIP3   OH223791   1.464   6.331   4.475 -0.1324 -0.2369 -0.4637
  767TIP3    H123792   1.490   6.330   4.567 -0.6496  0.9221 -0.2913
  767TIP3    H223793   1.524   6.269   4.432  0.8703  0.0835  0.4404
  768TIP3   OH223794   5.716   2.791   3.732 -0.6129  0.1991 -0.3958
  768TIP3    H123795   5.737   2.775   3.640  1.4166 -0.7589  0.1841
  768TIP3    H223796   5.627   2.755   3.742 -0.4393 -0.7061 -1.7265
  769TIP3   OH223797   3.561   6.043   5.129  0.3230  0.3782 -0.3970
  769TIP3    H123798   3.485   5.990   5.104 -0.2568  1.5280 -1.2048
  769TIP3    H223799   3.637   5.987   5.111 -0.3289 -1.5756  2.3539
  770TIP3   OH223800   1.162   1.003   3.280 -0.3058  0.4535  0.1491
  770TIP3    H123801   1.067   1.012   3.292 -0.3358  0.1774  0.1058
  770TIP3    H223802   1.196   0.993   3.369 -0.0873  2.7267  0.3843
  771TIP3   OH223803   6.361   6.162   1.870 -0.4594 -0.0283  0.1141
  771TIP3    H123804   6.306   6.226   1.914 -0.0417 -0.6680  1.6531
  771TIP3    H223805   6.445   6.207   1.857 -0.6545  0.2353 -0.2280
  772TIP3   OH223806   4.601   3.438  13.257 -0.2116  0.3889  0.2763
  772TIP3    H123807   4.681   3.478  13.223  2.1134 -5.0805 -1.9020
  772TIP3    H223808   4.618   3.425  13.350  1.2158 -0.0260 -0.0181
  773TIP3   OH223809   1.778   4.337  12.591  0.3700 -0.2595 -0.0453
  773TIP3    H123810   1.716   4.275  12.628  0.6353 -0.7952 -0.4949
  773TIP3    H223811   1.746   4.423  12.621 -0.5846 -0.5234 -0.2717
  774TIP3   OH223812   4.081   1.046  12.718  0.1373 -0.0864  0.5981
  774TIP3    H123813   3.995   1.073  12.688  0.0044 -0.3828  0.7103
  774TIP3    H223814   4.091   1.088  12.803  1.0230  1.7689 -0.3765
  775TIP3   OH223815   4.002   2.849   4.753 -0.3072 -0.0683  0.2911
  775TIP3    H123816   3.910   2.860   4.776 -0.3259  1.3674 -0.3427
  775TIP3    H223817   4.005   2.869   4.659  0.5768 -0.5963  0.1973
  776TIP3   OH223818   3.854   6.744   0.257 -0.5857  0.4145  0.1936
  776TIP3    H123819   3.824   6.754   0.166  0.2315  0.8182 -0.0378
  776TIP3    H223820   3.947   6.722   0.249 -0.2115  1.6421  0.9499
  777TIP3   OH223821   5.550   5.557  17.138  0.7050  0.3142 -0.0223
  777TIP3    H123822   5.538   5.463  17.155 -0.9743  0.5641  0.3603
  777TIP3    H223823   5.639   5.564  17.104  1.1059 -1.3322  0.5788
  778TIP3   OH223824   0.625   2.016  10.930 -0.3907 -0.3666 -0.1232
  778TIP3    H123825   0.673   1.953  10.878 -2.4048 -0.8682 -1.4907
  778TIP3    H223826   0.691   2.079  10.960  1.3554 -2.0558 -0.2819
  779TIP3   OH223827   5.612   0.223  16.830  0.2321  0.2198 -0.3645
  779TIP3    H123828   5.547   0.152  16.833  0.7880 -0.3489 -1.1499
  779TIP3    H223829   5.694   0.180  16.854  0.3237  0.9378  0.6423
  780TIP3   OH223830   2.086   4.005  14.246  0.0634  0.1245 -0.4868
  780TIP3    H123831   2.105   4.095  14.220 -1.0942  0.5940  0.2446
  780TIP3    H223832   2.141   3.990  14.323  1.2952 -0.2853 -1.4093
  781TIP3   OH223833   6.396   6.291  14.747  0.8141 -0.1813 -0.1093
  781TIP3    H123834   6.491   6.278  14.747  0.7450 -0.9050 -1.6295
  781TIP3    H223835   6.362   6.211  14.787  0.8395  0.3809  1.1004
  782TIP3   OH223836   6.282   3.631   3.176  0.1678  0.1192 -0.2671
  782TIP3    H123837   6.187   3.640   3.174 -0.0349 -0.5506  2.4747
  782TIP3    H223838   6.311   3.667   3.092 -2.2941  2.8951 -0.1116
  783TIP3   OH223839   3.368   5.257   2.534 -0.9052 -0.3684  0.0889
  783TIP3    H123840   3.309   5.327   2.563 -1.0709 -0.7967  0.7957
  783TIP3    H223841   3.432   5.302   2.479 -1.3662  0.2426  0.0338
  784TIP3   OH223842   4.876   6.424  14.917 -0.0620 -0.6491 -0.0893
  784TIP3    H123843   4.867   6.403  14.824  0.7983 -1.2472 -0.0586
  784TIP3    H223844   4.971   6.433  14.930 -0.2420  0.4774  0.5139
  785TIP3   OH223845   3.334   4.962   1.305  0.8713  0.1700  0.6321
  785TIP3    H123846   3.406   4.956   1.367 -0.3072 -0.6179  1.9770
  785TIP3    H223847   3.340   4.882   1.252 -0.8430 -1.5972  2.8912
  786TIP3   OH223848   1.997   5.110   4.895  0.8450 -0.8707 -0.4494
  786TIP3    H123849   1.962   5.024   4.871 -2.5058  0.3273 -0.4627
  786TIP3    H223850   1.940   5.172   4.849 -0.0127  1.4104  3.2912
  787TIP3   OH223851   5.943   0.189  15.297  0.7495 -0.3114  0.1013
  787TIP3    H123852   5.959   0.097  15.318  1.4400 -0.2769 -0.2469
  787TIP3    H223853   5.857   0.207  15.334  1.3113 -0.6368  1.6493
  788TIP3   OH223854   6.106   3.557  14.823  0.5720  0.1681 -0.3922
  788TIP3    H123855   6.042   3.487  14.819 -0.1558  0.8673 -2.0200
  788TIP3    H223856   6.177   3.522  14.876 -0.9990 -0.7422  1.2152
  789TIP3   OH223857   3.850   0.463   6.784  0.3399  0.0448 -0.5167
  789TIP3    H123858   3.921   0.411   6.821  1.2639 -0.5877 -2.9595
  789TIP3    H223859   3.851   0.544   6.834  1.4340 -0.7514  0.8267
  790TIP3   OH223860   3.170   0.266  13.049 -0.5172  0.4821  0.0654
  790TIP3    H123861   3.184   0.187  13.100  0.8561 -0.3856 -1.5504
  790TIP3    H223862   3.102   0.243  12.986 -0.6367  0.8253  0.0669
  791TIP3   OH223863   0.664   0.037   4.684 -0.0786 -0.0754 -0.3496
  791TIP3    H123864   0.624   0.104   4.740 -1.1931  0.9157 -2.2516
  791TIP3    H223865   0.747   0.016   4.727 -0.7520  0.8330  1.5084
  792TIP3   OH223866   0.429   4.830  10.292 -0.6250  0.6575  0.4809
  792TIP3    H123867   0.476   4.772  10.231 -2.5540 -0.5322  0.0449
  792TIP3    H223868   0.462   4.917  10.271  1.1315 -0.0681 -0.0145
  793TIP3   OH223869   0.494   0.085   6.446  0.0873 -0.0069 -0.0287
  793TIP3    H123870   0.471   0.162   6.497  2.0386  1.3513 -1.0653
  793TIP3    H223871   0.443   0.014   6.485  0.6306  1.1439  3.0864
  794TIP3   OH223872   3.332   5.195   0.015 -0.5408 -0.8141  0.3241
  794TIP3    H123873   3.297   5.279   0.044 -0.9418 -0.3426 -1.3980
  794TIP3    H223874   3.425   5.197   0.039 -0.9278 -0.6667  1.9132
  795TIP3   OH223875   0.844   4.129   0.869  0.0295 -0.5246  0.1791
  795TIP3    H123876   0.887   4.145   0.953  1.0865  0.8079 -0.5736
  795TIP3    H223877   0.770   4.191   0.868 -1.3009 -2.0315  0.9958
  796TIP3   OH223878   5.962   0.708  14.178 -0.1513  0.9106  0.1546
  796TIP3    H123879   5.962   0.615  14.154  0.4717  0.7107  0.9107
  796TIP3    H223880   5.922   0.751  14.102 -3.5184 -0.2743  1.0667
  797TIP3   OH223881   0.772   1.417  16.160 -0.1349  0.5635 -0.1929
  797TIP3    H123882   0.682   1.451  16.165  0.4092  2.4314 -1.7513
  797TIP3    H223883   0.809   1.436  16.246 -0.8740  0.8529  0.0719
  798TIP3   OH223884   6.421   0.596  15.811 -0.1394  0.1216 -0.0656
  798TIP3    H123885   6.466   0.547  15.880  0.1594  1.0355  0.4078
  798TIP3    H223886   6.341   0.546  15.795 -0.2913 -0.0358  1.0642
  799TIP3   OH223887   4.449   1.288   0.140  0.6191 -0.7709  0.4938
  799TIP3    H123888   4.459   1.382   0.131 -0.4456 -0.8085 -2.1198
  799TIP3    H223889   4.394   1.276   0.218  0.7855  0.7461  0.8612
  800TIP3   OH223890   3.278   0.166   3.570 -0.2325 -0.4711  0.3575
  800TIP3    H123891   3.308   0.125   3.489 -1.5352 -1.2412  0.2334
  800TIP3    H223892   3.293   0.260   3.557 -1.0379 -0.5152 -1.0608
  801TIP3   OH223893   6.829   5.803  15.926  0.4170  0.2414  0.8339
  801TIP3    H123894   6.847   5.853  15.846  0.3072  1.3826  1.5121
  801TIP3    H223895   6.734   5.807  15.937  0.5075  0.7727  1.4578
  802TIP3   OH223896   4.882   4.092   5.613  0.3905  0.0564  1.2674
  802TIP3    H123897   4.819   4.160   5.637  1.2806  0.5976  2.1291
  802TIP3    H223898   4.904   4.049   5.695  2.3988  0.9820  1.2521
  803TIP3   OH223899   1.904   0.688  15.858  0.2153  0.1605 -0.0156
  803TIP3    H123900   1.999   0.677  15.850  0.4718  1.3883  0.9742
  803TIP3    H223901   1.878   0.624  15.925  0.2826 -0.3844 -0.5011
  804TIP3   OH223902   4.418   6.766  14.937 -0.1780 -0.0018 -0.1822
  804TIP3    H123903   4.389   6.843  14.986  0.1482 -1.3131  2.2255
  804TIP3    H223904   4.511   6.782  14.920  0.5076 -0.7529  2.3597
  805TIP3   OH223905   6.371   5.847   0.112 -0.3262  0.0946  0.3532
  805TIP3    H123906   6.418   5.777   0.067 -0.2646 -0.2406  0.9296
  805TIP3    H223907   6.429   5.873   0.183 -0.5436  0.4226  0.4119
  806TIP3   OH223908   2.528   5.320   3.538  0.7826 -0.0101  0.3991
  806TIP3    H123909   2.503   5.394   3.593  0.0729 -0.7781  1.1231
  806TIP3    H223910   2.501   5.242   3.587 -1.3226 -0.6942 -1.6810
  807TIP3   OH223911   1.385   2.784  15.478 -0.0684  0.4736 -0.6485
  807TIP3    H123912   1.374   2.698  15.517  2.6260  1.2816  2.2860
  807TIP3    H223913   1.448   2.770  15.407  1.2441  0.1112  0.5396
  808TIP3   OH223914   5.401   5.949  11.936 -0.2101 -0.2416  0.2614
  808TIP3    H123915   5.487   5.988  11.948 -0.0632 -0.0757 -1.1839
  808TIP3    H223916   5.414   5.882  11.870 -0.8518 -1.4470  1.3266
  809TIP3   OH223917   2.945   2.210  12.308 -0.1531 -0.5867  0.4178
  809TIP3    H123918   3.033   2.186  12.338  0.6611  1.1071 -0.4753
  809TIP3    H223919   2.905   2.254  12.383  0.5831  0.5403  0.1786
  810TIP3   OH223920   5.988   4.341   4.615  0.3137 -0.2725  0.0558
  810TIP3    H123921   6.079   4.368   4.629  0.5543 -0.5867 -0.8297
  810TIP3    H223922   5.990   4.246   4.621 -0.5379 -0.2102  3.2193
  811TIP3   OH223923   0.449   2.099   6.665  0.2544  0.2560 -0.3406
  811TIP3    H123924   0.523   2.135   6.715  1.0339  0.3417 -1.5093
  811TIP3    H223925   0.376   2.157   6.687  0.7525  0.7176  0.1558
  812TIP3   OH223926   0.180   2.868   4.110 -0.6456  0.8280 -0.2660
  812TIP3    H123927   0.121   2.938   4.084 -0.4398  2.6296  3.5903
  812TIP3    H223928   0.202   2.886   4.201  3.3100 -1.5758 -0.5036
  813TIP3   OH223929   2.226   5.599  13.564 -0.4542 -0.2232 -0.2455
  813TIP3    H123930   2.292   5.668  13.563  0.3917 -0.8741  2.6071
  813TIP3    H223931   2.163   5.625  13.496 -0.2278  3.3710  0.7355
  814TIP3   OH223932   6.750   6.795   5.133 -0.1962 -0.7762 -0.0151
  814TIP3    H123933   6.780   6.728   5.073  0.3840 -0.8370  0.3324
  814TIP3    H223934   6.809   6.869   5.118 -0.8941 -0.3024 -0.4688
  815TIP3   OH223935   6.195   3.770  10.890 -0.1544 -0.0452  0.4388
  815TIP3    H123936   6.107   3.734  10.899 -0.8335  1.7731  1.4662
  815TIP3    H223937   6.209   3.777  10.796 -2.2578  2.2300  0.2082
  816TIP3   OH223938   5.407   2.541  13.679  0.4636  0.7978  0.8476
  816TIP3    H123939   5.339   2.600  13.647  0.7756  1.2412  0.9918
  816TIP3    H223940   5.359   2.473  13.726 -0.0918 -0.4722 -1.4197
  817TIP3   OH223941   5.510   5.399  10.773 -0.2107  0.0076  0.4290
  817TIP3    H123942   5.509   5.485  10.731  0.0135 -1.2377 -2.3214
  817TIP3    H223943   5.496   5.337  10.702  1.5863 -2.3817  2.0060
  818TIP3   OH223944   1.186   3.143   5.898 -0.4017  0.2702 -0.0322
  818TIP3    H123945   1.138   3.131   5.817 -0.6670  1.0196  0.0055
  818TIP3    H223946   1.122   3.183   5.958 -0.4759 -1.0842  0.8326
  819TIP3   OH223947   6.726   5.876  12.744  0.1289 -0.0934  0.3184
  819TIP3    H123948   6.813   5.912  12.724  0.6463 -1.4106  0.0317
  819TIP3    H223949   6.677   5.887  12.662  0.2194  0.1173  0.2909
  820TIP3   OH223950   0.885   0.522   5.535 -0.2082 -0.0802 -0.2888
  820TIP3    H123951   0.798   0.558   5.551 -0.6594 -0.7380 -1.1840
  820TIP3    H223952   0.930   0.531   5.619 -0.9422  0.7856  0.0299
  821TIP3   OH223953   0.646   0.677   4.676  0.2653 -0.1342 -0.0995
  821TIP3    H123954   0.597   0.740   4.623  1.0385  1.2872  0.7942
  821TIP3    H223955   0.581   0.612   4.703 -0.8917  1.0594  0.0937
  822TIP3   OH223956   3.429   0.042  14.944 -0.2834 -0.2640 -0.1530
  822TIP3    H123957   3.436   0.130  14.980 -0.2086  0.0659 -0.9530
  822TIP3    H223958   3.510  -0.001  14.969  0.3025  0.3488 -0.9270
  823TIP3   OH223959   4.384   6.034  15.362  0.1029 -0.8019  0.1709
  823TIP3    H123960   4.411   6.113  15.409  0.1331 -0.1140 -0.9760
  823TIP3    H223961   4.436   6.035  15.282 -1.1993 -1.0184 -0.7073
  824TIP3   OH223962   5.491   2.684   3.144  0.6172  0.0646 -0.8819
  824TIP3    H123963   5.536   2.744   3.204  1.7325 -1.2970 -0.3061
  824TIP3    H223964   5.437   2.741   3.089  1.5743  1.5808 -0.3057
  825TIP3   OH223965   3.288   2.252  16.285  0.0854 -0.4245  0.2196
  825TIP3    H123966   3.298   2.234  16.378  0.2129  1.6015  0.6422
  825TIP3    H223967   3.202   2.294  16.277 -0.4947 -1.7599 -0.7867
  826TIP3   OH223968   4.530   2.632   3.978 -0.5855  0.1410  0.1178
  826TIP3    H123969   4.618   2.663   3.959 -0.7023 -0.5340 -1.7847
  826TIP3    H223970   4.494   2.609   3.892 -2.4563 -0.0115  0.8973
  827TIP3   OH223971   4.072   5.884  10.964 -0.3217  0.1278  0.1629
  827TIP3    H123972   3.981   5.891  10.934  0.0488 -0.1513 -1.0610
  827TIP3    H223973   4.092   5.970  11.001 -0.8562  0.4154 -0.2069
  828TIP3   OH223974   3.615   0.899   1.487  0.2545 -0.1412  0.2269
  828TIP3    H123975   3.627   0.855   1.403 -0.5736 -0.1358  0.1003
  828TIP3    H223976   3.529   0.871   1.517  0.7420 -0.5120  1.3010
  829TIP3   OH223977   1.012   5.338  16.087 -0.2100 -0.3707  0.0904
  829TIP3    H123978   0.952   5.284  16.139  0.3942 -0.7959  0.3513
  829TIP3    H223979   1.047   5.402  16.148 -2.8787  2.0920 -0.7143
  830TIP3   OH223980   3.721   0.721  11.493 -0.1575 -0.0226 -0.5250
  830TIP3    H123981   3.726   0.794  11.555 -0.1887 -0.3110 -0.1811
  830TIP3    H223982   3.659   0.751  11.426 -2.1161 -0.6694  0.8998
  831TIP3   OH223983   3.690   6.060  13.078  0.6917 -0.1896 -0.2990
  831TIP3    H123984   3.777   6.024  13.061  1.5033  1.5374 -0.0714
  831TIP3    H223985   3.691   6.145  13.035 -0.0105  0.8997  1.7060
  832TIP3   OH223986   0.111   6.518  15.631 -0.5172 -0.3555  0.4129
  832TIP3    H123987   0.147   6.485  15.713  0.3755 -0.4963 -0.0180
  832TIP3    H223988   0.146   6.607  15.623 -1.9171  0.2715  0.9678
  833TIP3   OH223989   0.124   2.729  16.353 -0.1887  0.6632  0.2188
  833TIP3    H123990   0.040   2.749  16.311  0.6070  0.6480 -1.4617
  833TIP3    H223991   0.170   2.674  16.289  0.2753 -1.1530  2.0019
  834TIP3   OH223992   0.117   3.569   4.743  0.2331  0.5906 -0.2711
  834TIP3    H123993   0.138   3.541   4.832  0.1854  0.2245 -0.3734
  834TIP3    H223994   0.194   3.619   4.715  1.6274 -1.8537 -1.1268
  835TIP3   OH223995   3.882   6.450   3.997 -0.1007 -0.3017 -0.0323
  835TIP3    H123996   3.841   6.447   4.083 -0.3070  0.6125 -0.0956
  835TIP3    H223997   3.809   6.462   3.936  0.2137  0.9591 -0.1747
  836TIP3   OH223998   2.744   4.966   5.386 -0.0648 -0.1728 -0.0967
  836TIP3    H123999   2.737   4.958   5.481 -3.0672  0.8287 -0.1265
  836TIP3    H224000   2.740   5.061   5.370  0.1777 -0.3408 -1.2366
  837TIP3   OH224001   6.209   3.529   4.758  0.1246 -0.1640  0.5652
  837TIP3    H124002   6.303   3.533   4.743  0.1696  0.1506  0.9304
  837TIP3    H224003   6.175   3.480   4.682  0.3650  1.2027 -0.4646
  838TIP3   OH224004   3.942   2.105   0.508 -0.3482  0.0705  0.3793
  838TIP3    H124005   3.943   2.022   0.460  0.0243 -0.1368  0.7314
  838TIP3    H224006   3.869   2.095   0.570 -1.4829  0.7442 -0.8195
  839TIP3   OH224007   6.118   2.269  15.053  0.2257 -0.2249 -0.0665
  839TIP3    H124008   6.046   2.210  15.075 -0.9054  0.8620 -0.7327
  839TIP3    H224009   6.110   2.342  15.114 -0.2218  0.6591 -1.1464
  840TIP3   OH224010   3.139   2.933   3.265  0.2281 -0.3184 -0.2637
  840TIP3    H124011   3.202   3.004   3.275 -0.1834 -0.0568  0.5565
  840TIP3    H224012   3.189   2.862   3.225  1.2477 -0.3808  1.0530
  841TIP3   OH224013   6.318   1.043  12.061  0.1005  0.2047  0.2817
  841TIP3    H124014   6.362   1.009  11.983  2.4886 -2.4139  2.5280
  841TIP3    H224015   6.232   1.000  12.061  0.9418 -1.6070  0.1521
  842TIP3   OH224016   2.089   2.042  12.796 -0.3345  0.1133  0.5454
  842TIP3    H124017   2.132   1.957  12.799 -0.8010 -0.1157  0.8140
  842TIP3    H224018   2.025   2.039  12.867 -1.6908 -0.0373 -0.6370
  843TIP3   OH224019   6.241   2.403  10.851 -0.0673 -0.2967 -0.3819
  843TIP3    H124020   6.224   2.447  10.768 -1.2803 -1.7238 -0.9447
  843TIP3    H224021   6.269   2.473  10.910 -2.3961  1.3544 -1.0587
  844TIP3   OH224022   4.522   1.355   5.617  0.6371  0.2609 -0.7235
  844TIP3    H124023   4.553   1.440   5.587  0.2277  0.5564 -0.3089
  844TIP3    H224024   4.554   1.294   5.551  0.6950  0.7693 -1.1725
  845TIP3   OH224025   2.383   3.731  13.073 -0.8412 -0.8201 -0.0478
  845TIP3    H124026   2.359   3.641  13.050 -1.0568 -0.1916 -2.6298
  845TIP3    H224027   2.440   3.760  13.001 -0.4211  0.9666  0.9377
  846TIP3   OH224028   2.602   6.054  11.446  0.4452 -0.1690  0.0834
  846TIP3    H124029   2.685   6.086  11.411 -0.0772 -0.0097 -1.0700
  846TIP3    H224030   2.611   5.959  11.449  0.0093 -0.3251 -1.9222
  847TIP3   OH224031   4.757   1.656  11.196  0.1524 -0.2243  0.3499
  847TIP3    H124032   4.733   1.727  11.136 -3.1360 -2.3985 -1.2244
  847TIP3    H224033   4.827   1.609  11.150 -0.8165 -0.5857 -0.8020
  848TIP3   OH224034   3.435   2.779  16.304  0.2595  0.2227 -0.1343
  848TIP3    H124035   3.374   2.852  16.298 -0.2592 -0.1379  0.6415
  848TIP3    H224036   3.514   2.810  16.260 -0.0131  1.1814  0.0477
  849TIP3   OH224037   1.455   0.763   2.231 -0.2254  0.6638  0.0634
  849TIP3    H124038   1.548   0.749   2.213  0.0725  0.7182  1.4382
  849TIP3    H224039   1.455   0.818   2.309 -1.4154  1.6304 -0.5973
  850TIP3   OH224040   1.628   1.170   5.368  0.1239  0.0924  0.3424
  850TIP3    H124041   1.597   1.260   5.381 -0.8357 -0.2151  0.2738
  850TIP3    H224042   1.711   1.179   5.321  0.0881  0.9436  0.4280
  851TIP3   OH224043   1.766   4.813   5.009 -0.4113  0.0189  0.2468
  851TIP3    H124044   1.778   4.894   5.060 -0.2828 -0.7097  1.4202
  851TIP3    H224045   1.738   4.749   5.074 -0.9791 -0.7672 -0.7592
  852TIP3   OH224046   2.152   1.766  16.820  0.0058 -0.0148 -0.2715
  852TIP3    H124047   2.142   1.672  16.839 -0.9639  0.5461  2.5928
  852TIP3    H224048   2.245   1.776  16.798  0.3896 -1.5289  0.4893
  853TIP3   OH224049   2.110   1.693  12.485  0.9591 -0.6685 -0.5857
  853TIP3    H124050   2.159   1.645  12.418  0.8763 -1.1572 -0.3027
  853TIP3    H224051   2.178   1.731  12.541  1.0291 -0.2212 -0.9665
  854TIP3   OH224052   1.373   2.202   4.478 -0.0815  0.6525 -0.3165
  854TIP3    H124053   1.347   2.130   4.535  1.4505 -0.0610 -0.4571
  854TIP3    H224054   1.466   2.214   4.496 -0.1101  2.0082 -0.9540
  855TIP3   OH224055   0.295   3.476   3.214  0.5401 -0.0652 -0.7482
  855TIP3    H124056   0.258   3.562   3.194  1.7676  0.3668 -1.2833
  855TIP3    H224057   0.350   3.491   3.291  0.5168 -0.4418 -0.6574
  856TIP3   OH224058   3.545   0.466   3.367  0.2018  0.2249 -0.8841
  856TIP3    H124059   3.502   0.488   3.284  0.2408  2.6575 -0.3437
  856TIP3    H224060   3.639   0.469   3.348  0.2050 -0.1194 -0.9364
  857TIP3   OH224061   5.444   3.684  16.420  0.4824  0.2760  0.0311
  857TIP3    H124062   5.414   3.593  16.415 -0.7805  0.7390 -2.0535
  857TIP3    H224063   5.463   3.708  16.329  0.6424  2.1344  0.5183
  858TIP3   OH224064   0.761   3.972  14.062 -0.1648 -0.4715 -0.0966
  858TIP3    H124065   0.735   3.880  14.072 -0.5820 -0.2246  1.3172
  858TIP3    H224066   0.774   4.003  14.151 -1.0495  1.1342 -0.4843
  859TIP3   OH224067   5.192   4.419   4.700  0.4908  0.6632  1.1474
  859TIP3    H124068   5.228   4.335   4.727  1.4411  0.6215 -0.1567
  859TIP3    H224069   5.111   4.429   4.752  1.4969 -0.0068  2.9321
  860TIP3   OH224070   6.547   2.853  14.963 -0.5306 -0.2544  0.1796
  860TIP3    H124071   6.637   2.883  14.972 -1.2299  1.3039  4.0882
  860TIP3    H224072   6.554   2.759  14.946  1.8534 -0.3756  1.5133
  861TIP3   OH224073   3.920   4.420   0.528 -0.0703 -0.2768  0.0778
  861TIP3    H124074   3.884   4.332   0.541 -0.8505  0.0502  0.1501
  861TIP3    H224075   3.886   4.471   0.601  1.0483 -0.1048  0.5026
  862TIP3   OH224076   1.116   5.633   2.017 -0.5603 -0.1226  0.0278
  862TIP3    H124077   1.168   5.711   2.041  0.9037  0.0059 -3.0953
  862TIP3    H224078   1.036   5.669   1.980 -0.9818 -0.2267  0.8015
  863TIP3   OH224079   4.439   2.484   5.949 -0.0979  0.1544 -0.0132
  863TIP3    H124080   4.468   2.393   5.951  1.9935  0.7734  0.8113
  863TIP3    H224081   4.492   2.528   6.016 -1.6031  1.8452  0.1603
  864TIP3   OH224082   5.615   4.336   6.001 -0.4108  0.5461  0.2279
  864TIP3    H124083   5.569   4.358   5.920 -1.0453 -0.8541  0.1747
  864TIP3    H224084   5.708   4.340   5.978 -0.5745 -1.9728 -1.2432
  865TIP3   OH224085   6.121   6.715   2.554 -0.1812  0.1357  0.3813
  865TIP3    H124086   6.167   6.732   2.636 -0.5201  0.4806  0.5018
  865TIP3    H224087   6.123   6.798   2.507 -1.2195  0.3434  0.6638
  866TIP3   OH224088   0.766   5.245  15.366 -0.1772 -0.1029 -0.5359
  866TIP3    H124089   0.692   5.186  15.384 -0.9023  1.2017  1.0630
  866TIP3    H224090   0.833   5.218  15.429  0.5270 -0.9150 -1.6041
  867TIP3   OH224091   2.115   2.138  14.898 -0.0972 -0.6055  0.1338
  867TIP3    H124092   2.181   2.169  14.961  0.1240  0.1386 -0.4466
  867TIP3    H224093   2.031   2.159  14.939  0.0449 -0.1982  0.2208
  868TIP3   OH224094   6.587   4.711   1.507  0.4472  0.1896 -0.2205
  868TIP3    H124095   6.617   4.802   1.516  2.5891 -0.4815 -0.0512
  868TIP3    H224096   6.527   4.699   1.581  1.1086  1.1074  0.4930
  869TIP3   OH224097   6.122   2.457  12.474 -0.0091 -0.4581  0.0522
  869TIP3    H124098   6.074   2.394  12.528 -0.9844 -1.6403 -2.0639
  869TIP3    H224099   6.202   2.474  12.523 -0.2880 -2.3825  1.3106
  870TIP3   OH224100   6.711   2.238  12.519  0.6754  0.4297  0.1835
  870TIP3    H124101   6.660   2.159  12.541 -0.5095  0.5389 -1.9373
  870TIP3    H224102   6.646   2.300  12.486  1.3153  2.9581  3.1160
  871TIP3   OH224103   4.346   2.573   0.374 -0.3411 -0.2191 -0.4568
  871TIP3    H124104   4.304   2.570   0.460  0.7257  0.8927  0.1137
  871TIP3    H224105   4.339   2.483   0.341 -0.4880 -0.7260  0.9152
  872TIP3   OH224106   6.283   5.989  15.884  0.5618  0.3982 -0.1152
  872TIP3    H124107   6.316   6.063  15.832 -0.0760  0.4067 -0.5198
  872TIP3    H224108   6.241   5.932  15.820 -0.4944  0.5514  0.4313
  873TIP3   OH224109   3.850   6.429   2.172 -0.8464  0.1718 -0.2317
  873TIP3    H124110   3.798   6.377   2.234  0.3093 -0.1007  0.5252
  873TIP3    H224111   3.928   6.376   2.155 -0.6741  0.6950 -1.1546
  874TIP3   OH224112   0.775   3.229  11.117  0.1528  0.4150 -0.6863
  874TIP3    H124113   0.761   3.315  11.079 -0.3360  0.1014 -1.2380
  874TIP3    H224114   0.726   3.231  11.200  0.3106  0.7284 -0.5998
  875TIP3   OH224115   1.918   3.974   1.377 -0.5718 -0.3680  0.6417
  875TIP3    H124116   1.932   3.900   1.436 -0.6541  0.5693  1.8726
  875TIP3    H224117   1.838   3.952   1.330 -0.0938 -1.4783  0.3016
  876TIP3   OH224118   3.340   0.132   0.127  0.0127 -0.8455  0.2059
  876TIP3    H124119   3.414   0.130   0.188  1.0580 -0.1151 -0.9966
  876TIP3    H224120   3.370   0.082   0.051  0.9482  2.7095 -2.0286
  877TIP3   OH224121   3.922   4.036   6.569 -0.6940  0.2609 -1.0347
  877TIP3    H124122   3.847   4.032   6.628  0.3254 -2.0421  0.2939
  877TIP3    H224123   3.975   4.108   6.602 -0.9992  0.1164 -0.2062
  878TIP3   OH224124   3.395   4.387  10.321 -0.1115  0.1577 -0.0501
  878TIP3    H124125   3.374   4.408  10.230  1.3929 -1.2250 -0.7658
  878TIP3    H224126   3.404   4.472  10.364  0.8265  0.8803 -1.6007
  879TIP3   OH224127   5.591   2.993  12.259 -0.1313  0.2354  0.1861
  879TIP3    H124128   5.505   2.970  12.294 -0.0620  0.6386  0.6307
  879TIP3    H224129   5.636   2.909  12.248  0.2166  0.1325  2.0505
  880TIP3   OH224130   2.850   0.470  14.292  0.2002 -0.7178  0.7509
  880TIP3    H124131   2.925   0.527  14.278 -1.5239  1.1117 -2.0626
  880TIP3    H224132   2.856   0.444  14.384  2.3215  2.2128  1.5667
  881TIP3   OH224133   5.411   3.689   3.127 -0.0270  0.2410 -0.1960
  881TIP3    H124134   5.504   3.672   3.114  0.1113  0.2425  0.7080
  881TIP3    H224135   5.407   3.740   3.208 -1.0035 -2.6306  1.7225
  882TIP3   OH224136   4.829   3.164   2.075  0.0867  0.3108 -0.3545
  882TIP3    H124137   4.755   3.197   2.126  1.3180  1.4110  0.8235
  882TIP3    H224138   4.858   3.240   2.024 -1.2043 -0.7948 -2.9279
  883TIP3   OH224139   5.336   2.728   1.812 -0.0932  0.2158 -0.5280
  883TIP3    H124140   5.400   2.680   1.864  0.3739  0.9393 -0.4199
  883TIP3    H224141   5.389   2.776   1.748 -0.5601  0.4734 -0.7269
  884TIP3   OH224142   0.738   1.582   0.355 -0.4842 -0.0994  0.0707
  884TIP3    H124143   0.744   1.670   0.393  0.3657  0.2511 -0.8392
  884TIP3    H224144   0.740   1.523   0.430 -2.3439  0.6778  0.7945
  885TIP3   OH224145   5.300   6.540   1.886  0.5501 -0.0617 -0.1941
  885TIP3    H124146   5.266   6.466   1.936 -3.4032  0.6375 -1.4705
  885TIP3    H224147   5.322   6.606   1.952 -0.3557 -0.7148  0.7922
  886TIP3   OH224148   1.696   6.175   3.236  0.2219  0.3420  0.4765
  886TIP3    H124149   1.673   6.104   3.296 -4.2081  1.2311  0.1339
  886TIP3    H224150   1.727   6.131   3.157 -2.0568 -1.2777  0.3973
  887TIP3   OH224151   6.701   4.203   4.409  0.1570  0.1578 -0.5280
  887TIP3    H124152   6.643   4.234   4.340 -0.0008 -0.1251 -0.5225
  887TIP3    H224153   6.646   4.200   4.487  0.7742  2.2811  0.0621
  888TIP3   OH224154   1.826   3.539  15.738  0.1068 -0.1199  0.1031
  888TIP3    H124155   1.806   3.532  15.832 -1.1249 -0.9691 -0.1957
  888TIP3    H224156   1.911   3.497  15.728  0.6465  0.7276  0.9578
  889TIP3   OH224157   6.801   2.622  12.947  0.1252 -0.0316  0.8022
  889TIP3    H124158   6.841   2.707  12.961  2.2868 -0.7749 -0.4139
  889TIP3    H224159   6.788   2.586  13.036  1.4928  0.5544  1.2551
  890TIP3   OH224160   3.072   4.697   4.672 -0.0603 -0.1369 -0.3307
  890TIP3    H124161   3.095   4.648   4.593 -0.5494 -0.5288 -0.2408
  890TIP3    H224162   3.102   4.641   4.744  1.5446  0.8073 -0.2377
  891TIP3   OH224163   2.881   4.478  15.151 -0.1079  0.1427  0.0653
  891TIP3    H124164   2.916   4.505  15.066 -0.3482 -0.5795 -0.2725
  891TIP3    H224165   2.855   4.387  15.139 -1.9697  0.5836  0.3307
  892TIP3   OH224166   5.814   6.717  15.815  0.1631  0.0010  0.2267
  892TIP3    H124167   5.729   6.673  15.814 -0.1037  0.5154  0.4435
  892TIP3    H224168   5.854   6.690  15.898 -1.0868  2.2137  1.6505
  893TIP3   OH224169   4.104   6.174  11.731 -0.8489  0.4448  0.1585
  893TIP3    H124170   4.182   6.200  11.682  0.3804  0.2060  1.8926
  893TIP3    H224171   4.031   6.202  11.677  0.3991 -0.8101 -2.3305
  894TIP3   OH224172   4.134   2.238   1.480 -0.4366 -0.5057 -0.2146
  894TIP3    H124173   4.171   2.171   1.538  0.3155  1.0027  1.1003
  894TIP3    H224174   4.044   2.250   1.511  0.1933  0.8374  1.1888
  895TIP3   OH224175   2.466   6.177   1.300  0.5266 -0.5821  0.3280
  895TIP3    H124176   2.415   6.134   1.369  1.0430  1.0274  1.8155
  895TIP3    H224177   2.419   6.158   1.219 -1.7288 -0.2396  1.4710
  896TIP3   OH224178   4.926   1.531  14.989  0.0504 -0.1574  0.2955
  896TIP3    H124179   4.990   1.585  14.942  0.2389  0.3421  1.1172
  896TIP3    H224180   4.972   1.448  15.003  0.2195 -0.0905  0.1476
  897TIP3   OH224181   5.556   3.203   4.737  0.3454 -0.6897 -0.4231
  897TIP3    H124182   5.542   3.108   4.728 -1.4945 -0.6837  1.5665
  897TIP3    H224183   5.643   3.210   4.777  0.1918 -1.5898  0.0994
  898TIP3   OH224184   5.800   0.442  12.651  0.4027 -0.2197 -0.3279
  898TIP3    H124185   5.719   0.391  12.651  0.5985 -0.5247 -0.1316
  898TIP3    H224186   5.771   0.532  12.634  0.0884 -0.4349 -0.9451
  899TIP3   OH224187   0.587   2.248  12.744 -0.3337  0.2490 -0.1721
  899TIP3    H124188   0.545   2.231  12.829  1.8879 -2.0239  0.5939
  899TIP3    H224189   0.604   2.342  12.744 -2.0075  0.6009  1.0641
  900TIP3   OH224190   6.034   3.480  16.358 -0.4132  0.0195  0.2997
  900TIP3    H124191   6.005   3.570  16.340 -1.3813 -0.3079  0.2017
  900TIP3    H224192   6.118   3.474  16.312 -0.5870  0.7108 -0.1402
  901TIP3   OH224193   0.883   4.199   2.439 -0.3765  0.2406  0.6156
  901TIP3    H124194   0.959   4.244   2.476  0.2005  0.3005 -0.5838
  901TIP3    H224195   0.848   4.260   2.373 -1.4158  0.1767  1.0869
  902TIP3   OH224196   3.148   5.061   3.572 -0.1297  0.0941 -0.0745
  902TIP3    H124197   3.053   5.053   3.583 -0.0929  0.6421  0.7209
  902TIP3    H224198   3.179   4.970   3.568 -0.5691 -0.1168  0.8890
  903TIP3   OH224199   2.505   6.464  14.819  0.3611 -0.0746 -0.5281
  903TIP3    H124200   2.578   6.465  14.758 -0.4590 -1.5612 -1.5881
  903TIP3    H224201   2.493   6.372  14.842 -0.3399  0.2929  0.6621
  904TIP3   OH224202   1.988   1.047   4.809 -0.2737 -0.2813 -0.2728
  904TIP3    H124203   1.909   1.021   4.762  0.2215 -0.4403 -1.0244
  904TIP3    H224204   2.060   1.020   4.752  0.2975  0.8635 -0.1206
  905TIP3   OH224205   2.199   0.602  13.815 -0.6378  0.3131 -0.5834
  905TIP3    H124206   2.285   0.562  13.799 -0.5730 -0.3122  1.1353
  905TIP3    H224207   2.142   0.563  13.749  0.0794 -0.4215 -0.7894
  906TIP3   OH224208   5.314   5.353   0.817 -0.7124 -0.3489 -0.4777
  906TIP3    H124209   5.277   5.385   0.899 -2.8149 -1.5865 -0.8650
  906TIP3    H224210   5.268   5.403   0.749  1.7821  1.4601 -0.9870
  907TIP3   OH224211   5.116   0.487   4.268 -0.8812  0.2343  0.1595
  907TIP3    H124212   5.175   0.438   4.326 -0.4022 -0.5382 -0.9576
  907TIP3    H224213   5.029   0.451   4.287 -0.6552 -0.3987  0.0202
  908TIP3   OH224214   0.664   6.327  14.821 -0.1932  0.2839 -0.1447
  908TIP3    H124215   0.743   6.366  14.784 -0.4328  0.4149 -0.5260
  908TIP3    H224216   0.668   6.235  14.795  0.6188 -0.0769  1.1685
  909TIP3   OH224217   2.778   1.126  14.535  0.1779 -0.3014  0.1920
  909TIP3    H124218   2.857   1.098  14.580  2.2170 -1.7157 -3.7906
  909TIP3    H224219   2.714   1.057  14.553  1.1453 -1.1693  0.3584
  910TIP3   OH224220   0.584   2.983   1.319  0.7344 -0.4480 -0.5041
  910TIP3    H124221   0.619   2.945   1.400 -0.0179  1.6464  0.8633
  910TIP3    H224222   0.634   3.063   1.306  0.0147 -0.1347 -1.4506
  911TIP3   OH224223   5.181   6.319  10.688  0.1893  0.3677  0.2726
  911TIP3    H124224   5.238   6.328  10.764 -0.1170 -0.8754  0.6792
  911TIP3    H224225   5.234   6.348  10.614  0.7488  0.8687  0.8609
  912TIP3   OH224226   6.815   3.239   2.058 -0.0976 -0.0023 -0.6318
  912TIP3    H124227   6.788   3.241   2.150 -0.5818  2.2345 -0.7562
  912TIP3    H224228   6.878   3.167   2.053  0.4121  0.2174  1.6004
  913TIP3   OH224229   3.060   6.634  14.352 -0.3086 -0.2872 -0.3693
  913TIP3    H124230   3.078   6.548  14.389 -0.5778 -0.6768 -1.1167
  913TIP3    H224231   3.144   6.664  14.317 -0.5032 -0.9034 -1.4164
  914TIP3   OH224232   4.235   3.461   2.304  0.5722 -0.0826 -0.0799
  914TIP3    H124233   4.157   3.444   2.356  0.8398 -2.7992 -0.4209
  914TIP3    H224234   4.301   3.488   2.369 -0.0146 -0.0388  0.5103
  915TIP3   OH224235   2.190   0.952  13.323 -0.6424 -0.3850  0.6106
  915TIP3    H124236   2.151   0.895  13.257  0.4158  1.0403 -1.3463
  915TIP3    H224237   2.282   0.959  13.298 -0.5566  1.4705  1.2921
  916TIP3   OH224238   4.702   1.245   4.162  0.2152  0.6220 -0.2527
  916TIP3    H124239   4.798   1.247   4.154  0.2972 -0.7383  0.1691
  916TIP3    H224240   4.677   1.157   4.133 -0.8965  0.8791 -0.1311
  917TIP3   OH224241   2.444   4.064  12.495  0.1024  0.2839  0.0525
  917TIP3    H124242   2.427   4.050  12.588 -1.1189  1.3989  0.0347
  917TIP3    H224243   2.539   4.057  12.486  0.4149  1.7556  1.6872
  918TIP3   OH224244   2.159   4.663   1.626  0.4154  0.4755  0.5034
  918TIP3    H124245   2.222   4.633   1.560 -0.2655  0.3473 -0.0951
  918TIP3    H224246   2.080   4.611   1.609  0.2942  0.2958  1.5534
  919TIP3   OH224247   2.928   3.748  13.326  0.6838 -0.0482 -0.4536
  919TIP3    H124248   2.833   3.747  13.327  0.6886 -0.3201 -0.0486
  919TIP3    H224249   2.954   3.720  13.414  1.1576 -2.3716 -1.2557
  920TIP3   OH224250   0.495   0.555   3.619  0.1363  0.4947  0.2241
  920TIP3    H124251   0.423   0.610   3.651 -1.8484 -1.8769  0.1727
  920TIP3    H224252   0.460   0.466   3.623  2.6331 -0.6451 -1.1473
  921TIP3   OH224253   1.086   4.398   3.784 -0.1204  0.8747 -0.6444
  921TIP3    H124254   1.050   4.346   3.713 -0.2876  1.1016 -0.7284
  921TIP3    H224255   1.037   4.480   3.781  1.5484  1.8802 -1.8463
  922TIP3   OH224256   5.223   4.203  14.076 -0.2393 -0.4484 -0.4092
  922TIP3    H124257   5.234   4.146  14.000 -0.2782 -0.7319 -0.2039
  922TIP3    H224258   5.161   4.156  14.132  0.3390 -0.5748  0.1294
  923TIP3   OH224259   4.852   2.135  15.962  0.6678 -0.7368  0.0363
  923TIP3    H124260   4.876   2.097  15.877 -0.3147 -1.7490  0.1789
  923TIP3    H224261   4.900   2.082  16.026  0.0188 -1.1551  0.1901
  924TIP3   OH224262   3.431   0.068   6.467 -0.2348  0.1429  0.0445
  924TIP3    H124263   3.351   0.042   6.421 -0.5472  1.5532 -0.2388
  924TIP3    H224264   3.502   0.042   6.409 -0.2860 -2.9947  1.1610
  925TIP3   OH224265   0.040   1.661   2.383 -0.0848 -0.1228 -0.0770
  925TIP3    H124266   0.079   1.712   2.313 -0.0875  0.6114  0.4498
  925TIP3    H224267   0.081   1.575   2.375  1.4953  0.5557  0.3295
  926TIP3   OH224268   3.259   4.760   3.995 -0.4818 -0.7260  0.2106
  926TIP3    H124269   3.284   4.812   4.072  0.2514 -2.6714  1.3661
  926TIP3    H224270   3.328   4.695   3.987 -0.9272 -1.0097 -1.6987
  927TIP3   OH224271   0.292   1.261   2.174 -0.2391  0.3823 -0.1848
  927TIP3    H124272   0.248   1.322   2.234 -1.3847 -0.9983  0.4712
  927TIP3    H224273   0.220   1.210   2.136  0.5790  0.3875 -1.8012
  928TIP3   OH224274   5.542   5.749   4.217 -0.2714 -0.1149 -0.1063
  928TIP3    H124275   5.457   5.707   4.212  0.1067 -0.8092 -0.8577
  928TIP3    H224276   5.605   5.677   4.219  0.3156  0.3904  0.1431
  929TIP3   OH224277   5.106   5.901  15.824 -0.3132 -0.3106  0.1354
  929TIP3    H124278   5.063   5.832  15.875  1.0131  0.6093  2.6828
  929TIP3    H224279   5.138   5.856  15.745 -3.0928 -1.6461 -0.3752
  930TIP3   OH224280   1.682   3.160  15.163  0.2791  0.2595  0.5397
  930TIP3    H124281   1.629   3.083  15.183 -0.0743  0.5211  0.6226
  930TIP3    H224282   1.706   3.149  15.070  0.3186  0.0017  0.5790
  931TIP3   OH224283   4.600   5.937  12.463 -0.0725  0.0161 -0.2388
  931TIP3    H124284   4.558   5.862  12.422  0.4598 -0.5698  0.2719
  931TIP3    H224285   4.642   5.984  12.391 -1.2492  0.3971 -0.7014
  932TIP3   OH224286   6.610   0.246  12.610 -0.8852  0.5747  0.4054
  932TIP3    H124287   6.557   0.324  12.591 -0.3776  1.0581  0.9124
  932TIP3    H224288   6.583   0.182  12.545 -0.2179  1.6865 -1.0373
  933TIP3   OH224289   4.841   4.691  11.889 -0.2322 -0.2094 -0.2047
  933TIP3    H124290   4.834   4.761  11.823 -0.1591 -0.4544 -0.4729
  933TIP3    H224291   4.853   4.611  11.838 -1.3066 -0.5593  0.0724
  934TIP3   OH224292   1.859   1.952   6.166  0.0626  0.4144 -0.3077
  934TIP3    H124293   1.955   1.946   6.171  0.2898  0.5936 -2.8744
  934TIP3    H224294   1.836   2.027   6.220  1.3405  0.2194  0.5412
  935TIP3   OH224295   3.775   5.348  11.160  0.3461  0.7768  0.4617
  935TIP3    H124296   3.862   5.364  11.123 -0.0140 -0.8500 -1.2765
  935TIP3    H224297   3.715   5.365  11.087 -0.6996  0.7394  1.2956
  936TIP3   OH224298   6.180   5.584   4.720 -0.0924 -0.2549  0.1728
  936TIP3    H124299   6.197   5.671   4.684  1.4831  0.1585  1.7940
  936TIP3    H224300   6.235   5.525   4.669  0.4836  0.0158  0.4798
  937TIP3   OH224301   0.544   2.998  11.540  0.3085 -0.2894  0.2797
  937TIP3    H124302   0.527   2.930  11.605 -1.1813 -0.4436 -0.2391
  937TIP3    H224303   0.459   3.019  11.503  0.9991  0.4418 -0.9996
  938TIP3   OH224304   0.783   6.271   5.987 -0.8497  0.1829 -0.0827
  938TIP3    H124305   0.748   6.360   5.992 -2.0202 -0.2930  0.5449
  938TIP3    H224306   0.716   6.217   6.028  0.2157 -0.8962  0.2678
  939TIP3   OH224307   5.381   1.836  13.077  0.0965 -0.2589  0.4572
  939TIP3    H124308   5.326   1.858  13.002 -0.2941  0.4463  0.9401
  939TIP3    H224309   5.333   1.766  13.122 -0.5731  0.5561  1.0409
  940TIP3   OH224310   3.288   4.877  12.158  0.1306  0.0829 -0.2249
  940TIP3    H124311   3.311   4.891  12.250 -0.1636  1.1256 -0.2974
  940TIP3    H224312   3.345   4.805  12.130 -0.2967 -0.7532  0.9632
  941TIP3   OH224313   4.888   1.223   3.495  0.5994  0.2515 -0.3991
  941TIP3    H124314   4.938   1.142   3.484 -1.3819 -1.2448  0.8724
  941TIP3    H224315   4.899   1.246   3.587  1.4932  1.7188 -0.8442
  942TIP3   OH224316   5.720   3.509   0.849  0.1685  0.2581 -0.0115
  942TIP3    H124317   5.668   3.588   0.837 -0.5628 -0.3011 -0.5681
  942TIP3    H224318   5.657   3.437   0.847  0.5877 -0.2462  2.3254
  943TIP3   OH224319   2.533   6.113  12.619 -0.3636 -0.2110  0.3036
  943TIP3    H124320   2.528   6.021  12.595  1.0062 -0.5093  1.0806
  943TIP3    H224321   2.547   6.113  12.714  1.9043  0.6819  0.0331
  944TIP3   OH224322   4.052   4.084   0.338 -0.0575 -0.6048  0.0175
  944TIP3    H124323   4.040   4.131   0.255 -0.3518  1.3309  1.1046
  944TIP3    H224324   3.978   4.111   0.392  0.6682 -1.0561  1.2739
  945TIP3   OH224325   4.725   1.035  12.989  0.3043  0.3702  0.3594
  945TIP3    H124326   4.721   0.952  12.940  1.7417  0.6815 -0.3239
  945TIP3    H224327   4.739   1.102  12.922  2.3137  0.8112  1.1410
  946TIP3   OH224328   5.434   2.825  11.580  0.1065  0.3806  0.0127
  946TIP3    H124329   5.489   2.761  11.534 -0.6412  1.0074 -1.8343
  946TIP3    H224330   5.471   2.910  11.556  0.0994  0.7227  1.1479
  947TIP3   OH224331   6.049   4.725  13.309  0.5248  0.0103  0.1409
  947TIP3    H124332   6.018   4.665  13.241 -0.3837 -0.6574  1.1282
  947TIP3    H224333   6.076   4.669  13.381  3.9132  0.5452 -0.5411
  948TIP3   OH224334   5.704   0.955  12.110  0.2530 -0.2536 -0.2118
  948TIP3    H124335   5.697   1.038  12.063 -0.2446 -0.8642 -1.2638
  948TIP3    H224336   5.675   0.889  12.046 -4.2251 -0.8082  1.9990
  949TIP3   OH224337   4.405   6.835   0.931  0.4120 -0.0966  0.3401
  949TIP3    H124338   4.427   6.915   0.884  0.1056  0.0285  0.4070
  949TIP3    H224339   4.313   6.847   0.957 -0.0056 -0.9640 -0.6737
  950TIP3   OH224340   1.101   3.610   5.868  0.4236  0.1711  0.8767
  950TIP3    H124341   1.132   3.609   5.958  0.5866  0.5737  0.8273
  950TIP3    H224342   1.173   3.572   5.817 -0.0288 -0.9334  1.0171
  951TIP3   OH224343   4.591   3.543  12.947 -0.3626  0.2647 -0.2298
  951TIP3    H124344   4.516   3.593  12.978  0.9497  2.8407 -0.9887
  951TIP3    H224345   4.653   3.544  13.021 -0.2634 -0.1060 -0.3058
  952TIP3   OH224346   4.301   2.131  15.729 -0.0893 -0.1125 -0.1164
  952TIP3    H124347   4.270   2.041  15.733 -0.1668 -0.0395  2.5500
  952TIP3    H224348   4.389   2.128  15.768 -0.0409  0.9447 -0.1040
  953TIP3   OH224349   3.097   5.738  16.499  0.4383  0.2620  0.2465
  953TIP3    H124350   3.107   5.818  16.550  1.2726  1.6651 -1.9340
  953TIP3    H224351   3.108   5.767  16.408  0.0733 -2.2394 -0.6705
  954TIP3   OH224352   4.848   4.202   4.247 -0.5973  0.1529 -0.4074
  954TIP3    H124353   4.941   4.226   4.243 -0.6478  0.2857 -0.7547
  954TIP3    H224354   4.837   4.136   4.179 -0.3622 -1.2072  0.8346
  955TIP3   OH224355   4.915   2.357  13.107  0.9588 -0.0583  0.3380
  955TIP3    H124356   5.007   2.364  13.082  1.6246 -2.8179  1.6210
  955TIP3    H224357   4.916   2.358  13.203 -0.2153 -1.0491  0.3924
  956TIP3   OH224358   0.568   0.988   1.972 -0.2038  0.0560 -0.3100
  956TIP3    H124359   0.659   0.959   1.964 -0.2842 -0.3314  0.1465
  956TIP3    H224360   0.557   1.009   2.064 -0.4868  0.4089 -0.4233
  957TIP3   OH224361   1.739   5.006  16.785 -0.1312  0.2596 -0.2337
  957TIP3    H124362   1.788   4.970  16.711 -0.7037  0.5410 -0.7644
  957TIP3    H224363   1.649   5.014  16.752 -0.6581 -0.7660  0.8931
  958TIP3   OH224364   0.006   5.163  14.256  0.3455  0.0000 -0.5527
  958TIP3    H124365  -0.082   5.191  14.230 -0.1395 -1.0039 -0.0283
  958TIP3    H224366   0.061   5.186  14.181 -0.7247 -1.2277 -1.7684
  959TIP3   OH224367   6.791   1.508  12.808  0.3757  0.2305 -0.3420
  959TIP3    H124368   6.763   1.493  12.718  0.8698 -0.2963 -0.4086
  959TIP3    H224369   6.725   1.568  12.843 -0.2340 -0.1417 -0.8222
  960TIP3   OH224370   2.482   2.258  15.941  0.0576 -0.2335 -0.1228
  960TIP3    H124371   2.516   2.347  15.936 -0.3567  0.0442  1.4632
  960TIP3    H224372   2.434   2.246  15.859  0.3654  0.8882 -0.4855
  961TIP3   OH224373   0.948   2.675   0.218  0.1426 -0.1733  0.0931
  961TIP3    H124374   0.880   2.741   0.201 -0.8943 -1.5020 -1.1539
  961TIP3    H224375   0.913   2.594   0.181  2.2026 -1.0263 -0.1512
  962TIP3   OH224376   4.345   5.454  14.074 -0.1569  0.6383  0.2921
  962TIP3    H124377   4.254   5.486  14.073 -1.4906 -2.7403 -0.8603
  962TIP3    H224378   4.393   5.521  14.123 -2.9764  3.2133 -0.1395
  963TIP3   OH224379   1.072   6.832  11.275 -0.2161  0.4599 -0.2241
  963TIP3    H124380   1.003   6.836  11.341 -0.9427 -0.2077 -0.9252
  963TIP3    H224381   1.141   6.780  11.316 -0.4023  0.5776  0.2392
  964TIP3   OH224382   0.893   5.431   1.804 -0.6304  0.4704  0.6035
  964TIP3    H124383   0.889   5.525   1.786 -3.9503  0.2232 -0.7784
  964TIP3    H224384   0.836   5.392   1.738 -1.5632 -2.2281  2.8035
  965TIP3   OH224385   4.636   3.034  15.409  0.4369 -0.1128  0.1440
  965TIP3    H124386   4.657   3.039  15.502  0.0493  0.5802  0.1975
  965TIP3    H224387   4.693   2.964  15.376 -0.1237 -1.0542  1.0909
  966TIP3   OH224388   3.738   3.795   5.245  0.0460 -0.9666 -0.5605
  966TIP3    H124389   3.728   3.873   5.189  1.7629 -1.5559 -1.7730
  966TIP3    H224390   3.697   3.725   5.195  0.7593 -1.3158 -0.6646
  967TIP3   OH224391   2.336   0.352   5.040  0.0532 -0.5959 -0.0614
  967TIP3    H124392   2.283   0.273   5.051  0.1109 -0.6347 -0.0637
  967TIP3    H224393   2.426   0.320   5.040  0.0560 -0.5868 -0.6059
  968TIP3   OH224394   4.125   5.605  17.137 -0.0895 -0.3163  0.0681
  968TIP3    H124395   4.032   5.588  17.152 -0.7806  0.4183 -2.7604
  968TIP3    H224396   4.137   5.697  17.161 -0.3142 -0.1916 -0.2778
  969TIP3   OH224397   2.478   6.514  12.700  0.2477  0.0941 -0.5766
  969TIP3    H124398   2.508   6.593  12.654  1.1107 -1.0727 -2.1323
  969TIP3    H224399   2.494   6.443  12.638 -2.1559 -1.1231  0.0797
  970TIP3   OH224400   4.122   6.147  12.267  1.1257 -0.0543  0.0360
  970TIP3    H124401   4.138   6.053  12.275  1.5133  0.0586  0.6738
  970TIP3    H224402   4.053   6.164  12.332  0.0092 -0.1411 -1.0934
  971TIP3   OH224403   5.305   0.863   6.889  0.3754 -0.1443  0.0476
  971TIP3    H124404   5.210   0.848   6.890  0.3101  0.0882  2.1136
  971TIP3    H224405   5.342   0.776   6.874 -0.1637 -0.6346  1.3777
  972TIP3   OH224406   3.454   3.043  15.978 -0.0466  0.6306 -0.2852
  972TIP3    H124407   3.479   3.051  16.070 -2.8006  0.5976  0.5397
  972TIP3    H224408   3.493   2.960  15.950 -1.2966 -0.6924  1.6516
  973TIP3   OH224409   1.511   4.495   3.365 -0.2394 -0.4627  0.0233
  973TIP3    H124410   1.460   4.543   3.431 -1.2741 -2.4939  0.7850
  973TIP3    H224411   1.558   4.428   3.415  3.2967  1.2985 -0.6485
  974TIP3   OH224412   2.725   2.871   6.371  0.2556 -0.3457  0.3196
  974TIP3    H124413   2.782   2.926   6.318 -0.9217 -0.6979 -1.4080
  974TIP3    H224414   2.693   2.804   6.310 -0.9050 -0.9711  1.5593
  975TIP3   OH224415   0.491   6.613   4.384 -0.2020  0.1494  0.1252
  975TIP3    H124416   0.407   6.605   4.429 -1.1354  1.7528 -1.2305
  975TIP3    H224417   0.533   6.689   4.424  0.2260 -0.1135  0.1888
  976TIP3   OH224418   0.764   0.804  14.838 -0.2807 -0.0028  0.7068
  976TIP3    H124419   0.816   0.747  14.895  0.7995 -0.7328 -0.9440
  976TIP3    H224420   0.803   0.794  14.751 -1.4276  1.6215 -0.0522
  977TIP3   OH224421   2.055   6.030   3.829 -0.4435  0.5715  0.0480
  977TIP3    H124422   2.089   6.035   3.740 -0.5626 -0.2510 -0.0542
  977TIP3    H224423   1.967   5.994   3.819  0.2697 -1.4833  0.6152
  978TIP3   OH224424   3.148   5.540   3.599  0.4481 -0.1827 -0.0158
  978TIP3    H124425   3.181   5.451   3.608 -0.6775 -0.6883 -0.6524
  978TIP3    H224426   3.170   5.583   3.681 -0.5848 -1.5920  1.0552
  979TIP3   OH224427   0.550   6.409   5.249 -0.3389  0.3597 -0.1219
  979TIP3    H124428   0.486   6.363   5.194  0.0192  0.7121 -0.8376
  979TIP3    H224429   0.536   6.502   5.230 -0.3261  0.5015  0.5178
  980TIP3   OH224430   5.812   5.446  11.154  0.2572 -0.4911  0.2691
  980TIP3    H124431   5.772   5.392  11.085 -1.1462  0.8453 -0.0068
  980TIP3    H224432   5.842   5.525  11.109 -0.5604  0.3441  1.1464
  981TIP3   OH224433   5.828   2.749   2.995 -0.2463  0.1545  0.4435
  981TIP3    H124434   5.833   2.671   3.051 -0.8874 -1.0077 -1.0521
  981TIP3    H224435   5.734   2.766   2.987 -0.1321  0.6846  0.2069
  982TIP3   OH224436   2.849   1.018   1.444  0.2673 -0.1986 -0.2439
  982TIP3    H124437   2.797   0.941   1.466 -0.6443  0.4864  0.0637
  982TIP3    H224438   2.917   1.021   1.510 -0.1135 -0.3475  0.1605
  983TIP3   OH224439   2.035   3.215   0.206  0.1342 -0.4170 -0.1308
  983TIP3    H124440   2.020   3.121   0.190  1.3367 -0.6732  0.1662
  983TIP3    H224441   2.025   3.225   0.301 -3.5758  0.4685 -0.4689
  984TIP3   OH224442   2.215   4.165  15.605  0.7447  0.0127  0.2426
  984TIP3    H124443   2.290   4.221  15.627 -1.8061  3.3317  1.1866
  984TIP3    H224444   2.214   4.098  15.674  1.2518  1.6041  1.8670
  985TIP3   OH224445   6.745   6.031  16.442  0.3465 -0.0654  0.7191
  985TIP3    H124446   6.674   6.062  16.499 -0.0214  0.7051 -0.1462
  985TIP3    H224447   6.701   5.979  16.375  0.7880 -1.0162  1.1450
  986TIP3   OH224448   1.655   1.324  16.266  0.1991 -0.0907 -0.2157
  986TIP3    H124449   1.592   1.359  16.330  0.3956  1.5403 -0.8886
  986TIP3    H224450   1.713   1.397  16.246  1.8029 -1.3267 -0.2824
  987TIP3   OH224451   1.397   6.081   0.771  0.0095 -0.1798 -0.2553
  987TIP3    H124452   1.445   6.086   0.853 -1.6389 -0.9581  0.7946
  987TIP3    H224453   1.430   6.156   0.720  1.2686  0.1470  0.9621
  988TIP3   OH224454   4.370   5.870  11.560 -0.0251  0.2952  0.0100
  988TIP3    H124455   4.456   5.827  11.552 -0.9203 -1.7134  0.3598
  988TIP3    H224456   4.387   5.947  11.613  1.3904 -0.7733  1.2091
  989TIP3   OH224457   6.846   0.068   3.580 -0.4380 -0.1821  0.1998
  989TIP3    H124458   6.885   0.058   3.667  1.3115  0.5712 -0.4377
  989TIP3    H224459   6.780   0.136   3.591 -0.2318 -0.0937  0.9419
  990TIP3   OH224460   0.997   4.191   3.568  0.5064 -0.0724  0.9677
  990TIP3    H124461   0.948   4.115   3.537 -2.3616  1.0849  2.2827
  990TIP3    H224462   0.997   4.252   3.494  0.8367 -0.4638  0.6423
  991TIP3   OH224463   1.011   4.844  13.115  0.0780  0.7297 -0.0511
  991TIP3    H124464   1.032   4.934  13.093  0.7439  0.7597  0.6350
  991TIP3    H224465   0.921   4.847  13.148  0.0152  1.0975 -0.2524
  992TIP3   OH224466   5.956   1.146  16.054  0.0182 -0.0038 -0.4671
  992TIP3    H124467   6.007   1.200  16.115  0.2005  1.2137 -1.6432
  992TIP3    H224468   6.012   1.137  15.977  0.3111 -2.5822 -0.0465
  993TIP3   OH224469   2.720   1.025  13.614 -0.1863  0.0290 -0.1764
  993TIP3    H124470   2.661   1.013  13.689  0.9428 -0.3716  0.6861
  993TIP3    H224471   2.725   1.120  13.602 -1.5883  0.0448 -0.7627
  994TIP3   OH224472   5.051   6.675  13.198 -0.5730  0.2704 -0.1340
  994TIP3    H124473   5.112   6.655  13.269  1.5356  0.1918 -1.8410
  994TIP3    H224474   5.058   6.770  13.186 -0.2448  0.1721 -0.7727
  995TIP3   OH224475   3.572   5.047   1.909 -0.8070 -0.3346  0.1353
  995TIP3    H124476   3.647   4.988   1.923  0.1261  0.7089 -0.2864
  995TIP3    H224477   3.557   5.046   1.815  0.2911  1.3136 -0.1036
  996TIP3   OH224478   2.269   6.636  14.181  0.0043  0.0713  0.4106
  996TIP3    H124479   2.249   6.636  14.274  0.6275 -0.8128  0.5585
  996TIP3    H224480   2.355   6.596  14.175 -0.9789 -2.0278 -0.7138
  997TIP3   OH224481   3.996   4.343   2.692  0.3711 -0.3153  0.0604
  997TIP3    H124482   4.005   4.410   2.624 -1.1764 -0.2287 -0.0959
  997TIP3    H224483   4.085   4.308   2.702  1.0089  1.0075 -0.6092
  998TIP3   OH224484   4.407   2.218   3.421  0.0037 -0.2881 -0.4181
  998TIP3    H124485   4.417   2.131   3.383 -0.3632 -0.7242  0.4502
  998TIP3    H224486   4.355   2.267   3.357 -1.4052 -1.2868 -0.0830
  999TIP3   OH224487   0.274   3.888   2.266 -0.6387  0.1584  0.7253
  999TIP3    H124488   0.311   3.962   2.217  1.1620 -2.2215 -1.8185
  999TIP3    H224489   0.336   3.874   2.337  1.6028 -1.4818 -1.3628
 1000TIP3   OH224490   1.516   5.768   0.381 -0.2388 -0.9159  0.1880
 1000TIP3    H124491   1.522   5.751   0.287 -0.4298 -0.6821  0.1343
 1000TIP3    H224492   1.423   5.753   0.402 -0.2766 -0.5661  0.2634
 1001TIP3   OH224493   5.327   2.731   5.342 -0.1680  0.3053 -0.2749
 1001TIP3    H124494   5.338   2.822   5.370 -2.5820  0.6085 -0.0753
 1001TIP3    H224495   5.353   2.680   5.419 -1.0075  0.9258  0.4422
 1002TIP3   OH224496   5.259   0.124   1.765  0.8146  0.3082  0.2515
 1002TIP3    H124497   5.200   0.177   1.817 -0.4805 -1.0632  0.2484
 1002TIP3    H224498   5.342   0.125   1.814 -0.1390 -0.2917  1.9355
 1003TIP3   OH224499   0.576   0.576  14.691 -0.3162  0.5820 -0.7442
 1003TIP3    H124500   0.571   0.601  14.783  1.1203 -0.2674 -0.4103
 1003TIP3    H224501   0.545   0.653  14.644 -2.1875  0.6500  0.4523
 1004TIP3   OH224502   2.340   2.977   1.321 -0.3491 -0.1409  0.2848
 1004TIP3    H124503   2.411   3.011   1.266 -0.2824 -1.3865 -0.4589
 1004TIP3    H224504   2.308   3.053   1.369 -0.4003  1.0188 -1.4791
 1005TIP3   OH224505   0.412   2.046   0.148  0.7576  0.0789  0.1912
 1005TIP3    H124506   0.504   2.032   0.126  0.5815  0.1215 -0.6273
 1005TIP3    H224507   0.404   2.141   0.157  0.8739  0.0465  0.6568
 1006TIP3   OH224508   6.440   5.378  10.792 -0.4585 -0.1540  0.5847
 1006TIP3    H124509   6.383   5.409  10.721 -1.8940 -0.9689  1.3364
 1006TIP3    H224510   6.434   5.446  10.859 -0.0535  0.0451  0.4225
 1007TIP3   OH224511   5.247   2.238  16.397  0.0755  0.2533  0.1917
 1007TIP3    H124512   5.227   2.295  16.322  0.2083  1.5883  1.1320
 1007TIP3    H224513   5.189   2.268  16.466  0.7345 -0.2083  0.9670
 1008TIP3   OH224514   0.597   2.980   2.113  0.2308  0.4841  0.3090
 1008TIP3    H124515   0.638   2.950   2.033 -0.4069 -2.1386  0.8734
 1008TIP3    H224516   0.531   3.043   2.084 -0.5981 -1.0591 -1.3591
 1009TIP3   OH224517   0.980   4.456   2.098 -0.3731  0.5437  0.2857
 1009TIP3    H124518   1.019   4.543   2.097  1.6768 -0.2829  1.6652
 1009TIP3    H224519   1.019   4.412   2.022 -1.7801  0.9217 -0.7006
 1010TIP3   OH224520   4.096   0.339  15.902 -0.2157 -1.0469 -0.2975
 1010TIP3    H124521   4.035   0.405  15.937 -0.8587 -1.1749 -1.1632
 1010TIP3    H224522   4.183   0.371  15.929 -0.5635 -0.1775 -0.1568
 1011TIP3   OH224523   4.031   6.103  13.123 -0.2416  0.1033 -0.0823
 1011TIP3    H124524   4.103   6.159  13.150  0.0847 -0.7358  0.8404
 1011TIP3    H224525   3.984   6.155  13.058  0.0328  1.4558  0.7484
 1012TIP3   OH224526   0.523   1.546   4.303 -0.4476 -0.3889  0.6950
 1012TIP3    H124527   0.501   1.549   4.210 -0.4408  0.3523  0.7110
 1012TIP3    H224528   0.456   1.600   4.345 -0.6309 -0.9691  1.1587
 1013TIP3   OH224529   4.451   4.456   4.420 -0.3904  0.3690  0.3965
 1013TIP3    H124530   4.532   4.415   4.390 -1.2884 -1.4447  0.3034
 1013TIP3    H224531   4.391   4.446   4.346 -1.2661 -0.0695  1.1406
 1014TIP3   OH224532   1.169   6.012  14.942  0.5661 -0.2942  0.2662
 1014TIP3    H124533   1.243   5.979  14.992  1.3714 -0.0075 -0.7002
 1014TIP3    H224534   1.110   5.937  14.933  2.0768 -1.3612 -1.3578
 1015TIP3   OH224535   2.119   1.422   5.656  0.3088  0.6441 -0.4787
 1015TIP3    H124536   2.101   1.337   5.617 -3.9419  0.7106  0.8660
 1015TIP3    H224537   2.134   1.404   5.748 -3.3675  1.3914  0.3864
 1016TIP3   OH224538   3.866   0.495   4.795 -0.4651  0.3091 -0.4686
 1016TIP3    H124539   3.959   0.519   4.792 -0.0534 -1.1694 -0.1625
 1016TIP3    H224540   3.836   0.506   4.705  0.1374  0.3066 -0.6768
 1017TIP3   OH224541   5.766   3.222  11.376 -0.3446  0.2692  0.1879
 1017TIP3    H124542   5.772   3.290  11.443  0.1152 -0.0247  0.4520
 1017TIP3    H224543   5.837   3.161  11.397 -1.1222 -0.6141  0.3068
 1018TIP3   OH224544   1.368   1.182  15.684  0.5020  0.0640  0.6299
 1018TIP3    H124545   1.456   1.179  15.649  1.7168 -0.7446  3.4678
 1018TIP3    H224546   1.329   1.097  15.661  0.6431  0.2024 -0.1366
 1019TIP3   OH224547   1.772   3.753   2.210 -0.3650 -0.1187 -0.0001
 1019TIP3    H124548   1.681   3.777   2.199  0.0525  2.0551  0.7647
 1019TIP3    H224549   1.777   3.720   2.300 -0.3214  0.2200  0.1236
 1020TIP3   OH224550   4.007   6.804  16.897  0.6286 -0.6327  0.4064
 1020TIP3    H124551   4.008   6.712  16.870 -0.3487 -0.2484 -1.1108
 1020TIP3    H224552   3.943   6.807  16.968  0.1476 -1.0364  0.0065
 1021TIP3   OH224553   0.602   0.953   1.649 -0.2961  0.2886  0.1244
 1021TIP3    H124554   0.633   0.863   1.663  1.6114  0.4984 -2.0385
 1021TIP3    H224555   0.638   1.003   1.722 -1.3300 -0.6765  1.3220
 1022TIP3   OH224556   1.410   4.733  13.942 -0.6198  0.0424  0.4704
 1022TIP3    H124557   1.442   4.722  14.031  0.3047 -0.2427  0.1196
 1022TIP3    H224558   1.319   4.702  13.945 -0.2535 -1.0264  1.0682
 1023TIP3   OH224559   6.320   1.554  13.544  0.2576  0.7250  0.4467
 1023TIP3    H124560   6.258   1.626  13.533  0.2862  0.5872 -0.7402
 1023TIP3    H224561   6.294   1.490  13.478  1.6302  0.6534 -0.0682
 1024TIP3   OH224562   4.448   2.304  15.378 -0.1992 -0.0561  0.3017
 1024TIP3    H124563   4.389   2.350  15.438  1.8083  1.0839  1.5201
 1024TIP3    H224564   4.514   2.265  15.435 -0.6773 -2.7813 -0.8827
 1025TIP3   OH224565   0.955   5.322  13.477  0.3241 -0.0158 -0.2692
 1025TIP3    H124566   0.861   5.309  13.493  0.0798  0.3521 -1.3290
 1025TIP3    H224567   0.975   5.407  13.515  0.1560  0.0385 -0.3027
 1026TIP3   OH224568   6.702   3.539   2.456 -0.6413 -0.2721  0.1771
 1026TIP3    H124569   6.642   3.613   2.446  0.0380  0.4346  1.1720
 1026TIP3    H224570   6.788   3.579   2.468  0.1597 -1.2780 -1.7099
 1027TIP3   OH224571   3.416   2.732  13.990 -0.6358  0.1749 -0.2168
 1027TIP3    H124572   3.435   2.781  13.911  0.7143 -0.8208 -0.5522
 1027TIP3    H224573   3.334   2.685  13.971 -0.3157 -0.0649 -1.0360
 1028TIP3   OH224574   0.784   4.476   0.468  0.3304 -0.2146  0.1852
 1028TIP3    H124575   0.834   4.412   0.519 -0.6840 -1.1567  0.0550
 1028TIP3    H224576   0.770   4.433   0.384  3.5232  2.0007 -1.7066
 1029TIP3   OH224577   0.717   2.414  16.398 -0.0237  0.0420  0.3166
 1029TIP3    H124578   0.755   2.374  16.321  0.2596 -0.8372  0.9000
 1029TIP3    H224579   0.714   2.508  16.378 -1.9032 -0.3451 -1.6120
 1030TIP3   OH224580   3.846   4.255  11.871 -0.0257 -0.6829 -0.0841
 1030TIP3    H124581   3.921   4.275  11.815 -0.9481 -0.2699 -1.2085
 1030TIP3    H224582   3.842   4.159  11.873  0.9707 -0.7198  0.6058
 1031TIP3   OH224583   4.878   2.192  15.446  0.0312 -0.2375  0.0447
 1031TIP3    H124584   4.968   2.208  15.472 -0.1282  2.6177 -0.8454
 1031TIP3    H224585   4.859   2.260  15.382 -2.6367 -1.0127 -0.1129
 1032TIP3   OH224586   6.614   4.582   4.614 -0.5433 -0.6562 -0.0326
 1032TIP3    H124587   6.674   4.530   4.561  0.1836 -0.0636  0.1922
 1032TIP3    H224588   6.650   4.671   4.612 -0.8552 -0.4919  0.9176
 1033TIP3   OH224589   5.604   1.618  11.200 -0.2689  0.5888 -0.2128
 1033TIP3    H124590   5.618   1.547  11.137  1.4295  0.2244  0.5057
 1033TIP3    H224591   5.569   1.575  11.278  0.1745  0.6149  0.0067
 1034TIP3   OH224592   5.684   3.180  14.862  0.1081 -0.3134 -0.0021
 1034TIP3    H124593   5.676   3.086  14.847  0.7831 -0.4037  0.1633
 1034TIP3    H224594   5.673   3.219  14.776 -2.6366 -0.3498  0.2439
 1035TIP3   OH224595   1.179   2.613   3.976 -0.1320  0.2697  0.6566
 1035TIP3    H124596   1.230   2.534   3.992  0.0819  0.3274  0.2597
 1035TIP3    H224597   1.091   2.590   4.006 -1.3778 -1.8761 -3.7140
 1036TIP3   OH224598   3.411   6.788   5.032 -0.3914  0.5701 -0.3620
 1036TIP3    H124599   3.486   6.732   5.049 -0.7804  0.3659  0.7764
 1036TIP3    H224600   3.376   6.808   5.119 -2.7149 -0.7755 -0.9175
 1037TIP3   OH224601   5.427   2.327   4.690 -0.0868  0.0189  0.2643
 1037TIP3    H124602   5.365   2.256   4.708 -1.4221  0.7606 -1.1256
 1037TIP3    H224603   5.377   2.389   4.637  1.6474  1.0372 -0.2576
 1038TIP3   OH224604   3.842   1.630  12.081  0.5981 -0.3979  0.1859
 1038TIP3    H124605   3.850   1.545  12.125 -1.8515 -1.9586 -2.0500
 1038TIP3    H224606   3.904   1.625  12.008  2.0404  0.7168  1.2732
 1039TIP3   OH224607   4.182   0.427  14.866 -0.0218  0.0236 -0.3322
 1039TIP3    H124608   4.233   0.447  14.787  1.5021  1.5316  0.9688
 1039TIP3    H224609   4.178   0.509  14.914 -0.4951 -0.9630  1.4157
 1040TIP3   OH224610   1.487   4.367   0.335 -0.4402 -0.3054  0.0836
 1040TIP3    H124611   1.576   4.393   0.361 -1.3225  1.5263  1.4868
 1040TIP3    H224612   1.444   4.346   0.418 -1.6904  0.0730 -0.4550
 1041TIP3   OH224613   0.502   0.042   5.102 -0.7519 -0.3454  0.2794
 1041TIP3    H124614   0.415   0.034   5.063 -0.5900 -1.0608  0.0626
 1041TIP3    H224615   0.547   0.106   5.046 -1.8862  1.8730  1.7507
 1042TIP3   OH224616   2.854   4.093   5.745  0.1006 -0.2585 -0.6147
 1042TIP3    H124617   2.828   4.004   5.768 -2.7404  0.0029 -2.3073
 1042TIP3    H224618   2.912   4.082   5.669 -0.3033 -0.6958 -0.8706
 1043TIP3   OH224619   0.886   3.998  14.597  0.1439 -0.3117 -0.2321
 1043TIP3    H124620   0.919   4.035  14.679  0.2315 -1.5039  0.3010
 1043TIP3    H224621   0.964   3.967  14.552  0.2308  1.5356 -1.4104
 1044TIP3   OH224622   2.487   0.570  15.236  0.4220  0.3802  0.0740
 1044TIP3    H124623   2.398   0.537  15.248  0.7255 -0.1709  1.0140
 1044TIP3    H224624   2.480   0.664  15.250 -0.0746  0.3913 -0.2273
 1045TIP3   OH224625   6.764   1.680   3.229  0.0329  0.1828  0.1123
 1045TIP3    H124626   6.794   1.766   3.197 -2.0623  0.9722  0.1082
 1045TIP3    H224627   6.762   1.625   3.150 -0.1358  0.5940 -0.1754
 1046TIP3   OH224628   1.711   6.573   0.924  0.2956  0.0564  0.0070
 1046TIP3    H124629   1.763   6.568   0.844 -0.3271 -1.4755 -0.3373
 1046TIP3    H224630   1.625   6.603   0.895 -0.3040 -1.7022 -0.1204
 1047TIP3   OH224631   2.810   2.573  13.776  0.4334  0.2916  0.3234
 1047TIP3    H124632   2.734   2.615  13.818 -0.3405 -0.0769 -0.6686
 1047TIP3    H224633   2.846   2.642  13.720 -1.1759 -0.4269 -1.7457
 1048TIP3   OH224634   2.766   1.543  14.447 -0.7002 -0.3295  0.3241
 1048TIP3    H124635   2.729   1.532  14.359  0.9109  1.9720 -0.7414
 1048TIP3    H224636   2.743   1.632  14.472 -1.4628 -1.0695  2.4719
 1049TIP3   OH224637   6.513   5.350   3.823  0.0976 -0.6694  0.6419
 1049TIP3    H124638   6.472   5.324   3.741  0.3978 -0.9540  0.5779
 1049TIP3    H224639   6.591   5.399   3.797  0.3527 -1.0105  0.7473
 1050TIP3   OH224640   5.342   2.928  12.382 -0.1790  0.1631 -0.4217
 1050TIP3    H124641   5.250   2.914  12.362 -0.4669  1.4753 -0.1005
 1050TIP3    H224642   5.374   2.843  12.410 -0.7548 -0.8082 -2.5375
 1051TIP3   OH224643   1.194   6.360   1.275  0.6226  0.0411  0.1483
 1051TIP3    H124644   1.196   6.316   1.191 -1.3622  0.4541 -0.1713
 1051TIP3    H224645   1.243   6.441   1.261 -0.1256  0.3593 -0.8072
 1052TIP3   OH224646   1.122   3.413  14.123  0.8256  0.2194  0.6917
 1052TIP3    H124647   1.059   3.406  14.051  1.8327 -1.3656 -0.0920
 1052TIP3    H224648   1.084   3.361  14.194  0.7195  0.1923  0.6137
 1053TIP3   OH224649   2.512   4.206   1.305 -0.1185  0.1159 -0.2947
 1053TIP3    H124650   2.458   4.130   1.281  0.0601 -0.1364  0.0962
 1053TIP3    H224651   2.559   4.178   1.383 -0.2361  0.7169 -0.0015
 1054TIP3   OH224652   5.346   3.353   4.872  0.0225 -0.4232 -0.4456
 1054TIP3    H124653   5.380   3.342   4.961  0.7242  0.4279 -0.5905
 1054TIP3    H224654   5.405   3.301   4.817  0.4977  0.2234 -0.5712
 1055TIP3   OH224655   1.640   4.382   1.128  0.1986 -0.0392  0.2660
 1055TIP3    H124656   1.611   4.343   1.210 -0.1309  0.4631  0.3928
 1055TIP3    H224657   1.565   4.374   1.069  0.2029  0.1974  0.2257
 1056TIP3   OH224658   2.631   1.497  11.354 -0.1075 -0.5426 -0.2495
 1056TIP3    H124659   2.588   1.499  11.269 -0.6488  0.7410  0.0323
 1056TIP3    H224660   2.703   1.559  11.346 -1.0945  0.7753  0.6791
 1057TIP3   OH224661   2.712   2.216  11.713  0.2679  0.0400 -0.2322
 1057TIP3    H124662   2.675   2.233  11.799  3.2309 -0.7877  1.3343
 1057TIP3    H224663   2.721   2.302  11.673 -0.2649  0.5216  0.6579
 1058TIP3   OH224664   3.156   5.425   0.946  0.5337  0.2825  0.3244
 1058TIP3    H124665   3.132   5.367   1.018 -0.1471 -1.5550 -1.2897
 1058TIP3    H224666   3.211   5.371   0.889  0.3687  1.4106 -0.9557
 1059TIP3   OH224667   0.778   5.134   2.266  0.0561 -0.3546  0.0568
 1059TIP3    H124668   0.790   5.177   2.182 -0.0610 -0.9400 -0.2706
 1059TIP3    H224669   0.862   5.091   2.284 -0.5925 -2.1506 -0.8992
 1060TIP3   OH224670   0.804   1.305  13.004 -0.6296 -0.2624  0.5744
 1060TIP3    H124671   0.804   1.246  12.929 -1.3213  0.4434  0.0122
 1060TIP3    H224672   0.717   1.296  13.042 -0.8095  0.5445  0.3643
 1061TIP3   OH224673   6.421   6.265   5.359  0.6519 -0.0961 -0.5157
 1061TIP3    H124674   6.462   6.348   5.335  0.7245  0.0392  0.0696
 1061TIP3    H224675   6.328   6.285   5.367  0.6105 -0.1700 -0.8121
 1062TIP3   OH224676   4.306   0.619   0.926 -0.1399 -0.2643  0.0010
 1062TIP3    H124677   4.357   0.690   0.963 -2.9915  2.1341 -0.3276
 1062TIP3    H224678   4.324   0.623   0.832 -0.0371 -0.2174  0.0228
 1063TIP3   OH224679   2.102   2.815  11.643 -0.2450 -0.1160  0.1306
 1063TIP3    H124680   2.187   2.798  11.682 -0.8787 -1.0754  1.1605
 1063TIP3    H224681   2.121   2.848  11.556  1.1787 -0.0293  0.4591
 1064TIP3   OH224682   5.227   1.112  16.187  0.1382 -0.1763 -0.5001
 1064TIP3    H124683   5.228   1.086  16.095  0.8535  2.7281 -1.4123
 1064TIP3    H224684   5.264   1.200  16.188 -1.6549  0.6993  2.3081
 1065TIP3   OH224685   1.311   6.377   5.159  0.3675  0.0792 -0.3929
 1065TIP3    H124686   1.348   6.313   5.220  1.1655  0.2433 -0.6944
 1065TIP3    H224687   1.219   6.385   5.185  0.5884 -0.1927  0.4914
 1066TIP3   OH224688   5.774   4.281  15.261  0.3184  0.0024 -0.1780
 1066TIP3    H124689   5.688   4.297  15.299  0.4206  0.4505 -0.1271
 1066TIP3    H224690   5.803   4.367  15.231  1.3260  0.1098  1.0310
 1067TIP3   OH224691   1.316   5.424   2.010  0.1586 -0.0471 -0.0688
 1067TIP3    H124692   1.266   5.502   1.986 -0.4328 -0.4600 -0.2096
 1067TIP3    H224693   1.250   5.356   2.024  0.7271 -0.9691 -1.5901
 1068TIP3   OH224694   0.698   0.125   5.606  0.3760  0.3019  0.4353
 1068TIP3    H124695   0.678   0.040   5.645  0.9480 -0.8089 -1.4996
 1068TIP3    H224696   0.753   0.103   5.530  2.1262  2.5567  0.9421
 1069TIP3   OH224697   2.076   0.551  13.592  0.0424  0.1360  0.7921
 1069TIP3    H124698   2.071   0.594  13.507  1.6909 -2.7888 -0.9481
 1069TIP3    H224699   2.005   0.486  13.590  1.3287 -1.3316  0.7097
 1070TIP3   OH224700   5.903   6.226  15.789  0.3576 -0.0279  0.2689
 1070TIP3    H124701   5.947   6.306  15.817 -0.1462  0.6169 -0.7429
 1070TIP3    H224702   5.815   6.254  15.765 -0.1771 -1.0687  0.9381
 1071TIP3   OH224703   0.651   4.279   4.555 -0.5498  0.4102  0.3628
 1071TIP3    H124704   0.728   4.263   4.611 -0.7631  0.9370  0.8187
 1071TIP3    H224705   0.689   4.305   4.471 -0.2268  0.4895  0.5284
 1072TIP3   OH224706   2.446   3.248  11.956  0.3447  0.0508  0.3585
 1072TIP3    H124707   2.536   3.268  11.931 -0.1074  1.1811 -0.4631
 1072TIP3    H224708   2.399   3.240  11.873 -0.5960  0.9532  0.7699
 1073TIP3   OH224709   3.470   6.796  11.774 -0.2189  0.1754  0.3951
 1073TIP3    H124710   3.552   6.767  11.733 -0.1004  0.6451  0.2915
 1073TIP3    H224711   3.492   6.880  11.815 -0.5305  0.0749  0.7713
 1074TIP3   OH224712   1.440   2.579   5.859  0.1141 -0.2938 -0.2113
 1074TIP3    H124713   1.460   2.553   5.949  1.4966  0.0572 -0.4045
 1074TIP3    H224714   1.519   2.560   5.810 -0.7304 -0.7677 -1.4404
 1075TIP3   OH224715   1.802   5.172  10.936 -0.3984  0.9161 -0.1765
 1075TIP3    H124716   1.718   5.217  10.938 -1.2278 -0.5728 -0.1273
 1075TIP3    H224717   1.829   5.168  11.028 -1.2747 -0.3465  0.0538
 1076TIP3   OH224718   4.457   5.263  12.196 -0.0100 -0.1070 -0.0521
 1076TIP3    H124719   4.530   5.207  12.222  0.6067  0.0947 -1.2806
 1076TIP3    H224720   4.394   5.203  12.155  0.3651 -0.0152 -0.7853
 1077TIP3   OH224721   4.250   0.747  12.236  0.7752 -0.6938 -0.5097
 1077TIP3    H124722   4.241   0.772  12.329 -1.8946  0.3946 -0.9471
 1077TIP3    H224723   4.297   0.820  12.196 -1.0801  0.5714 -0.5484
 1078TIP3   OH224724   0.182   4.355  11.770  0.1847  0.7297  0.4706
 1078TIP3    H124725   0.099   4.398  11.752  0.4185  1.2303  0.5658
 1078TIP3    H224726   0.168   4.308  11.852 -0.8757 -1.5203 -0.8929
 1079TIP3   OH224727   0.523   5.276  12.902 -0.5826  0.7053 -0.2513
 1079TIP3    H124728   0.537   5.219  12.826  0.8282  0.1088  0.4047
 1079TIP3    H224729   0.612   5.300  12.930 -0.9327 -0.7543  2.4043
 1080TIP3   OH224730   4.768   4.518   1.070 -0.1260  0.1854  0.0587
 1080TIP3    H124731   4.729   4.579   1.008  0.1827 -0.3101 -0.6444
 1080TIP3    H224732   4.862   4.520   1.050  0.5017  2.4258  2.6528
 1081TIP3   OH224733   2.617   2.874   5.405  0.1179 -0.7040 -0.1656
 1081TIP3    H124734   2.562   2.882   5.482 -0.6449 -2.5753 -0.4640
 1081TIP3    H224735   2.563   2.905   5.333  0.4426 -0.0049 -0.1232
 1082TIP3   OH224736   4.976   6.345   5.496  0.1691  0.4198 -0.5972
 1082TIP3    H124737   4.932   6.427   5.519  2.4606  1.5721 -0.0154
 1082TIP3    H224738   5.012   6.313   5.579  0.2256 -0.6074 -1.0021
 1083TIP3   OH224739   3.524   2.534  11.848  0.1164  0.1298  0.6301
 1083TIP3    H124740   3.475   2.615  11.858 -2.1303 -1.0968  0.3845
 1083TIP3    H224741   3.563   2.518  11.934  0.5790  1.4391  0.6800
 1084TIP3   OH224742   6.095   6.244  11.756  0.2100  0.2991  0.2576
 1084TIP3    H124743   6.025   6.262  11.693  0.6726 -0.4432 -0.4887
 1084TIP3    H224744   6.164   6.205  11.704  1.5473  1.7940  0.8207
 1085TIP3   OH224745   1.567   6.097   1.565  0.8213  0.4118  0.3135
 1085TIP3    H124746   1.577   6.152   1.487  0.9745 -1.1489 -0.8029
 1085TIP3    H224747   1.542   6.159   1.634 -1.7922  1.5628 -1.4826
 1086TIP3   OH224748   1.165   4.893   4.801  0.1849  0.1593  0.6622
 1086TIP3    H124749   1.217   4.943   4.865  2.1054 -1.0381  0.1242
 1086TIP3    H224750   1.180   4.938   4.718 -0.2343  0.2230  0.6214
 1087TIP3   OH224751   1.372   3.263  14.207 -0.7133 -0.0144  0.1428
 1087TIP3    H124752   1.304   3.319  14.171 -0.6630  0.3117  0.5406
 1087TIP3    H224753   1.446   3.321  14.221  0.1634 -0.6408 -1.6174
 1088TIP3   OH224754   1.632   5.886  16.929  0.2612  0.2908 -0.2187
 1088TIP3    H124755   1.715   5.930  16.911  0.0293  0.1120 -1.9301
 1088TIP3    H224756   1.588   5.942  16.993  1.6826  0.3913  0.7036
 1089TIP3   OH224757   1.977   5.508  16.343 -0.1922  0.5778 -0.2221
 1089TIP3    H124758   1.882   5.512  16.331 -0.2574  0.7802  0.3206
 1089TIP3    H224759   2.004   5.599  16.355 -0.2752  0.3844  2.0049
 1090TIP3   OH224760   0.144   4.665  15.308 -0.3892  0.1940 -0.0013
 1090TIP3    H124761   0.194   4.602  15.256 -0.1220  0.7560 -0.4372
 1090TIP3    H224762   0.135   4.742  15.251 -0.3627  0.7012  0.6672
 1091TIP3   OH224763   3.878   4.506   0.805 -0.1149  0.0627 -0.2394
 1091TIP3    H124764   3.956   4.477   0.758  0.6992  3.3863 -1.1941
 1091TIP3    H224765   3.912   4.548   0.884 -1.3188 -2.5047  1.8273
 1092TIP3   OH224766   5.612   5.938  16.443 -0.8035 -0.3221  0.0355
 1092TIP3    H124767   5.590   6.031  16.435  1.2004  0.3704  1.6070
 1092TIP3    H224768   5.575   5.912  16.527 -1.6441 -1.0428 -0.5570
 1093TIP3   OH224769   1.286   3.386  12.388 -0.6640  0.0488 -0.3291
 1093TIP3    H124770   1.250   3.373  12.475 -0.0146 -2.2632 -0.3376
 1093TIP3    H224771   1.263   3.307  12.340  1.3508  0.0246 -1.3795
 1094TIP3   OH224772   5.690   2.854  11.980  0.5154  0.1421 -0.3750
 1094TIP3    H124773   5.709   2.823  11.892  0.7492  1.0783 -0.6649
 1094TIP3    H224774   5.775   2.880  12.015  0.7025 -1.8689  0.8036
 1095TIP3   OH224775   6.768   3.363   0.694  0.1575  0.4529 -0.2606
 1095TIP3    H124776   6.811   3.425   0.634  0.7428  0.2078 -0.0976
 1095TIP3    H224777   6.748   3.287   0.639  1.0203  0.0803 -0.0784
 1096TIP3   OH224778   0.678   1.436  11.873 -0.6787  0.1474  0.2319
 1096TIP3    H124779   0.692   1.482  11.790 -0.6584  2.1598  1.2871
 1096TIP3    H224780   0.624   1.360  11.850 -3.1953  2.2147 -1.2351
 1097TIP3   OH224781   6.111   3.242  12.311  0.1735  0.0736  1.0088
 1097TIP3    H124782   6.028   3.218  12.269 -0.2150  1.0106  1.2080
 1097TIP3    H224783   6.132   3.167  12.367  0.9416 -1.4363 -1.1484
 1098TIP3   OH224784   1.234   4.152  11.099 -0.3692  0.0516  0.0424
 1098TIP3    H124785   1.255   4.087  11.166 -0.4709  1.6324  1.6768
 1098TIP3    H224786   1.252   4.108  11.016 -1.6744 -2.5175  1.0005
 1099TIP3   OH224787   3.097   5.124  14.291  0.3093  0.2507 -0.7121
 1099TIP3    H124788   3.039   5.072  14.236  0.5903  0.4038 -1.1611
 1099TIP3    H224789   3.068   5.215  14.278 -0.2332  0.2112  0.1329
 1100TIP3   OH224790   3.035   0.946   5.352  0.4598 -0.1605 -0.4840
 1100TIP3    H124791   3.041   1.018   5.289 -1.6599 -0.2905 -0.9071
 1100TIP3    H224792   3.042   0.989   5.438  1.6994  0.2062 -0.7406
 1101TIP3   OH224793   1.518   3.386  11.215 -0.1101 -0.0929  0.7430
 1101TIP3    H124794   1.457   3.316  11.191 -1.0313  0.0038  2.6410
 1101TIP3    H224795   1.600   3.341  11.234  0.0502 -0.3668 -0.4884
 1102TIP3   OH224796   6.561   1.710  11.643 -0.2546  0.1065 -0.1976
 1102TIP3    H124797   6.478   1.739  11.604  0.4806  1.7917 -0.5855
 1102TIP3    H224798   6.611   1.675  11.570  0.7925  2.5046 -0.7417
 1103TIP3   OH224799   1.451   0.966   1.125 -0.3179 -0.1185 -0.5095
 1103TIP3    H124800   1.405   1.031   1.071 -1.5182 -0.1489  0.4544
 1103TIP3    H224801   1.528   1.013   1.157 -1.8510  1.3162  1.2627
 1104TIP3   OH224802   6.088   3.786   1.196 -0.0368  0.1604  0.3402
 1104TIP3    H124803   6.070   3.880   1.199 -0.8516  0.0864 -1.4425
 1104TIP3    H224804   6.010   3.746   1.235  0.0031  0.1773  0.4403
 1105TIP3   OH224805   0.310   1.085   3.038  0.3339  0.1424  0.3691
 1105TIP3    H124806   0.366   1.123   2.969  2.0509 -1.4577  0.8045
 1105TIP3    H224807   0.260   1.160   3.071  0.2024  1.1573 -1.8766
 1106TIP3   OH224808   1.206   4.647  12.681  0.9759  0.5474  0.0352
 1106TIP3    H124809   1.144   4.682  12.746  0.9943  1.0177 -0.1963
 1106TIP3    H224810   1.198   4.706  12.606  3.5562  2.1800  0.9114
 1107TIP3   OH224811   2.770   5.419  12.641 -0.4621  0.1946 -0.1654
 1107TIP3    H124812   2.718   5.406  12.562 -0.0163  0.8691 -0.5767
 1107TIP3    H224813   2.813   5.335  12.655 -0.6861  0.0150 -0.5367
 1108TIP3   OH224814   1.786   5.252   2.419  0.5099 -0.5927  0.2005
 1108TIP3    H124815   1.725   5.309   2.464  0.4767 -0.7124  0.3072
 1108TIP3    H224816   1.788   5.284   2.329  0.9673 -0.0294  0.4032
 1109TIP3   OH224817   2.445   2.291   0.595  0.1365 -0.0509  0.0163
 1109TIP3    H124818   2.490   2.253   0.670 -1.1700 -0.8774  0.4223
 1109TIP3    H224819   2.363   2.242   0.589 -0.3418  0.8442 -1.1857
 1110TIP3   OH224820   2.462   6.753  16.891  0.3430  0.3831  0.5297
 1110TIP3    H124821   2.373   6.783  16.910  0.0108  0.6058 -1.1663
 1110TIP3    H224822   2.500   6.734  16.976 -1.3878  0.1184  1.2805
 1111TIP3   OH224823   4.307   3.621   6.246 -0.2386  0.1634 -0.4763
 1111TIP3    H124824   4.330   3.668   6.326  2.2646  0.5730 -1.3562
 1111TIP3    H224825   4.301   3.529   6.274 -0.9190  0.4723  0.4475
 1112TIP3   OH224826   2.128   5.302   5.357  0.8185  0.2371  0.0400
 1112TIP3    H124827   2.202   5.245   5.378  0.4550 -0.9299 -1.6582
 1112TIP3    H224828   2.054   5.243   5.346  0.5995  0.8901 -2.5685
 1113TIP3   OH224829   4.210   5.907  14.837 -0.1079  0.3343  0.5453
 1113TIP3    H124830   4.120   5.926  14.810  0.6773  1.7581 -1.3666
 1113TIP3    H224831   4.230   5.976  14.900 -0.1306  0.4359  0.4419
 1114TIP3   OH224832   0.040   6.227  11.480  0.1757 -0.7270  0.2547
 1114TIP3    H124833  -0.015   6.160  11.521  0.0940 -0.0660  1.2683
 1114TIP3    H224834  -0.011   6.255  11.403 -0.5332 -0.6895  0.7269
 1115TIP3   OH224835   3.766   5.955   3.316  0.3693  0.0064 -0.3837
 1115TIP3    H124836   3.842   5.940   3.259  1.0293  1.1816  0.1337
 1115TIP3    H224837   3.713   6.018   3.267 -0.1577 -0.6284 -0.6352
 1116TIP3   OH224838   1.816   5.363   2.161 -0.1417 -0.4158 -0.1811
 1116TIP3    H124839   1.832   5.457   2.175 -0.3249 -0.5205  0.8313
 1116TIP3    H224840   1.721   5.355   2.161 -0.2262 -0.2718 -2.8225
 1117TIP3   OH224841   2.974   5.341   1.159 -0.0090 -0.1697  0.5334
 1117TIP3    H124842   3.022   5.261   1.180  1.8406  1.1612  1.7195
 1117TIP3    H224843   3.016   5.409   1.213 -2.6182  1.2949  0.8866
 1118TIP3   OH224844   0.492   4.604   1.236 -0.0723  0.5381  0.2385
 1118TIP3    H124845   0.516   4.554   1.158  0.3886  2.9981 -1.2970
 1118TIP3    H224846   0.556   4.674   1.240  0.3799  0.0736  3.3364
 1119TIP3   OH224847   1.905   6.200  14.062  0.4333  0.0103  0.4249
 1119TIP3    H124848   1.915   6.273  14.001  1.9541 -0.7778 -0.3130
 1119TIP3    H224849   1.967   6.220  14.132 -0.3826  0.2593  1.0958
 1120TIP3   OH224850   1.678   5.252  14.747  0.1125  0.4841  0.4919
 1120TIP3    H124851   1.617   5.202  14.693  0.4533  0.7718 -0.1609
 1120TIP3    H224852   1.755   5.264  14.693  1.2809 -0.9600  1.7640
 1121TIP3   OH224853   3.407   0.585   3.159 -0.0249  0.0192 -0.0526
 1121TIP3    H124854   3.446   0.622   3.080  0.8201  1.9773  1.2095
 1121TIP3    H224855   3.382   0.661   3.212  0.5352 -1.1922  2.0887
 1122TIP3   OH224856   2.861   0.352   6.315 -0.2478  0.1157  0.0944
 1122TIP3    H124857   2.822   0.431   6.353 -1.6106 -0.8617  0.8289
 1122TIP3    H224858   2.821   0.345   6.229 -0.9162 -0.3173  0.4341
 1123TIP3   OH224859   6.549   5.381   5.402  0.6821  0.3840  0.0628
 1123TIP3    H124860   6.556   5.292   5.367  0.4359  0.2686  0.2976
 1123TIP3    H224861   6.457   5.404   5.388  0.5274  0.2539  0.8151
 1124TIP3   OH224862   3.582   4.076  12.333  0.0448 -0.3032  0.0351
 1124TIP3    H124863   3.628   4.048  12.254  0.8735  0.0248  0.3888
 1124TIP3    H224864   3.497   4.108  12.301 -0.0505 -1.1415 -0.5974
 1125TIP3   OH224865   6.428   5.530  12.057 -0.4462  0.3939  0.0113
 1125TIP3    H124866   6.449   5.586  11.982 -0.1455 -0.1199 -0.2943
 1125TIP3    H224867   6.357   5.473  12.025  2.4765 -2.8135 -1.4108
 1126TIP3   OH224868   0.108   1.946   1.984 -0.1848  0.4378  0.3954
 1126TIP3    H124869   0.064   2.022   1.946  0.4868 -0.5702 -2.5794
 1126TIP3    H224870   0.195   1.976   2.006  0.2447  0.4653 -1.2394
 1127TIP3   OH224871   5.074   3.829   6.643 -0.3150  0.1081  0.4800
 1127TIP3    H124872   5.009   3.894   6.615  0.6937  0.6876 -0.6270
 1127TIP3    H224873   5.025   3.747   6.648 -1.3117  0.6906  0.5184
 1128TIP3   OH224874   6.645   6.634  11.326  0.2947 -0.2952 -0.6477
 1128TIP3    H124875   6.588   6.697  11.282 -0.9958 -1.8193 -1.2687
 1128TIP3    H224876   6.728   6.680  11.337  0.1016  0.7620 -3.0634
 1129TIP3   OH224877   4.417   6.128   4.673 -0.1548  0.1725  0.5829
 1129TIP3    H124878   4.497   6.078   4.684  0.3422  0.3286 -1.7822
 1129TIP3    H224879   4.434   6.184   4.597 -3.0537 -0.9709 -1.0382
 1130TIP3   OH224880   4.566   1.859  13.893  0.4881  0.1243 -0.1903
 1130TIP3    H124881   4.471   1.850  13.879  0.5662  0.2463 -0.8670
 1130TIP3    H224882   4.605   1.804  13.825  0.9068  1.2920 -0.9304
 1131TIP3   OH224883   2.008   1.827   4.580 -0.0490 -0.0720 -0.2288
 1131TIP3    H124884   2.058   1.877   4.516  1.0706  0.7000  1.1842
 1131TIP3    H224885   2.073   1.769   4.622 -0.5315  0.1537  0.8716
 1132TIP3   OH224886   0.405   6.709  14.149 -0.1206  0.4242  0.1544
 1132TIP3    H124887   0.411   6.767  14.225 -0.7347  1.8202 -0.7954
 1132TIP3    H224888   0.461   6.751  14.083  0.0628 -0.5222 -0.3042
 1133TIP3   OH224889   3.909   4.359   3.981  0.3370 -0.2588 -0.0609
 1133TIP3    H124890   3.883   4.423   3.914 -0.0370  0.7982  1.0603
 1133TIP3    H224891   3.936   4.282   3.931 -0.9353  0.1154 -1.3996
 1134TIP3   OH224892   1.801   3.883   4.546 -0.2361 -0.1930  0.1166
 1134TIP3    H124893   1.869   3.923   4.601  0.3822 -1.0378 -0.0029
 1134TIP3    H224894   1.726   3.873   4.605  0.2659 -0.6699  0.7034
 1135TIP3   OH224895   0.977   2.023   3.072  0.2734  0.0928 -0.1894
 1135TIP3    H124896   0.908   2.004   3.008  1.1090 -0.1424 -1.0511
 1135TIP3    H224897   0.978   2.118   3.079  0.3478  0.1353 -0.7298
 1136TIP3   OH224898   0.206   4.536  16.689 -0.6302 -0.3196  0.0050
 1136TIP3    H124899   0.114   4.530  16.663 -1.2130  1.1316  1.5356
 1136TIP3    H224900   0.206   4.600  16.761  1.2449 -1.9945  1.6054
 1137TIP3   OH224901   3.363   5.453  13.312  0.8908 -0.2195  0.7476
 1137TIP3    H124902   3.438   5.497  13.353  0.4589 -0.8706  2.3397
 1137TIP3    H224903   3.391   5.437  13.222  2.4658  0.0167  1.1531
 1138TIP3   OH224904   4.859   0.018  12.678 -0.0029 -0.4224  0.4806
 1138TIP3    H124905   4.769   0.006  12.649 -0.0214 -1.5087  0.9413
 1138TIP3    H224906   4.906   0.043  12.598 -0.4816 -1.0834 -0.0197
 1139TIP3   OH224907   3.359   4.929  16.036 -0.0202 -0.4351  0.0703
 1139TIP3    H124908   3.433   4.974  15.994 -1.1998  2.9499  1.3128
 1139TIP3    H224909   3.373   4.943  16.130 -1.6211 -0.8016  0.3820
 1140TIP3   OH224910   1.967   2.593  14.986 -0.1722 -0.3655  0.2607
 1140TIP3    H124911   2.019   2.592  14.905 -0.2647 -0.7206  0.2027
 1140TIP3    H224912   1.900   2.660  14.970  0.3356  0.1725  0.3800
 1141TIP3   OH224913   2.502   5.296   2.886  0.6234 -0.1211  0.3642
 1141TIP3    H124914   2.497   5.205   2.858 -1.0779 -0.1756  0.7788
 1141TIP3    H224915   2.581   5.299   2.941  0.6456 -1.3530  0.4303
 1142TIP3   OH224916   4.816   4.222  13.650 -0.1150 -0.3160  0.5630
 1142TIP3    H124917   4.820   4.147  13.590  2.6039 -0.1128  0.3339
 1142TIP3    H224918   4.888   4.206  13.712  0.5697  2.0947  0.4691
 1143TIP3   OH224919   3.137   0.000   2.133  0.1482  0.1511 -0.2919
 1143TIP3    H124920   3.099  -0.048   2.060  1.0489 -1.6586  0.3798
 1143TIP3    H224921   3.117  -0.053   2.211  1.3277  0.7571  0.4604
 1144TIP3   OH224922   5.968   0.261   4.060 -0.6751 -0.7193  0.0802
 1144TIP3    H124923   5.950   0.329   3.995 -0.1229  1.7640  2.3179
 1144TIP3    H224924   5.952   0.179   4.014  2.0747  0.6917 -3.9505
 1145TIP3   OH224925   1.042   3.988   6.359  0.0498  0.3897 -0.0079
 1145TIP3    H124926   1.018   4.077   6.385 -1.0912 -0.5968  2.6878
 1145TIP3    H224927   0.980   3.966   6.291 -1.8327  0.5960  1.5516
 1146TIP3   OH224928   4.006   5.155  13.245 -0.4445 -0.3831 -0.1655
 1146TIP3    H124929   4.034   5.183  13.158  0.2316  0.0792  0.1961
 1146TIP3    H224930   3.921   5.198  13.257  0.6588  1.8102  0.4691
 1147TIP3   OH224931   5.441   2.797   3.853  0.4735  0.0404  0.0624
 1147TIP3    H124932   5.405   2.847   3.779 -1.3920 -0.8291  0.3295
 1147TIP3    H224933   5.432   2.855   3.928  2.0797  0.8029 -0.2820
 1148TIP3   OH224934   2.881   3.761  13.015  0.1062 -0.1187  0.1747
 1148TIP3    H124935   2.968   3.742  12.981  1.0159  1.3785  1.5389
 1148TIP3    H224936   2.897   3.811  13.095 -1.9909 -0.8864  1.1513
 1149TIP3   OH224937   4.338   1.975  11.039  1.4746  0.1296 -0.2053
 1149TIP3    H124938   4.379   1.893  11.011  1.0151  0.0043 -0.5219
 1149TIP3    H224939   4.261   1.984  10.983  1.8762  1.1134 -0.6268
 1150TIP3   OH224940   0.757   2.060  13.010  0.5708  0.0758 -0.2967
 1150TIP3    H124941   0.713   1.976  13.001  0.9961 -0.3700  1.4797
 1150TIP3    H224942   0.826   2.058  12.944  1.0533 -1.2800  0.2271
 1151TIP3   OH224943   4.890   1.901  13.523  0.2542  0.2216  0.0140
 1151TIP3    H124944   4.827   1.917  13.453  2.3053  0.0546 -2.0254
 1151TIP3    H224945   4.970   1.876  13.477  1.5143 -0.6525  2.4979
 1152TIP3   OH224946   2.574   2.720   3.329  0.3621  0.1223  0.0342
 1152TIP3    H124947   2.487   2.679   3.337  0.6799 -0.6893 -0.5524
 1152TIP3    H224948   2.556   2.814   3.337 -0.5599 -0.0382  0.0303
 1153TIP3   OH224949   0.009   2.267  13.566 -0.2478 -0.1381  0.1544
 1153TIP3    H124950  -0.060   2.288  13.502 -1.4130  0.1405  1.4707
 1153TIP3    H224951  -0.021   2.186  13.608 -0.5539  0.7710  1.7710
 1154TIP3   OH224952   3.608   0.332   2.631  0.0190 -0.5848 -0.1891
 1154TIP3    H124953   3.577   0.246   2.660 -0.4552 -0.6286 -0.8261
 1154TIP3    H224954   3.559   0.395   2.684 -1.5463 -0.6343 -1.5221
 1155TIP3   OH224955   6.305   4.291   3.789  0.4118 -0.2741  0.1228
 1155TIP3    H124956   6.400   4.279   3.794  0.3445 -0.5059  0.9858
 1155TIP3    H224957   6.283   4.341   3.867  0.2048  2.5550 -1.6035
 1156TIP3   OH224958   4.182   3.077   5.119  0.0501 -0.2713  0.1462
 1156TIP3    H124959   4.267   3.035   5.129 -0.2796 -0.5583  2.3060
 1156TIP3    H224960   4.179   3.105   5.027  1.4896 -2.3206 -0.5929
 1157TIP3   OH224961   3.607   5.347  10.664 -0.3565  0.4742  0.0266
 1157TIP3    H124962   3.619   5.260  10.702  1.1970 -0.5981 -2.6360
 1157TIP3    H224963   3.667   5.403  10.714  0.9316 -0.6851 -0.1503
 1158TIP3   OH224964   4.162   4.640   4.602 -0.0127 -0.1931  0.4669
 1158TIP3    H124965   4.219   4.704   4.560  1.2050 -1.3795  0.2181
 1158TIP3    H224966   4.182   4.648   4.695  0.3156 -0.3540  0.4141
 1159TIP3   OH224967   4.627   5.094  14.381 -0.0330 -0.4189  0.6189
 1159TIP3    H124968   4.586   5.032  14.320 -2.1855  1.0442  0.4909
 1159TIP3    H224969   4.689   5.144  14.327 -0.1296 -0.7586  0.1849
 1160TIP3   OH224970   2.600   5.979  14.032 -0.7058 -0.5524 -0.1764
 1160TIP3    H124971   2.533   5.996  14.098 -0.8602 -0.5358 -0.3377
 1160TIP3    H224972   2.655   6.057  14.034  1.1037 -1.7444  2.0745
 1161TIP3   OH224973   3.088   2.423  14.919 -0.1127 -0.3937 -0.6463
 1161TIP3    H124974   3.132   2.401  14.837  0.1449 -1.0400 -0.3435
 1161TIP3    H224975   3.153   2.474  14.968 -0.8012  1.3769 -1.4580
 1162TIP3   OH224976   1.359   4.058  12.391  0.6532 -0.1032  0.0625
 1162TIP3    H124977   1.455   4.055  12.382  0.8606 -0.1816  1.9433
 1162TIP3    H224978   1.329   3.974  12.357  0.9860  0.7983 -2.7260
 1163TIP3   OH224979   3.863   4.531  15.161  0.2465  0.8209  0.1399
 1163TIP3    H124980   3.775   4.546  15.128 -0.0676 -2.6896 -1.0270
 1163TIP3    H224981   3.914   4.605  15.127 -1.8728  2.1242 -0.4508
 1164TIP3   OH224982   5.057   3.880  15.597  0.2222 -0.3640  0.2399
 1164TIP3    H124983   4.966   3.902  15.614  0.0964  0.3343 -1.1696
 1164TIP3    H224984   5.062   3.785  15.611 -1.4154 -0.9350 -2.2784
 1165TIP3   OH224985   4.263   4.338  15.227  0.5983  0.2971 -0.1170
 1165TIP3    H124986   4.266   4.392  15.148 -1.4952 -0.7199 -0.9770
 1165TIP3    H224987   4.291   4.397  15.297  0.8402  1.7387 -1.3718
 1166TIP3   OH224988   2.011   0.658   1.020 -0.3849  0.5911 -0.0836
 1166TIP3    H124989   2.013   0.714   0.943  1.5786 -0.3193 -0.7690
 1166TIP3    H224990   1.967   0.578   0.991 -0.2441  0.5083 -0.0706
 1167TIP3   OH224991   3.898   2.830  15.701  0.6973 -0.6332  0.3352
 1167TIP3    H124992   3.990   2.815  15.682  0.7027 -0.2479  0.0413
 1167TIP3    H224993   3.890   2.925  15.707  0.2366 -0.6376 -0.0826
 1168TIP3   OH224994   3.532   5.043  12.231  0.2239  0.1388 -0.6084
 1168TIP3    H124995   3.520   5.015  12.322  1.5674 -0.3523 -0.5580
 1168TIP3    H224996   3.445   5.036  12.192 -0.4771  0.8614  0.7670
 1169TIP3   OH224997   0.619   4.912  13.531  0.4751  0.3915 -0.5006
 1169TIP3    H124998   0.628   4.978  13.461  1.3853  1.9843  1.0432
 1169TIP3    H224999   0.676   4.944  13.601  1.3285 -2.3173  0.1512
 1170TIP3   OH225000   2.269   2.473  10.812  0.2269 -0.0567  0.2831
 1170TIP3    H125001   2.287   2.402  10.874 -0.3834 -2.2895 -1.9052
 1170TIP3    H225002   2.340   2.467  10.748 -0.3205  0.7398 -0.4115
 1171TIP3   OH225003   1.097   3.639  14.695 -0.0689  0.2441  0.1698
 1171TIP3    H125004   1.097   3.717  14.640  0.1161 -1.7874 -2.9928
 1171TIP3    H225005   1.186   3.635  14.730  0.5714  0.4279 -1.3365
 1172TIP3   OH225006   2.572   2.965  15.727  0.1486 -0.4834 -0.4187
 1172TIP3    H125007   2.518   2.890  15.702  0.1742  0.0482 -2.1753
 1172TIP3    H225008   2.615   2.992  15.646 -1.4759  2.7205 -0.3598
 1173TIP3   OH225009   1.399   5.512   1.545 -0.2887  0.3913 -0.0157
 1173TIP3    H125010   1.419   5.420   1.527  2.3077  0.6932  0.7925
 1173TIP3    H225011   1.332   5.510   1.613 -0.4521 -0.9010 -0.1940
 1174TIP3   OH225012   6.246   3.575  15.230  0.8395 -0.5516  0.2182
 1174TIP3    H125013   6.199   3.658  15.238  3.9957  1.4281 -0.1099
 1174TIP3    H225014   6.194   3.524  15.168 -1.9749  0.4904  1.5134
 1175TIP3   OH225015   1.986   1.589  10.729 -0.2795 -0.3059 -0.3035
 1175TIP3    H125016   1.907   1.636  10.757  0.4995  0.1371  1.2292
 1175TIP3    H225017   1.956   1.500  10.712 -1.0943 -0.1728  0.3542
 1176TIP3   OH225018   3.721   6.478   2.822 -0.2642 -0.0441 -0.2398
 1176TIP3    H125019   3.634   6.453   2.852 -0.5057  0.5743 -0.4071
 1176TIP3    H225020   3.705   6.528   2.742  0.2422  0.1070 -0.2510
 1177TIP3   OH225021   4.974   4.749   1.091 -0.3253 -0.2658 -0.4699
 1177TIP3    H125022   4.965   4.690   1.166 -1.0716 -1.0112 -1.1307
 1177TIP3    H225023   5.068   4.757   1.077 -0.1910 -0.3202  0.3861
 1178TIP3   OH225024   5.922   3.737  15.261 -0.2032 -0.0767 -0.2038
 1178TIP3    H125025   5.918   3.642  15.259  0.1070 -0.1059  0.4876
 1178TIP3    H225026   5.951   3.762  15.173  1.6284 -0.7153  0.1866
 1179TIP3   OH225027   3.947   0.490   2.358 -0.2352  0.4656  0.4734
 1179TIP3    H125028   4.000   0.567   2.377 -2.6383  2.1376  0.9450
 1179TIP3    H225029   3.998   0.416   2.391  1.0162  2.1261  2.4640
 1180TIP3   OH225030   6.698   1.270  16.828 -0.2121 -0.0973 -0.2376
 1180TIP3    H125031   6.672   1.259  16.919 -0.8668  1.5941 -0.1924
 1180TIP3    H225032   6.616   1.285  16.781  0.2247  0.1375 -0.9336
 1181TIP3   OH225033   1.646   2.796   5.881  0.1534  0.5180  0.3507
 1181TIP3    H125034   1.705   2.820   5.810 -0.2412  0.1799 -0.0995
 1181TIP3    H225035   1.577   2.745   5.838 -0.9254  1.6154  0.7250
 1182TIP3   OH225036   2.756   6.287  12.494 -0.2218  0.1994  0.2459
 1182TIP3    H125037   2.747   6.381  12.480  0.3575  0.5683  2.0065
 1182TIP3    H225038   2.684   6.264  12.553 -0.4730 -0.5105 -0.3153
 1183TIP3   OH225039   3.607   1.296  11.339  0.1757  0.1518  0.6128
 1183TIP3    H125040   3.587   1.382  11.375  0.4594  0.5256 -0.1142
 1183TIP3    H225041   3.603   1.307  11.244  1.1141 -0.4152  0.4884
 1184TIP3   OH225042   0.926   2.544  16.935  0.5105 -0.0159 -0.1522
 1184TIP3    H125043   0.865   2.477  16.904  0.9855 -1.1630  1.2686
 1184TIP3    H225044   1.007   2.526  16.888  0.2468  0.4437 -0.7913
 1185TIP3   OH225045   0.063   5.877  14.823  0.1207  0.0796  0.8317
 1185TIP3    H125046   0.112   5.879  14.740 -0.1245  2.5721  0.6711
 1185TIP3    H225047   0.112   5.816  14.878  1.7453  0.2817 -0.2959
 1186TIP3   OH225048   6.126   6.093  12.002 -0.8251  0.5350  0.3207
 1186TIP3    H125049   6.216   6.063  11.993 -1.6204 -2.1992  0.5104
 1186TIP3    H225050   6.114   6.157  11.931  0.4901 -1.1140 -1.5006
 1187TIP3   OH225051   0.551   1.267  12.732 -0.6721 -0.2710 -0.0724
 1187TIP3    H125052   0.546   1.172  12.732 -0.8524 -0.2786 -1.2919
 1187TIP3    H225053   0.496   1.295  12.659 -0.5542  0.7683  0.2072
 1188TIP3   OH225054   6.802   6.366   3.971 -0.3273  0.2469 -0.1725
 1188TIP3    H125055   6.824   6.400   4.057 -1.3486 -2.5265  1.3202
 1188TIP3    H225056   6.753   6.285   3.989 -0.9581 -0.2186 -3.3552
 1189TIP3   OH225057   6.733   1.402   0.767  0.4906 -0.0183  0.2041
 1189TIP3    H125058   6.758   1.437   0.853 -0.4567  0.1523  0.4230
 1189TIP3    H225059   6.795   1.441   0.706  0.7209  0.4251  0.7141
 1190TIP3   OH225060   5.541   3.572   5.454  0.0932  0.6898 -0.7040
 1190TIP3    H125061   5.479   3.609   5.517  1.1926 -0.7339  1.3616
 1190TIP3    H225062   5.619   3.552   5.507  0.8236 -1.2402 -2.3705
 1191TIP3   OH225063   3.136   1.462   1.107 -0.2670  0.2028 -0.2597
 1191TIP3    H125064   3.085   1.496   1.034 -0.8569  2.1730  0.9946
 1191TIP3    H225065   3.173   1.539   1.149  1.8435 -1.0348  0.2854
 1192TIP3   OH225066   3.689   1.669   2.454 -0.0081 -0.1665  0.5644
 1192TIP3    H125067   3.766   1.690   2.507  0.5382  1.2420 -0.6872
 1192TIP3    H225068   3.724   1.656   2.366 -0.8809 -2.4247  0.4954
 1193TIP3   OH225069   6.373   3.472   1.644  0.5232 -0.0408  0.5719
 1193TIP3    H125070   6.357   3.566   1.650 -1.2464 -0.3870  3.3453
 1193TIP3    H225071   6.329   3.445   1.564 -1.7002  1.1156  1.3084
 1194TIP3   OH225072   1.943   3.678   1.081  0.7832 -0.2537 -0.7777
 1194TIP3    H125073   1.857   3.681   1.040  0.5790  0.3993 -0.3268
 1194TIP3    H225074   1.928   3.635   1.165  1.0306 -0.7576 -0.9852
 1195TIP3   OH225075   6.244   1.123   1.775 -0.1852  0.3908 -0.5087
 1195TIP3    H125076   6.210   1.202   1.731  0.7112  1.1084  0.0609
 1195TIP3    H225077   6.219   1.135   1.867 -2.7750 -1.4847 -0.8442
 1196TIP3   OH225078   4.565   1.224  14.023  0.1759 -0.9117 -0.1567
 1196TIP3    H125079   4.533   1.271  13.946 -0.3484 -2.3470 -0.8397
 1196TIP3    H225080   4.637   1.278  14.056  0.9261 -0.6519 -2.1165
 1197TIP3   OH225081   4.263   4.569  13.165  0.5463  0.4709 -0.0422
 1197TIP3    H125082   4.340   4.562  13.221  0.5865  0.5489 -0.0867
 1197TIP3    H225083   4.227   4.655  13.184  0.1316  0.2019  0.4085
 1198TIP3   OH225084   3.986   3.503  11.633 -0.1482  0.1060  0.0847
 1198TIP3    H125085   3.904   3.463  11.605  0.4161 -0.2088 -1.1816
 1198TIP3    H225086   3.970   3.529  11.723 -1.4088 -0.5771  0.0828
 1199TIP3   OH225087   5.635   1.081  11.211  0.1888 -0.2670  0.0390
 1199TIP3    H125088   5.664   1.048  11.296  2.7939 -1.0672 -1.0736
 1199TIP3    H225089   5.644   1.006  11.152 -0.6376  0.5352 -1.1414
 1200TIP3   OH225090   5.128   2.304   4.744 -0.4090  0.1174 -0.2859
 1200TIP3    H125091   5.066   2.318   4.673  1.2390 -1.7948 -2.2360
 1200TIP3    H225092   5.152   2.392   4.773  0.0360  1.0642 -3.2123
 1201TIP3   OH225093   3.834   1.748   0.917  0.3546  0.7423 -0.2800
 1201TIP3    H125094   3.887   1.689   0.863 -0.2742  2.3315 -2.8308
 1201TIP3    H225095   3.863   1.836   0.892 -1.8904  1.6038 -0.1163
 1202TIP3   OH225096   6.026   0.133  14.567 -0.0717  1.0785  0.3055
 1202TIP3    H125097   6.105   0.105  14.521  0.1808 -0.1631  1.4154
 1202TIP3    H225098   6.028   0.228  14.566 -0.2501  1.1206 -2.5025
 1203TIP3   OH225099   1.364   0.535   3.245  0.0139 -0.5870 -0.4045
 1203TIP3    H125100   1.342   0.600   3.179 -0.7326 -0.5201 -0.0976
 1203TIP3    H225101   1.350   0.451   3.202 -0.2291 -0.5421 -0.4153
 1204TIP3   OH225102   6.367   5.461  13.083  0.2846 -0.0418  0.5832
 1204TIP3    H125103   6.349   5.496  13.171 -0.8867 -1.0608  0.7736
 1204TIP3    H225104   6.455   5.424  13.090  0.7522  1.0950  0.9249
 1205TIP3   OH225105   0.724   6.181   4.617  0.0928  0.5555 -0.6760
 1205TIP3    H125106   0.726   6.086   4.631 -0.2472  0.8380  1.7349
 1205TIP3    H225107   0.805   6.200   4.570  1.6579 -0.6176  1.3677
 1206TIP3   OH225108   0.773   5.658   5.788  0.0371 -0.5305  0.4856
 1206TIP3    H125109   0.695   5.702   5.822 -0.4819 -0.0823 -1.1683
 1206TIP3    H225110   0.747   5.628   5.700  1.3253 -1.5264  0.4160
 1207TIP3   OH225111   0.306   0.486  11.340  0.3026  0.1706 -0.2392
 1207TIP3    H125112   0.301   0.573  11.302  0.1403  0.0674 -0.4571
 1207TIP3    H225113   0.254   0.491  11.420 -0.5701 -0.0042 -0.7869
 1208TIP3   OH225114   0.232   4.521   0.540 -0.1997  0.3022  0.2410
 1208TIP3    H125115   0.222   4.547   0.632 -1.0660 -0.5737  0.4107
 1208TIP3    H225116   0.143   4.503   0.511  0.0105  1.1052 -0.9506
 1209TIP3   OH225117   2.859   6.682   6.362  0.1921  0.7763  0.0832
 1209TIP3    H125118   2.866   6.770   6.400  1.9597  0.9317 -0.4952
 1209TIP3    H225119   2.935   6.675   6.305  1.2310 -1.8581  1.6111
 1210TIP3   OH225120   3.525   0.580  14.905 -0.1564 -0.4240 -0.3858
 1210TIP3    H125121   3.479   0.498  14.924  1.2185 -0.6940  2.1556
 1210TIP3    H225122   3.605   0.575  14.957  1.9376  0.8114 -3.2626
 1211TIP3   OH225123   1.894   3.548   4.286  0.0437 -0.0504 -0.1300
 1211TIP3    H125124   1.965   3.570   4.345 -1.6879 -0.7235  2.3709
 1211TIP3    H225125   1.836   3.625   4.289 -0.4214 -0.3879 -0.3800
 1212TIP3   OH225126   6.097   6.388  15.293 -0.1924 -0.2957  0.7078
 1212TIP3    H125127   6.019   6.334  15.302 -0.5232  0.3921  2.1953
 1212TIP3    H225128   6.095   6.418  15.202 -0.6004 -1.8260  0.1694
 1213TIP3   OH225129   1.984   0.915  13.481  1.0249  0.0713 -0.3509
 1213TIP3    H125130   2.066   0.946  13.442  1.1406  0.2799  0.0493
 1213TIP3    H225131   2.011   0.871  13.561  0.6070  2.2668  1.0991
 1214TIP3   OH225132   3.284   6.771   4.259 -0.0748 -0.7917  0.4249
 1214TIP3    H125133   3.335   6.708   4.310  1.0823 -0.8076 -0.6871
 1214TIP3    H225134   3.248   6.832   4.324  0.4280 -1.4524  1.3437
 1215TIP3   OH225135   2.901   3.714  13.771 -0.4078 -0.0294 -0.1451
 1215TIP3    H125136   2.891   3.808  13.779  0.5577  0.1387 -0.7325
 1215TIP3    H225137   2.980   3.702  13.718  0.3232 -1.1795  1.1434
 1216TIP3   OH225138   4.879   2.148   3.467  0.0482 -0.2791  0.3835
 1216TIP3    H125139   4.930   2.069   3.454 -0.5732 -0.4050 -1.6087
 1216TIP3    H225140   4.934   2.203   3.523  1.1550 -1.4778  0.5267
 1217TIP3   OH225141   4.021   1.525   5.084  0.8626  0.2175  0.5538
 1217TIP3    H125142   3.960   1.594   5.058 -0.1685  1.0166  4.3913
 1217TIP3    H225143   3.992   1.448   5.036 -0.1424  1.6554 -1.2676
 1218TIP3   OH225144   4.915   3.929   0.542 -0.7940  0.0215  0.1205
 1218TIP3    H125145   4.954   3.988   0.478 -0.4488 -1.4374 -1.0822
 1218TIP3    H225146   4.859   3.871   0.491 -1.4032 -0.4783  1.2991
 1219TIP3   OH225147   2.875   2.889  13.339 -0.3550 -0.4651  0.6637
 1219TIP3    H125148   2.923   2.832  13.279  1.5354  2.1701 -0.5446
 1219TIP3    H225149   2.784   2.861  13.333  0.5404 -3.6998  0.6882
 1220TIP3   OH225150   5.051   0.923  14.026  0.1064  0.0438  0.2720
 1220TIP3    H125151   5.049   0.880  13.941  0.7249  1.0989 -0.2970
 1220TIP3    H225152   4.964   0.963  14.035  0.4666  1.0275 -0.4644
 1221TIP3   OH225153   6.741   1.676  16.924  0.3742  0.1163  0.8531
 1221TIP3    H125154   6.688   1.724  16.988 -0.0826  0.7808 -0.0081
 1221TIP3    H225155   6.716   1.714  16.839  1.5923 -0.1641  0.3580
 1222TIP3   OH225156   6.142   4.993  16.499 -0.0802 -0.0681  1.1416
 1222TIP3    H125157   6.214   5.036  16.454 -0.8914 -0.6851 -0.8959
 1222TIP3    H225158   6.159   4.900  16.488 -1.7541 -0.2507 -0.5316
 1223TIP3   OH225159   3.537   0.222   4.010  1.3087 -0.3656  0.2745
 1223TIP3    H125160   3.535   0.272   4.092 -0.9763  0.6943 -0.3486
 1223TIP3    H225161   3.502   0.136   4.033  1.8356 -0.4868  0.6379
 1224TIP3   OH225162   2.477   2.903   1.669  0.3624 -0.4681  0.2806
 1224TIP3    H125163   2.500   2.818   1.631  1.4269 -0.3946  0.7192
 1224TIP3    H225164   2.516   2.967   1.609 -1.4804 -0.2093 -0.7386
 1225TIP3   OH225165   3.413   1.630  12.649 -0.0443 -0.4285 -0.6545
 1225TIP3    H125166   3.362   1.653  12.727 -1.0274  2.2133 -1.9648
 1225TIP3    H225167   3.361   1.563  12.605 -0.8402 -0.0131 -0.3734
 1226TIP3   OH225168   0.943   3.409  16.522  0.5295 -0.2415  0.1103
 1226TIP3    H125169   0.993   3.412  16.440  0.7406 -0.7687  0.2136
 1226TIP3    H225170   1.002   3.445  16.588  0.3738  0.1465  0.0371
 1227TIP3   OH225171   0.116   1.187   1.687  0.4616  0.6723  0.4963
 1227TIP3    H125172   0.211   1.198   1.688  0.3123  2.3759 -0.4037
 1227TIP3    H225173   0.083   1.253   1.748 -0.1572  0.1038  0.7949
 1228TIP3   OH225174   0.031   0.436  11.203 -0.2072  0.0012 -0.2641
 1228TIP3    H125175   0.038   0.532  11.204 -0.6537  0.0534  1.2869
 1228TIP3    H225176   0.108   0.407  11.252  0.1166 -0.4703 -1.0351
 1229TIP3   OH225177   3.196   0.233   2.876  0.3552 -0.2885 -0.0901
 1229TIP3    H125178   3.122   0.197   2.925  1.5255 -0.8537  1.3675
 1229TIP3    H225179   3.214   0.167   2.809  0.3644 -0.8173  0.4192
 1230TIP3   OH225180   1.690   1.824  10.732  0.0243  0.3951  0.1191
 1230TIP3    H125181   1.674   1.748  10.787  0.9526  0.5202  0.5816
 1230TIP3    H225182   1.603   1.856  10.709 -0.3731 -0.3437  0.5577
 1231TIP3   OH225183   2.342   6.688   0.811  0.3332 -0.1435  0.0323
 1231TIP3    H125184   2.326   6.741   0.889  0.9385  0.2973 -0.1354
 1231TIP3    H225185   2.364   6.601   0.845 -0.1587 -0.1617  0.3233
 1232TIP3   OH225186   1.090   5.341   3.396 -0.4083 -0.0009  0.2187
 1232TIP3    H125187   1.048   5.336   3.310 -2.5923  1.3048  1.1064
 1232TIP3    H225188   1.075   5.431   3.425  0.9962 -0.1746  1.6249
 1233TIP3   OH225189   5.902   6.522  11.593  0.0195  0.0601  0.0796
 1233TIP3    H125190   5.875   6.579  11.521 -1.6658  0.7341  1.1867
 1233TIP3    H225191   5.893   6.433  11.557  0.4412  0.4166 -0.9349
 1234TIP3   OH225192   0.242   0.197   3.243  0.1565 -0.3265  0.5832
 1234TIP3    H125193   0.288   0.128   3.290 -0.0772  0.5398  2.1661
 1234TIP3    H225194   0.304   0.270   3.241  1.3284 -1.1997 -3.1259
 1235TIP3   OH225195   2.545   1.987  15.940 -0.3549 -0.3233 -0.2043
 1235TIP3    H125196   2.627   1.967  15.895 -0.1005 -0.6620  0.3831
 1235TIP3    H225197   2.545   2.082  15.951 -0.2637 -0.2751 -0.6182
 1236TIP3   OH225198   2.365   0.620  14.039  0.0641  0.1876  0.3211
 1236TIP3    H125199   2.449   0.598  13.997 -0.1546  0.4256 -0.2550
 1236TIP3    H225200   2.302   0.621  13.967 -0.1516  1.5638  0.4926
 1237TIP3   OH225201   4.087   6.183   2.117 -0.3868 -0.2759 -0.5323
 1237TIP3    H125202   4.042   6.210   2.037 -1.2515 -2.3622 -0.8253
 1237TIP3    H225203   4.160   6.130   2.087  1.0483  1.2932  0.0256
 1238TIP3   OH225204   2.402   1.666  11.753  0.0680 -0.5865 -0.2167
 1238TIP3    H125205   2.326   1.717  11.783 -1.3214 -2.0056 -1.1693
 1238TIP3    H225206   2.469   1.732  11.735 -0.5558  0.6448  1.6049
 1239TIP3   OH225207   3.985   3.075   6.242  0.3879  0.2412  0.0843
 1239TIP3    H125208   4.029   3.139   6.297 -1.0355  0.2328  1.3010
 1239TIP3    H225209   3.895   3.071   6.276 -0.4242 -0.1279 -1.9480
 1240TIP3   OH225210   4.924   4.689  12.270  0.1223  0.0205  0.0212
 1240TIP3    H125211   4.849   4.654  12.319 -0.4062  0.3093 -0.5614
 1240TIP3    H225212   4.971   4.743  12.333  0.3466 -0.8786  0.6427
 1241TIP3   OH225213   0.786   5.458   3.490  0.0107  0.3362  0.2532
 1241TIP3    H125214   0.701   5.497   3.509  0.0311  0.6735 -0.3274
 1241TIP3    H225215   0.837   5.470   3.571 -1.4898 -2.7178  1.8104
 1242TIP3   OH225216   5.850   1.461   3.968 -0.4141 -0.3042  0.2477
 1242TIP3    H125217   5.865   1.521   3.895  2.5683 -1.0318  0.1312
 1242TIP3    H225218   5.848   1.518   4.045 -2.2841  0.3328 -0.2196
 1243TIP3   OH225219   5.824   0.887  11.661  0.0689  0.0119  0.4289
 1243TIP3    H125220   5.780   0.820  11.714  0.0662 -0.8779 -0.6679
 1243TIP3    H225221   5.915   0.885  11.690  0.1292 -0.6715  0.2108
 1244TIP3   OH225222   5.099   6.409  17.138  0.1151 -0.2893 -0.4174
 1244TIP3    H125223   5.100   6.503  17.122  0.4555 -0.2061  0.0453
 1244TIP3    H225224   5.047   6.399  17.218  0.9726 -0.3810  0.1429
 1245TIP3   OH225225   0.682   2.644   1.046  0.8211 -0.6221 -0.6261
 1245TIP3    H125226   0.703   2.617   1.135 -0.1374 -0.0327 -0.2042
 1245TIP3    H225227   0.685   2.740   1.049 -0.4088 -0.5594 -0.9087
 1246TIP3   OH225228   3.436   6.114  17.098  0.6812 -0.3230  0.1839
 1246TIP3    H125229   3.370   6.184  17.099  0.3455 -0.6247  1.3432
 1246TIP3    H225230   3.495   6.137  17.170  1.0910 -0.7629 -0.0054
 1247TIP3   OH225231   0.990   5.611  14.299 -0.5425  0.1358 -0.0063
 1247TIP3    H125232   0.972   5.600  14.206  2.5159  0.1620 -0.6973
 1247TIP3    H225233   1.001   5.522  14.332  1.7517  0.1503 -0.5287
 1248TIP3   OH225234   5.526   0.706   6.669 -0.2542  0.4738 -0.0955
 1248TIP3    H125235   5.477   0.668   6.741 -0.5655 -0.4564 -0.7861
 1248TIP3    H225236   5.489   0.666   6.591 -1.7605  3.3996 -1.0435
 1249TIP3   OH225237   6.110   5.656  10.460 -0.0027 -0.2531  0.1421
 1249TIP3    H125238   6.151   5.580  10.502  2.0799  0.6487 -0.0858
 1249TIP3    H225239   6.110   5.635  10.367  2.0653  0.5982 -0.1020
 1250TIP3   OH225240   4.783   6.351   6.141  0.5240 -0.3702 -0.4231
 1250TIP3    H125241   4.767   6.260   6.116 -2.0580 -0.4612  1.1560
 1250TIP3    H225242   4.710   6.373   6.199  2.6237  1.8213  1.6114
 1251TIP3   OH225243   2.306   1.582  15.054  0.4755 -0.1875  0.3884
 1251TIP3    H125244   2.375   1.645  15.031  1.9859 -0.8521  2.7535
 1251TIP3    H225245   2.278   1.609  15.141 -1.3183 -0.7681  0.0225
 1252TIP3   OH225246   2.741   3.224  14.411  0.3343  0.2169 -0.6840
 1252TIP3    H125247   2.710   3.311  14.436  1.2145  0.3772 -0.0884
 1252TIP3    H225248   2.664   3.178  14.379 -0.8297  0.1414  1.9757
 1253TIP3   OH225249   3.211   5.795  14.183  0.0804 -0.3937  0.1547
 1253TIP3    H125250   3.187   5.784  14.091 -0.8467 -1.5981  0.5143
 1253TIP3    H225251   3.211   5.706  14.219 -0.1343  0.1017  1.4485
 1254TIP3   OH225252   0.983   3.302  11.492  0.6122 -0.1973  0.4540
 1254TIP3    H125253   0.925   3.227  11.477 -2.2989  1.5204  2.2609
 1254TIP3    H225254   1.035   3.276  11.569  0.3228 -0.7336  0.4768
 1255TIP3   OH225255   1.989   0.223   2.003 -0.4751  0.0747 -0.1978
 1255TIP3    H125256   1.947   0.150   1.957 -0.1062  0.5709 -1.3721
 1255TIP3    H225257   1.988   0.294   1.939  0.0995  0.7799  0.5695
 1256TIP3   OH225258   0.986   2.296   3.576 -0.3233 -0.7616 -0.3814
 1256TIP3    H125259   1.040   2.218   3.565 -0.8060 -1.0292 -0.9155
 1256TIP3    H225260   0.904   2.264   3.612 -0.7612 -0.5961 -1.2051
 1257TIP3   OH225261   1.774   4.104  11.734  0.0976 -0.6310 -0.1207
 1257TIP3    H125262   1.704   4.144  11.682  0.3473 -2.3393 -1.9027
 1257TIP3    H225263   1.730   4.035  11.784  0.2440 -0.5859  0.0715
 1258TIP3   OH225264   2.466   2.832  12.203  0.1328 -0.0083 -0.1769
 1258TIP3    H125265   2.412   2.858  12.277 -1.8846  0.8968 -1.8587
 1258TIP3    H225266   2.543   2.888  12.209  0.9998 -1.3232  2.2742
 1259TIP3   OH225267   1.893   5.100  11.243  0.4496  0.0151 -0.8501
 1259TIP3    H125268   1.888   5.010  11.273 -0.7738  0.0174 -1.0352
 1259TIP3    H225269   1.830   5.147  11.297  0.9931  0.7461 -0.8321
 1260TIP3   OH225270   2.702   3.462   2.755  0.0455  0.2665  0.5549
 1260TIP3    H125271   2.640   3.410   2.704  0.9369 -0.4905  0.2225
 1260TIP3    H225272   2.649   3.500   2.825 -1.5277  2.5082 -1.6639
 1261TIP3   OH225273   1.064   0.657  13.295  0.3625  0.2407 -0.0498
 1261TIP3    H125274   1.142   0.667  13.350 -0.6549 -1.1336  1.7732
 1261TIP3    H225275   1.083   0.579  13.242  0.6481  0.5348 -0.3831
 1262TIP3   OH225276   2.660   2.487  12.708 -0.2192  0.3034 -0.0273
 1262TIP3    H125277   2.599   2.523  12.644 -0.3318  1.9301  0.9433
 1262TIP3    H225278   2.685   2.562  12.763  1.4750 -0.6274  0.5499
 1263TIP3   OH225279   6.775   5.855  10.881  0.5400  0.4560 -0.7201
 1263TIP3    H125280   6.692   5.879  10.840  0.2971 -2.4027 -2.2084
 1263TIP3    H225281   6.808   5.782  10.828  2.8867 -0.0113  1.1695
 1264TIP3   OH225282   1.439   0.295  13.975  0.1471 -0.3644 -0.1937
 1264TIP3    H125283   1.517   0.336  14.014 -0.6233  0.6129  0.3643
 1264TIP3    H225284   1.472   0.253  13.895  1.1255  0.6510 -0.3553
 1265TIP3   OH225285   4.941   4.424  10.997 -0.1941  0.0012 -0.1428
 1265TIP3    H125286   4.870   4.473  10.956 -0.2960  0.3307  0.4162
 1265TIP3    H225287   5.002   4.405  10.926 -1.1164 -0.7872 -0.7415
 1266TIP3   OH225288   1.204   5.296   2.341  0.3338  0.5734  0.5459
 1266TIP3    H125289   1.195   5.204   2.316  1.2555  0.6418 -0.0992
 1266TIP3    H225290   1.145   5.343   2.283 -2.4026  0.1723  2.7946
 1267TIP3   OH225291   3.213   4.173  16.743 -0.3550  0.3114  0.3842
 1267TIP3    H125292   3.235   4.261  16.776  0.5425  0.8034 -1.3486
 1267TIP3    H225293   3.290   4.120  16.763 -0.5322  0.1546  0.6466
 1268TIP3   OH225294   5.369   5.322  13.499 -0.0496 -0.0119  0.1251
 1268TIP3    H125295   5.464   5.315  13.489  0.3205 -0.2146  2.9450
 1268TIP3    H225296   5.335   5.308  13.411  2.5228  0.3575 -1.0391
 1269TIP3   OH225297   2.258   2.971  14.251  0.1240 -0.2500  0.5929
 1269TIP3    H125298   2.278   3.065  14.246 -0.3766 -0.1912 -0.4717
 1269TIP3    H225299   2.220   2.950  14.166  1.1554 -1.6433  0.4377
 1270TIP3   OH225300   5.208   2.313  14.900 -0.4232 -0.2651 -0.0359
 1270TIP3    H125301   5.235   2.221  14.898  0.3065 -0.1068  1.3418
 1270TIP3    H225302   5.284   2.361  14.867 -0.7223 -0.1339 -0.5421
 1271TIP3   OH225303   3.522   0.934   0.227 -0.0623  0.5021  0.5515
 1271TIP3    H125304   3.515   0.838   0.226  0.2178  0.4425 -1.8339
 1271TIP3    H225305   3.610   0.952   0.259 -0.6261  0.0693  2.4808
 1272TIP3   OH225306   5.128   0.628  17.071 -0.0774  0.1793  0.4492
 1272TIP3    H125307   5.217   0.604  17.048 -0.8048 -1.0100 -1.3416
 1272TIP3    H225308   5.137   0.689  17.144  2.0426 -3.1516  3.2862
 1273TIP3   OH225309   5.286   0.765   4.505 -0.2126  0.5500 -0.5725
 1273TIP3    H125310   5.309   0.841   4.557 -1.4895  0.1332  0.6587
 1273TIP3    H225311   5.195   0.746   4.529 -0.3807 -0.5123 -1.9135
 1274TIP3   OH225312   3.089   1.617  13.753  0.4946  0.0289  0.6428
 1274TIP3    H125313   3.121   1.539  13.798 -0.7596 -0.4110  0.8176
 1274TIP3    H225314   2.993   1.611  13.759  0.3267  0.7774 -0.6907
 1275TIP3   OH225315   6.324   3.632  11.680  0.4624 -0.3711  0.2372
 1275TIP3    H125316   6.378   3.560  11.714 -0.8385 -0.3444  2.5857
 1275TIP3    H225317   6.384   3.706  11.673  1.2296 -0.9491  0.5642
 1276TIP3   OH225318   4.292   5.725   4.939  0.1071 -0.0725 -0.0227
 1276TIP3    H125319   4.265   5.642   4.978 -0.6405  0.2563  0.1641
 1276TIP3    H225320   4.211   5.776   4.931  0.7567  1.2754  1.3695
 1277TIP3   OH225321   1.450   4.438   5.916 -0.0508 -0.1687  0.3652
 1277TIP3    H125322   1.465   4.404   5.828 -0.4233  0.0561  0.2128
 1277TIP3    H225323   1.455   4.533   5.906 -1.4008 -0.0810  0.3293
 1278TIP3   OH225324   0.285   3.852   1.544 -0.3504  0.2658  0.0486
 1278TIP3    H125325   0.220   3.894   1.601  1.6405  0.3182  2.4495
 1278TIP3    H225326   0.290   3.908   1.467 -2.6471  0.5984  0.0758
 1279TIP3   OH225327   0.675   1.826   6.468  0.0703 -0.4236  0.0958
 1279TIP3    H125328   0.674   1.853   6.376 -0.8194  4.2412  1.1941
 1279TIP3    H225329   0.584   1.836   6.497  0.7707  1.0096  2.0410
 1280TIP3   OH225330   5.451   0.856   2.962 -0.4272  0.0373 -0.2832
 1280TIP3    H125331   5.526   0.911   2.985 -0.5377  0.7162 -1.5076
 1280TIP3    H225332   5.442   0.796   3.037  0.6974  0.6092  0.3348
 1281TIP3   OH225333   2.603   3.748  11.900  0.6777 -0.0743 -0.4970
 1281TIP3    H125334   2.645   3.705  11.826  0.7500  0.1819 -0.6040
 1281TIP3    H225335   2.582   3.836  11.868 -1.7738 -0.8119 -1.1477
 1282TIP3   OH225336   3.695   3.806  14.959  0.1555  0.6913 -0.2571
 1282TIP3    H125337   3.717   3.811  14.866  0.0439  2.2617 -0.2178
 1282TIP3    H225338   3.771   3.844  15.004  0.8023 -1.2591  0.4235
 1283TIP3   OH225339   2.071   0.858   2.189 -0.1821 -0.2712  0.3566
 1283TIP3    H125340   2.072   0.932   2.129 -3.4760  0.2559  0.7599
 1283TIP3    H225341   2.021   0.791   2.143  0.2783 -1.1918  1.1556
 1284TIP3   OH225342   2.949   5.299   5.346 -0.6928 -0.0267 -0.5733
 1284TIP3    H125343   2.971   5.228   5.285 -2.5095 -0.4769 -0.7442
 1284TIP3    H225344   3.024   5.359   5.340  2.2357 -3.1434  1.6156
 1285TIP3   OH225345   3.392   6.233   2.019  0.1967  0.2821 -0.7984
 1285TIP3    H125346   3.307   6.189   2.022  1.2926 -1.9564 -0.7820
 1285TIP3    H225347   3.425   6.215   1.931  0.4842  1.5454 -0.9731
 1286TIP3   OH225348   3.573   4.147  12.800  0.5791 -0.4962 -0.3690
 1286TIP3    H125349   3.654   4.185  12.833 -0.1162 -0.6927  1.7190
 1286TIP3    H225350   3.510   4.218  12.804  0.0379 -1.0102  0.5385
 1287TIP3   OH225351   1.896   3.383   1.695 -0.2647  0.1603 -0.3159
 1287TIP3    H125352   1.883   3.442   1.621 -0.6114  0.3163 -0.1332
 1287TIP3    H225353   1.950   3.312   1.660  0.5545  0.8225 -0.4134
 1288TIP3   OH225354   6.387   2.828  14.703  0.1889 -0.3577 -0.2144
 1288TIP3    H125355   6.455   2.864  14.645  0.1572 -0.5896 -0.3971
 1288TIP3    H225356   6.427   2.831  14.790 -0.0265  0.6374 -0.1473
 1289TIP3   OH225357   4.609   1.362   3.518  0.0282 -0.0529  0.3612
 1289TIP3    H125358   4.543   1.292   3.515  2.1503 -2.2065  0.8853
 1289TIP3    H225359   4.631   1.370   3.611  1.0410  0.0774  0.1203
 1290TIP3   OH225360   4.821   5.079  13.107  0.1466  0.2111  0.2055
 1290TIP3    H125361   4.801   5.022  13.181  1.1019  0.7888  0.9344
 1290TIP3    H225362   4.847   5.162  13.147  3.0306 -0.1801 -0.6594
 1291TIP3   OH225363   3.418   2.471  14.795 -0.1180  0.8391  0.0214
 1291TIP3    H125364   3.499   2.522  14.796 -0.2119  1.0939 -1.7537
 1291TIP3    H225365   3.411   2.438  14.705 -1.0436 -0.7355  0.6261
 1292TIP3   OH225366   2.101   0.067   4.176  0.3757 -0.0570 -0.3632
 1292TIP3    H125367   2.041   0.071   4.102 -0.8532  0.8787  0.6288
 1292TIP3    H225368   2.113  -0.026   4.193  1.6112 -0.3382 -2.4215
 1293TIP3   OH225369   5.508   1.571   3.909 -0.5258  0.0567 -0.1521
 1293TIP3    H125370   5.540   1.622   3.983  2.6020 -1.1826 -0.4762
 1293TIP3    H225371   5.473   1.491   3.948 -0.0701 -0.0320  0.0879
 1294TIP3   OH225372   1.852   1.506  13.616 -0.0616  0.2032  0.1041
 1294TIP3    H125373   1.834   1.453  13.693 -0.5383 -1.3108 -1.0152
 1294TIP3    H225374   1.925   1.563  13.642  0.5830 -1.1124  1.2773
 1295TIP3   OH225375   0.070   3.789  11.408 -0.1249 -0.0027  0.3508
 1295TIP3    H125376   0.016   3.710  11.411 -0.1081 -0.0486 -0.3303
 1295TIP3    H225377   0.006   3.860  11.399 -0.1632  0.1042  1.3816
 1296TIP3   OH225378   0.376   1.134   5.634  0.7139  0.5995  0.3184
 1296TIP3    H125379   0.313   1.066   5.609  0.1051  0.9453  0.9123
 1296TIP3    H225380   0.424   1.153   5.553 -1.2682  1.7522 -0.6437
 1297TIP3   OH225381   0.015   2.448   5.309  0.2832 -0.3691  0.1938
 1297TIP3    H125382  -0.032   2.434   5.227  1.1905  0.5730 -0.5157
 1297TIP3    H225383  -0.053   2.465   5.374 -0.3789  0.8076 -0.7744
 1298TIP3   OH225384   3.439   4.092  11.037 -0.3131  0.6177 -0.3296
 1298TIP3    H125385   3.416   4.137  11.119 -0.1748  1.2435 -0.6289
 1298TIP3    H225386   3.525   4.055  11.053 -0.9799 -0.6797  0.3731
 1299TIP3   OH225387   3.362   0.832  14.969  0.7515  0.1080  0.0524
 1299TIP3    H125388   3.418   0.876  15.033 -1.2541  0.2505  1.8054
 1299TIP3    H225389   3.391   0.740  14.970  0.2789 -0.0454  1.7609
 1300TIP3   OH225390   4.737   3.628   4.720 -0.4661 -0.3295  0.9550
 1300TIP3    H125391   4.823   3.656   4.749 -0.6181  0.0415  1.0538
 1300TIP3    H225392   4.676   3.692   4.757 -0.6836  0.0504 -0.0208
 1301TIP3   OH225393   5.245   4.797  12.704 -0.0140 -0.4820 -0.1283
 1301TIP3    H125394   5.243   4.773  12.797 -1.3520  1.3053  0.3467
 1301TIP3    H225395   5.337   4.817  12.687 -0.0340  1.0564  1.3451
 1302TIP3   OH225396   2.788   4.859   4.857  0.5777 -0.2936  0.1782
 1302TIP3    H125397   2.740   4.843   4.776  0.2101  0.1027  0.3170
 1302TIP3    H225398   2.729   4.912   4.910  2.6002  3.8694 -1.2528
 1303TIP3   OH225399   2.834   3.923   5.162 -0.1085 -0.2501  0.2045
 1303TIP3    H125400   2.847   3.875   5.243  0.2845 -0.7162 -0.1300
 1303TIP3    H225401   2.879   4.007   5.176  1.7915 -1.1318 -0.2699
 1304TIP3   OH225402   1.854   5.703   2.980 -0.2604  0.1416 -0.4618
 1304TIP3    H125403   1.915   5.742   2.917  0.9882 -3.1857 -1.4893
 1304TIP3    H225404   1.910   5.672   3.052 -1.1419 -0.0808  0.1401
 1305TIP3   OH225405   1.906   1.392  15.739 -0.5579 -0.0547 -0.2865
 1305TIP3    H125406   1.915   1.347  15.656  1.1413  0.5996 -0.4912
 1305TIP3    H225407   1.814   1.418  15.743 -0.6084  0.0989 -2.0590
 1306TIP3   OH225408   0.260   6.343   2.881  0.0152  0.2853  0.3880
 1306TIP3    H125409   0.185   6.401   2.897  1.2936  1.7153  1.5444
 1306TIP3    H225410   0.331   6.403   2.857  1.3410 -0.8115  1.4039
 1307TIP3   OH225411   0.097   2.023   1.695  0.1828 -0.1899  0.2111
 1307TIP3    H125412   0.084   2.116   1.680 -0.3053 -0.2329  0.3458
 1307TIP3    H225413   0.155   1.995   1.625 -1.9048 -0.3559 -1.5514
 1308TIP3   OH225414   3.127   0.901   1.606  0.0588  0.2547 -0.1333
 1308TIP3    H125415   3.060   0.850   1.561 -0.8714  0.5042  0.9184
 1308TIP3    H225416   3.209   0.856   1.586 -0.6361 -1.1362  0.0297
 1309TIP3   OH225417   2.360   1.387   3.988  0.1035  0.1728 -0.1855
 1309TIP3    H125418   2.444   1.342   3.989 -0.2253 -0.4399  0.4541
 1309TIP3    H225419   2.375   1.465   3.935  0.8534 -0.3600 -0.7738
 1310TIP3   OH225420   3.459   6.251   0.443  0.8113  0.2203 -0.4482
 1310TIP3    H125421   3.386   6.196   0.473  0.4035  1.8171  1.6846
 1310TIP3    H225422   3.493   6.291   0.522  0.7130  3.4921 -1.9066
 1311TIP3   OH225423   5.103   1.492  16.239 -0.7095 -0.5537  0.4313
 1311TIP3    H125424   5.050   1.471  16.316 -0.6338 -0.3311  0.5458
 1311TIP3    H225425   5.041   1.492  16.166 -1.1528  1.1678  0.7737
 1312TIP3   OH225426   3.229   5.882  16.276  0.1885 -0.3798  0.4644
 1312TIP3    H125427   3.199   5.963  16.318  0.0373 -0.7034  0.9940
 1312TIP3    H225428   3.215   5.897  16.183  0.7559  0.4459  0.5032
 1313TIP3   OH225429   4.477   3.822   5.490  0.3251  0.1808 -0.1628
 1313TIP3    H125430   4.492   3.767   5.413  2.4696  1.6079 -0.8572
 1313TIP3    H225431   4.392   3.864   5.473 -0.4144 -1.3731 -0.5224
 1314TIP3   OH225432   0.307   3.489  14.952  0.2469 -0.1614  0.4590
 1314TIP3    H125433   0.368   3.450  14.890  0.5126  0.1304  0.5373
 1314TIP3    H225434   0.345   3.470  15.038 -0.6991 -1.5923  0.6188
 1315TIP3   OH225435   4.572   2.964   5.486 -0.0365 -0.4106  0.2989
 1315TIP3    H125436   4.624   3.037   5.452 -0.8450 -1.2258 -3.0185
 1315TIP3    H225437   4.486   3.002   5.505 -0.1711 -0.2989 -0.5149
 1316TIP3   OH225438   4.631   1.909  11.146 -0.7579 -0.7883 -0.0427
 1316TIP3    H125439   4.653   1.986  11.094  0.3579  0.2848  1.9035
 1316TIP3    H225440   4.586   1.944  11.223  1.7017 -1.7643  1.9851
 1317TIP3   OH225441   1.033   0.678   1.574  0.4713 -0.1052 -0.0555
 1317TIP3    H125442   1.062   0.743   1.637  1.3631 -0.9383  0.4158
 1317TIP3    H225443   0.946   0.707   1.547  0.5699  0.8861  0.6727
 1318TIP3   OH225444   2.274   1.988   5.155  0.0912  0.0018 -0.2161
 1318TIP3    H125445   2.286   2.065   5.209  0.4806 -0.3782  0.2447
 1318TIP3    H225446   2.264   1.915   5.217 -1.4248 -0.1762 -0.6081
 1319TIP3   OH225447   4.017   2.109  11.371  0.2920  0.3689 -0.2204
 1319TIP3    H125448   4.105   2.145  11.355 -0.4989  2.2706 -0.5646
 1319TIP3    H225449   4.028   2.054  11.448  1.3887  2.3716  1.1635
 1320TIP3   OH225450   0.133   5.783   2.077 -0.2492 -0.2939 -1.0182
 1320TIP3    H125451   0.079   5.850   2.120 -0.7304 -0.2233 -1.7115
 1320TIP3    H225452   0.159   5.725   2.148 -2.4738 -1.1752 -0.8365
 1321TIP3   OH225453   5.693   0.555  13.582 -0.0326  0.8060  0.8808
 1321TIP3    H125454   5.698   0.632  13.525  0.5233  1.0089  1.1974
 1321TIP3    H225455   5.600   0.550  13.607 -1.0121 -1.1086 -2.4913
 1322TIP3   OH225456   5.903   1.299  12.683  0.0581 -0.3376 -0.2346
 1322TIP3    H125457   5.946   1.216  12.705  0.1673 -1.0030 -2.7044
 1322TIP3    H225458   5.836   1.276  12.620 -0.1391  1.4211 -0.7273
 1323TIP3   OH225459   4.221   4.032   0.730 -0.2197  0.1475  0.3417
 1323TIP3    H125460   4.307   4.022   0.771 -0.5391 -0.6913  0.8277
 1323TIP3    H225461   4.234   4.004   0.639  0.3976  1.6268 -0.0588
 1324TIP3   OH225462   2.412   3.548  10.994  0.0891  0.0621  0.4270
 1324TIP3    H125463   2.409   3.630  10.945  1.0700  0.0461  0.3195
 1324TIP3    H225464   2.334   3.500  10.967  0.0243  0.5469 -0.2493
 1325TIP3   OH225465   2.290   3.654  15.909  0.3287 -0.4293 -0.1190
 1325TIP3    H125466   2.365   3.698  15.949  1.3037 -0.8114 -1.4885
 1325TIP3    H225467   2.302   3.562  15.930 -0.9430 -0.2672  1.5033
 1326TIP3   OH225468   5.184   0.249  12.886 -0.3015  0.4106  0.1281
 1326TIP3    H125469   5.221   0.245  12.974  0.0942  1.6997  0.0404
 1326TIP3    H225470   5.094   0.217  12.896 -0.4992  1.2484  1.1505
 1327TIP3   OH225471   5.913   2.940  15.414  0.3087  0.1025 -0.0418
 1327TIP3    H125472   5.961   2.869  15.456 -0.0189  1.1386  2.2328
 1327TIP3    H225473   5.834   2.951  15.468  0.5461  2.4174 -0.0403
 1328TIP3   OH225474   3.796   0.924   5.013 -0.0063  0.2226  0.2178
 1328TIP3    H125475   3.742   0.846   5.005  0.8166 -0.3135 -0.2459
 1328TIP3    H225476   3.762   0.969   5.091  1.2532 -2.0247  2.2210
 1329TIP3   OH225477   2.872   5.714  13.466  0.2285 -0.3955 -0.2940
 1329TIP3    H125478   2.867   5.728  13.372 -3.0238 -0.1570 -0.2108
 1329TIP3    H225479   2.783   5.731  13.497  0.3293 -3.7250  2.3647
 1330TIP3   OH225480   0.497   3.624   0.702 -0.0822 -0.4942 -0.0060
 1330TIP3    H125481   0.436   3.696   0.720 -0.9559 -1.4795  1.2159
 1330TIP3    H225482   0.557   3.624   0.777 -0.0846 -1.0272  0.0026
 1331TIP3   OH225483   5.164   4.359  12.767  0.0322 -0.1351 -0.3680
 1331TIP3    H125484   5.140   4.444  12.730 -1.6173 -1.2781 -2.1369
 1331TIP3    H225485   5.091   4.336  12.825  0.3907 -0.4236 -0.0191
 1332TIP3   OH225486   1.845   4.850  11.363 -0.2848 -0.2676  0.3267
 1332TIP3    H125487   1.835   4.778  11.425 -0.7565  0.1856  0.7907
 1332TIP3    H225488   1.759   4.857  11.320 -0.1246 -0.2285  0.0077
 1333TIP3   OH225489   5.193   0.472  14.738  0.6634  0.2965 -0.4989
 1333TIP3    H125490   5.214   0.515  14.656  0.5513  2.0393  0.3502
 1333TIP3    H225491   5.237   0.524  14.806  1.8697 -1.8576  0.4889
 1334TIP3   OH225492   4.932   4.600  12.932 -0.2194  0.2474 -0.3000
 1334TIP3    H125493   4.969   4.683  12.960 -3.1131  1.0310  1.6717
 1334TIP3    H225494   4.908   4.613  12.841  1.0903  0.8733 -0.5758
 1335TIP3   OH225495   3.510   5.721   1.735  0.7280  0.4046  0.2248
 1335TIP3    H125496   3.479   5.698   1.823  0.3350  0.7673  0.1866
 1335TIP3    H225497   3.603   5.741   1.747  1.7083 -3.1893 -0.0875
 1336TIP3   OH225498   1.041   6.841   3.784  0.6873  0.2112  0.0962
 1336TIP3    H125499   0.995   6.757   3.790  0.5140  0.3857  1.4669
 1336TIP3    H225500   1.074   6.844   3.694 -2.4652  0.3507 -1.1507
 1337TIP3   OH225501   1.215   4.652   5.708 -0.1786 -0.4476  0.3531
 1337TIP3    H125502   1.296   4.695   5.735  0.1261 -0.4840 -0.4706
 1337TIP3    H225503   1.208   4.671   5.614 -0.1861 -1.9514  0.0189
 1338TIP3   OH225504   2.617   1.065   0.997 -0.1842 -0.2263 -0.0451
 1338TIP3    H125505   2.529   1.091   1.025 -0.4121  1.2661 -1.9837
 1338TIP3    H225506   2.669   1.145   1.004  0.7200 -0.7980 -0.1166
 1339TIP3   OH225507   6.758   1.786  12.345  0.4708 -0.4334  0.1724
 1339TIP3    H125508   6.751   1.691  12.334  0.5616 -0.5652  1.1669
 1339TIP3    H225509   6.812   1.814  12.272 -2.4476 -0.6340 -2.2757
 1340TIP3   OH225510   3.544   4.377   4.594  0.2119  0.2785 -0.1586
 1340TIP3    H125511   3.453   4.369   4.622  0.1674 -2.2681 -0.8434
 1340TIP3    H225512   3.538   4.387   4.499  0.6433  1.2279 -0.0977
 1341TIP3   OH225513   5.914   5.847   3.466 -0.4010 -0.1741  0.2650
 1341TIP3    H125514   5.873   5.761   3.472  1.1542 -1.0017 -0.3896
 1341TIP3    H225515   5.942   5.854   3.374  0.0883  0.7482  0.4671
 1342TIP3   OH225516   1.674   1.676   1.091  0.3372  0.5802  0.4237
 1342TIP3    H125517   1.662   1.725   1.172  0.1352  0.7433  0.2964
 1342TIP3    H225518   1.697   1.588   1.119 -1.3697  0.1834  0.7036
 1343TIP3   OH225519   3.280   4.432   0.124  0.1712  0.6685  0.3967
 1343TIP3    H125520   3.297   4.479   0.206  3.2165 -0.1904  0.3811
 1343TIP3    H225521   3.278   4.499   0.057  0.3297  1.1426  0.8623
 1344TIP3   OH225522   6.096   5.297  12.227  0.4915 -0.3359  0.1223
 1344TIP3    H125523   6.128   5.237  12.160  0.1736 -0.8041  0.3874
 1344TIP3    H225524   6.111   5.252  12.310 -2.5425 -1.4671  0.1939
 1345TIP3   OH225525   5.260   3.313  15.476  0.1563  0.1030 -0.5003
 1345TIP3    H125526   5.277   3.335  15.385  0.2252 -0.3770 -0.6081
 1345TIP3    H225527   5.164   3.303  15.481  0.3047 -2.9462 -1.2901
 1346TIP3   OH225528   2.361   1.201   1.041  0.0697 -0.2206 -0.1183
 1346TIP3    H125529   2.306   1.123   1.049 -2.6106  1.6422  0.9294
 1346TIP3    H225530   2.375   1.231   1.131  0.5372  0.8676 -0.5266
 1347TIP3   OH225531   4.219   5.589  13.735 -0.0368 -0.1524  0.1893
 1347TIP3    H125532   4.141   5.547  13.699 -1.3376  1.3898  1.0842
 1347TIP3    H225533   4.231   5.667  13.681  0.2777  0.1548  0.6938
 1348TIP3   OH225534   0.909   0.028  11.481 -0.1682 -0.2850  0.2093
 1348TIP3    H125535   0.915   0.105  11.537  1.7228 -1.1272  1.2657
 1348TIP3    H225536   0.851  -0.032  11.527 -0.1667 -0.2106  0.3069
 1349TIP3   OH225537   1.861   1.223  13.038 -0.4682  0.6379 -0.4860
 1349TIP3    H125538   1.859   1.245  12.945  1.3697  0.3842 -0.6203
 1349TIP3    H225539   1.874   1.128  13.040 -0.6714  0.6156  0.0399
 1350TIP3   OH225540   6.418   6.590  10.685 -0.0855  0.4408  0.0225
 1350TIP3    H125541   6.456   6.571  10.771 -2.0562 -1.8182  0.5119
 1350TIP3    H225542   6.483   6.557  10.622  0.2539 -0.2924  0.7347
 1351TIP3   OH225543   6.327   5.836   5.210 -0.3920 -0.2575  0.5793
 1351TIP3    H125544   6.321   5.744   5.234  0.0235  0.0915  2.1380
 1351TIP3    H225545   6.421   5.854   5.208 -0.3639 -0.3411 -1.7900
 1352TIP3   OH225546   5.522   5.673   1.476 -0.1702  0.0116  0.2124
 1352TIP3    H125547   5.526   5.658   1.382  0.1003  0.8326  0.0911
 1352TIP3    H225548   5.613   5.676   1.504 -0.2495 -0.4998  0.5529
 1353TIP3   OH225549   1.277   5.022   5.014  0.6312  0.1247  0.7394
 1353TIP3    H125550   1.200   5.070   5.046 -0.3611 -1.4596  0.8842
 1353TIP3    H225551   1.305   4.970   5.090  0.8445 -0.5200  0.2258
 1354TIP3   OH225552   1.064   3.943  12.050  0.3513  0.3494 -0.4910
 1354TIP3    H125553   0.992   3.911  12.105  0.2519  0.9918 -0.2389
 1354TIP3    H225554   1.061   3.887  11.973 -1.4805  1.3875 -1.2472
 1355TIP3   OH225555   2.243   3.032  14.912  0.0600 -0.0369  0.1354
 1355TIP3    H125556   2.326   3.077  14.926  0.1301  0.2989 -1.1783
 1355TIP3    H225557   2.213   3.008  14.999  0.1987  2.2703  0.8917
 1356TIP3   OH225558   5.091   2.162   1.203 -0.4661 -0.0710  0.6149
 1356TIP3    H125559   5.180   2.130   1.183  0.0193  0.6525  1.5724
 1356TIP3    H225560   5.034   2.104   1.153  0.6257  0.9581 -2.0116
 1357TIP3   OH225561   6.552   0.226   5.371 -0.5150  0.0096 -0.7753
 1357TIP3    H125562   6.473   0.221   5.424 -1.1679 -0.9143 -1.8019
 1357TIP3    H225563   6.619   0.183   5.425 -1.5865 -2.6298 -1.3840
 1358TIP3   OH225564   5.839   3.942   1.099  0.0281 -0.3275  0.1466
 1358TIP3    H125565   5.860   3.857   1.137 -1.1790 -0.1715  1.1960
 1358TIP3    H225566   5.912   3.999   1.127  0.1949 -0.7095  0.5004
 1359TIP3   OH225567   6.776   6.052  15.698  0.0246 -0.4383 -0.4350
 1359TIP3    H125568   6.771   5.988  15.627  2.0751 -1.7284  0.5053
 1359TIP3    H225569   6.695   6.039  15.748  0.0654 -1.7811 -0.6823
 1360TIP3   OH225570   6.435   0.859  11.423  0.7015 -0.4976  0.0073
 1360TIP3    H125571   6.412   0.899  11.507  2.2305 -0.1325  0.2890
 1360TIP3    H225572   6.475   0.931  11.373 -1.4257 -0.3462 -1.5935
 1361TIP3   OH225573   6.253   6.441  14.174 -0.4689  0.8926 -0.1897
 1361TIP3    H125574   6.292   6.353  14.170  0.4984  1.2898  0.3274
 1361TIP3    H225575   6.171   6.432  14.126 -0.9923 -0.6195  0.8857
 1362TIP3   OH225576   2.053   2.384  14.239  0.0977 -0.2486  0.2005
 1362TIP3    H125577   1.980   2.366  14.298 -0.1647 -0.3982 -0.1723
 1362TIP3    H225578   2.129   2.349  14.285  0.0619  0.6177  0.9586
 1363TIP3   OH225579   1.898   1.601  15.015 -0.6798 -0.6718 -0.5162
 1363TIP3    H125580   1.845   1.540  15.065 -0.8494  0.2299  0.4226
 1363TIP3    H225581   1.841   1.676  15.000  0.0165 -0.0989 -0.3324
 1364TIP3   OH225582   3.894   4.318  16.216  0.6114  0.3068  0.2700
 1364TIP3    H125583   3.825   4.354  16.162  1.7811  1.1546 -0.7257
 1364TIP3    H225584   3.877   4.224  16.218  0.4693  0.2630 -1.5147
 1365TIP3   OH225585   4.058   5.620  11.876  0.3157 -0.4398 -0.0385
 1365TIP3    H125586   4.131   5.559  11.885  0.1969 -0.2928  4.3249
 1365TIP3    H225587   4.087   5.699  11.921 -1.7390  0.3785 -0.0451
 1366TIP3   OH225588   0.717   6.415  16.163 -0.2100 -0.0629 -0.0007
 1366TIP3    H125589   0.760   6.455  16.088  1.0098 -0.0466  0.6655
 1366TIP3    H225590   0.695   6.326  16.133  3.3288 -1.3165  0.5303
 1367TIP3   OH225591   3.447   4.429   3.907  0.3003  0.2181 -0.3639
 1367TIP3    H125592   3.508   4.472   3.967 -1.6317  0.9314  1.1978
 1367TIP3    H225593   3.466   4.468   3.822 -0.3439  3.2333  0.7124
 1368TIP3   OH225594   0.933   0.422   3.353 -0.1873 -0.0070 -0.4440
 1368TIP3    H125595   0.885   0.449   3.432 -0.1920  1.9442 -1.0695
 1368TIP3    H225596   0.883   0.348   3.319 -2.1988  1.3349 -0.5235
 1369TIP3   OH225597   3.585   5.893   2.880 -0.2026  0.2246  0.7202
 1369TIP3    H125598   3.602   5.947   2.957  0.7513  1.5421 -0.3649
 1369TIP3    H225599   3.614   5.947   2.806 -2.2487 -0.4656 -0.6734
 1370TIP3   OH225600   0.810   1.929   5.903 -0.0331 -0.6165 -0.0083
 1370TIP3    H125601   0.887   1.927   5.959 -0.4648  0.8211  0.6824
 1370TIP3    H225602   0.841   1.962   5.819 -0.1492  1.7148  0.7925
 1371TIP3   OH225603   3.660   6.268   3.758 -0.1206 -0.1247 -0.3619
 1371TIP3    H125604   3.577   6.238   3.794  1.5556 -1.3397  2.8693
 1371TIP3    H225605   3.664   6.361   3.782 -1.4790  0.6127 -2.6634
 1372TIP3   OH225606   1.926   3.749  13.990  0.2667  0.4406 -0.0964
 1372TIP3    H125607   1.937   3.827  13.936 -0.9335  1.8010  1.5048
 1372TIP3    H225608   2.016   3.720  14.008  0.6975 -0.0490 -2.7075
 1373TIP3   OH225609   0.834   6.780   5.043 -0.1146  0.6094 -0.0266
 1373TIP3    H125610   0.897   6.764   5.114 -1.7038  0.6390  1.4481
 1373TIP3    H225611   0.852   6.869   5.014 -0.9099  1.4721  1.9568
 1374TIP3   OH225612   3.130   3.438   4.710  0.1755 -0.3148  0.2165
 1374TIP3    H125613   3.122   3.359   4.656  0.2930  0.2157 -0.6064
 1374TIP3    H225614   3.194   3.416   4.777 -0.3216 -1.1476  0.4180
 1375TIP3   OH225615   3.817   0.974  16.109 -0.1651  0.1976 -0.0400
 1375TIP3    H125616   3.764   1.049  16.135  0.8726  1.4962 -1.4763
 1375TIP3    H225617   3.760   0.899  16.122 -1.6384  1.3412  0.3775
 1376TIP3   OH225618   3.864   2.572  15.641 -0.0365 -0.0299  0.5459
 1376TIP3    H125619   3.815   2.654  15.642 -0.9560 -0.5562 -0.0916
 1376TIP3    H225620   3.925   2.581  15.714  0.3152  1.4678  0.1147
 1377TIP3   OH225621   6.467   4.826  13.843  0.1142 -0.3004  0.1423
 1377TIP3    H125622   6.424   4.886  13.783  0.4649 -1.6483 -1.5320
 1377TIP3    H225623   6.533   4.880  13.887  1.6204  0.2717 -2.5472
 1378TIP3   OH225624   1.074   2.229   5.383 -0.0974  0.1769 -0.4196
 1378TIP3    H125625   1.143   2.163   5.394 -0.8445 -0.8243 -1.4834
 1378TIP3    H225626   0.995   2.177   5.366 -1.1318  1.2912  0.7568
 1379TIP3   OH225627   3.460   5.307   0.506  0.1380 -0.1150  0.1237
 1379TIP3    H125628   3.369   5.311   0.479 -0.2219  0.7816  1.4061
 1379TIP3    H225629   3.507   5.359   0.440 -0.6494  1.6309  0.8922
 1380TIP3   OH225630   4.938   1.585   6.691 -0.0362  0.5040  0.0013
 1380TIP3    H125631   4.930   1.492   6.673  1.1357  0.5509 -0.9150
 1380TIP3    H225632   5.031   1.598   6.712 -0.1809  1.4498  0.1247
 1381TIP3   OH225633   2.833   6.010   4.271  0.2157  0.5099 -0.0320
 1381TIP3    H125634   2.896   6.082   4.263 -0.2238  1.0260  0.9063
 1381TIP3    H225635   2.761   6.035   4.213  1.6815 -1.0719 -2.7318
 1382TIP3   OH225636   1.327   3.778   2.118 -0.1803 -0.0565 -0.4400
 1382TIP3    H125637   1.323   3.793   2.213  2.8593 -0.7111 -0.1009
 1382TIP3    H225638   1.337   3.865   2.081 -0.8741  0.1618 -0.1350
 1383TIP3   OH225639   2.859   3.248   2.311 -0.2578 -0.4350  0.8593
 1383TIP3    H125640   2.828   3.291   2.231  0.5477 -1.3816  0.0053
 1383TIP3    H225641   2.926   3.308   2.344  1.1525 -1.1555 -0.5480
 1384TIP3   OH225642   0.726   1.094  12.244 -0.1469 -0.6288  0.3106
 1384TIP3    H125643   0.745   1.003  12.265 -0.7257 -0.3885  2.0639
 1384TIP3    H225644   0.762   1.107  12.156  2.4310 -1.7696  1.0987
 1385TIP3   OH225645   5.219   6.366   4.203  0.2243  0.2757 -0.5113
 1385TIP3    H125646   5.288   6.301   4.195 -0.0126 -0.1922  0.8940
 1385TIP3    H225647   5.262   6.444   4.237  0.2925  0.4403 -0.9720
 1386TIP3   OH225648   3.873   6.798   2.444  0.1971  0.0778  0.3082
 1386TIP3    H125649   3.841   6.786   2.354 -0.1208  0.7534  0.3280
 1386TIP3    H225650   3.797   6.780   2.499  0.0770  0.8454  0.3933
 1387TIP3   OH225651   2.830   0.629  16.888 -0.6669 -0.5839  0.6904
 1387TIP3    H125652   2.915   0.663  16.860 -1.8321  1.8108 -0.2091
 1387TIP3    H225653   2.769   0.658  16.820 -2.3748 -1.3679  1.8121
 1388TIP3   OH225654   3.321   0.343   1.470  0.1845  0.6759 -0.4045
 1388TIP3    H125655   3.389   0.284   1.439 -0.4041 -0.1919 -0.0830
 1388TIP3    H225656   3.354   0.431   1.449  0.0965  0.1794 -2.8624
 1389TIP3   OH225657   0.373   4.170   2.472 -0.7732 -0.0762 -0.5321
 1389TIP3    H125658   0.449   4.165   2.530 -0.4918 -1.7971 -0.9823
 1389TIP3    H225659   0.358   4.263   2.460 -0.1325  0.3056  1.3709
 1390TIP3   OH225660   6.849   4.088   5.381  0.6458  0.3390 -1.2946
 1390TIP3    H125661   6.933   4.133   5.384 -0.3082  2.1665 -0.3040
 1390TIP3    H225662   6.789   4.152   5.344 -0.7339 -0.1430 -0.0017
 1391TIP3   OH225663   3.594   0.915   3.144  0.5348  0.4815 -0.4653
 1391TIP3    H125664   3.539   0.867   3.082  1.4044  0.8876 -1.5837
 1391TIP3    H225665   3.678   0.925   3.099  1.6299 -0.3228  1.2695
 1392TIP3   OH225666   6.319   4.945   3.100 -0.0737 -0.2104  0.1830
 1392TIP3    H125667   6.356   5.004   3.035 -1.6285 -0.5721 -1.0867
 1392TIP3    H225668   6.328   4.858   3.061 -2.5627 -0.2856 -0.4034
 1393TIP3   OH225669   4.233   6.598   2.008  0.3680  0.2203  0.1598
 1393TIP3    H125670   4.266   6.547   2.082  0.6938  1.0716  0.6258
 1393TIP3    H225671   4.177   6.664   2.049  2.1395  1.9909 -0.1020
 1394TIP3   OH225672   0.215   0.074  14.149 -0.2458 -0.0927 -0.9700
 1394TIP3    H125673   0.231  -0.019  14.134 -1.3342 -0.7367  1.3635
 1394TIP3    H225674   0.128   0.089  14.111 -2.4224 -1.4075  2.9087
 1395TIP3   OH225675   4.316   1.863   4.607  0.7750 -0.3650  0.0420
 1395TIP3    H125676   4.246   1.880   4.544 -0.1311 -0.5861  0.9731
 1395TIP3    H225677   4.386   1.825   4.554 -0.4843 -1.8536 -0.6532
 1396TIP3   OH225678   2.886   6.494   5.187 -0.5002 -0.1146  0.0675
 1396TIP3    H125679   2.914   6.550   5.115  1.5225 -0.5102  0.4655
 1396TIP3    H225680   2.828   6.548   5.240  0.8627  1.3991  0.0762
 1397TIP3   OH225681   3.647   2.464   2.531 -0.1568  0.3486 -0.2524
 1397TIP3    H125682   3.737   2.458   2.563 -0.2754 -0.0597  0.0056
 1397TIP3    H225683   3.643   2.401   2.459 -0.5546 -0.4904  0.4902
 1398TIP3   OH225684   3.866   6.280  12.356  0.1598 -0.0224 -0.4000
 1398TIP3    H125685   3.780   6.321  12.365  0.8019  2.2540 -3.1288
 1398TIP3    H225686   3.928   6.348  12.382  1.2270 -1.5719  1.3789
 1399TIP3   OH225687   4.494   5.838  10.699  0.2558 -0.1193 -0.4737
 1399TIP3    H125688   4.524   5.882  10.619  0.9583 -2.9281 -1.8627
 1399TIP3    H225689   4.564   5.776  10.721 -0.3884 -0.1549  1.7634
 1400TIP3   OH225690   2.209   4.033  11.778  0.4037 -0.2000 -0.2944
 1400TIP3    H125691   2.157   3.953  11.782  1.0803 -0.8167 -2.4748
 1400TIP3    H225692   2.250   4.039  11.864 -2.0293 -0.5047  0.9623
 1401TIP3   OH225693   2.354   2.775  12.705 -0.5601  0.0490  0.5239
 1401TIP3    H125694   2.273   2.825  12.695 -0.9665 -0.3941  1.5017
 1401TIP3    H225695   2.334   2.689  12.666 -0.4711  0.0234  0.5346
 1402TIP3   OH225696   4.746   2.009   1.455  0.2405  0.1810 -0.0727
 1402TIP3    H125697   4.659   2.038   1.427  0.3246  0.2140 -0.3012
 1402TIP3    H225698   4.739   2.002   1.551 -1.2552 -3.8287 -0.2981
 1403TIP3   OH225699   2.730   4.217   6.298  0.2263 -1.0465  0.6689
 1403TIP3    H125700   2.790   4.278   6.255  1.0573 -1.1438  1.6666
 1403TIP3    H225701   2.774   4.132   6.291  0.3403 -1.0716  1.6610
 1404TIP3   OH225702   1.420   1.796   1.596 -0.1105  0.3915  0.0492
 1404TIP3    H125703   1.485   1.866   1.590 -0.9664  1.2327  0.3612
 1404TIP3    H225704   1.438   1.741   1.520  1.3137  0.2893  0.4231
 1405TIP3   OH225705   6.294   1.414  13.172 -0.0942 -0.4983  0.3729
 1405TIP3    H125706   6.382   1.439  13.199  0.6634 -2.3824 -0.1953
 1405TIP3    H225707   6.255   1.373  13.249 -0.8639  1.1532  0.9117
 1406TIP3   OH225708   2.043   2.826   5.904  0.3905 -0.1654 -0.5208
 1406TIP3    H125709   1.976   2.807   5.971  0.7148 -0.1486 -0.1878
 1406TIP3    H225710   2.021   2.913   5.873  1.8626  1.0361  1.5755
 1407TIP3   OH225711   5.269   2.721  15.203  0.3119  0.6681  0.2499
 1407TIP3    H125712   5.244   2.738  15.293 -1.6909  0.5091 -0.2370
 1407TIP3    H225713   5.303   2.631  15.204  2.5238  1.4372  1.2087
 1408TIP3   OH225714   0.089   3.961   1.718  0.4072  0.1815  0.1070
 1408TIP3    H125715   0.114   3.894   1.782  0.3911 -0.3706 -0.4502
 1408TIP3    H225716   0.015   3.923   1.671 -0.1911  0.9760  0.3892
 1409TIP3   OH225717   4.331   0.832   5.640  0.0232  0.6738 -0.0912
 1409TIP3    H125718   4.360   0.878   5.719 -2.0859 -0.0959  1.2010
 1409TIP3    H225719   4.315   0.743   5.669 -2.5523  0.7932 -0.9235
 1410TIP3   OH225720   4.981   2.641  16.181 -0.3668  0.2196  0.4182
 1410TIP3    H125721   4.903   2.691  16.205 -0.1756  0.5159  0.4246
 1410TIP3    H225722   4.953   2.550  16.186 -1.1452  0.3479 -1.0519
 1411TIP3   OH225723   2.302   4.366  12.711 -0.1758  0.2731  0.0782
 1411TIP3    H125724   2.315   4.307  12.637 -0.6330  0.6673 -0.3272
 1411TIP3    H225725   2.353   4.444  12.689  2.0621 -0.7054  1.5329
 1412TIP3   OH225726   0.956   5.675   0.380  0.6227 -0.3155  0.0329
 1412TIP3    H125727   0.927   5.653   0.292 -0.7347 -0.3636  0.4786
 1412TIP3    H225728   0.948   5.594   0.430  0.2778 -0.0206  0.4733
 1413TIP3   OH225729   3.218   6.421   3.051  0.1373 -0.0681  0.2174
 1413TIP3    H125730   3.222   6.387   3.140 -0.4962 -2.4365 -0.5758
 1413TIP3    H225731   3.301   6.395   3.012  0.7157  1.5898  0.2856
 1414TIP3   OH225732   1.925   4.277  15.942 -0.2040  0.1863  0.1422
 1414TIP3    H125733   1.847   4.278  15.997  0.0477 -0.0683  0.5087
 1414TIP3    H225734   1.903   4.333  15.868 -0.6895  0.2138  0.3038
 1415TIP3   OH225735   2.696   2.520  10.961  0.2000 -0.0021 -0.1932
 1415TIP3    H125736   2.772   2.555  11.007  1.7434 -1.6527 -1.3850
 1415TIP3    H225737   2.690   2.572  10.881  0.1347  0.0405 -0.1611
 1416TIP3   OH225738   4.478   0.754  13.173 -0.3983 -0.1141 -0.2236
 1416TIP3    H125739   4.444   0.842  13.186 -1.9820 -0.5965 -0.8968
 1416TIP3    H225740   4.572   0.762  13.189 -0.4971  1.7106 -0.3942
 1417TIP3   OH225741   0.661   1.259  11.470  0.0937  0.3327  0.0563
 1417TIP3    H125742   0.584   1.281  11.524 -0.7237 -0.3790 -0.7856
 1417TIP3    H225743   0.736   1.286  11.523 -0.7377  1.1822  0.8423
 1418TIP3   OH225744   4.077   5.609  10.994 -0.3713  0.2479  0.5906
 1418TIP3    H125745   4.036   5.696  10.998  0.4894  0.6332  1.2471
 1418TIP3    H225746   4.128   5.611  10.913 -1.7199 -0.2960 -0.3256
 1419TIP3   OH225747   6.352   5.785   1.245 -0.2908  0.2408  0.0908
 1419TIP3    H125748   6.390   5.745   1.323 -0.8703 -1.9090 -0.6683
 1419TIP3    H225749   6.419   5.774   1.177 -0.5089  0.4867 -0.1681
 1420TIP3   OH225750   5.768   5.775   1.564  0.0467 -0.0780  0.0108
 1420TIP3    H125751   5.753   5.862   1.601  0.5154  0.4559 -1.0150
 1420TIP3    H225752   5.863   5.763   1.568  0.2679  0.5535 -2.1727
 1421TIP3   OH225753   5.536   0.846   1.606 -0.5589 -0.2628  0.3834
 1421TIP3    H125754   5.470   0.787   1.642  0.1649 -0.8578  0.7842
 1421TIP3    H225755   5.618   0.819   1.649  0.1400 -0.2522 -0.8956
 1422TIP3   OH225756   1.237   2.447   1.549 -0.2173 -0.0540 -0.2747
 1422TIP3    H125757   1.266   2.475   1.636 -0.7727  3.0864 -0.9820
 1422TIP3    H225758   1.164   2.387   1.567 -1.2622  1.6061  1.5063
 1423TIP3   OH225759   6.278   2.581  13.017  0.0285  0.1641  0.5893
 1423TIP3    H125760   6.320   2.666  13.000 -1.1935  0.2875 -2.5359
 1423TIP3    H225761   6.350   2.520  13.027  0.9240  1.2503  0.9677
 1424TIP3   OH225762   3.753   6.806  14.438  0.2183  0.0134 -0.1750
 1424TIP3    H125763   3.687   6.874  14.450  0.0787 -0.1255 -0.1545
 1424TIP3    H225764   3.737   6.773  14.349 -0.1431 -0.4525  0.0628
 1425TIP3   OH225765   5.001   3.694   4.852  0.3432 -0.0527 -0.2813
 1425TIP3    H125766   5.046   3.779   4.852 -0.8417  0.6041 -1.3885
 1425TIP3    H225767   4.958   3.690   4.938  0.8288  0.2153 -0.0151
 1426TIP3   OH225768   1.919   4.848  12.840  0.4149  0.5527  0.8226
 1426TIP3    H125769   1.968   4.776  12.800  0.8635  0.4697  1.5084
 1426TIP3    H225770   1.914   4.825  12.933  0.9801  1.6354  1.1396
 1427TIP3   OH225771   4.578   4.168   2.334 -0.1989  0.2364  0.0084
 1427TIP3    H125772   4.570   4.199   2.244  2.1102 -0.1860 -0.4007
 1427TIP3    H225773   4.650   4.220   2.371 -0.2568 -0.4894  1.1865
 1428TIP3   OH225774   5.792   1.165   0.961 -0.4334  0.6781  0.0010
 1428TIP3    H125775   5.747   1.174   0.878 -1.6634 -0.0234  0.5675
 1428TIP3    H225776   5.810   1.255   0.989 -1.7259  0.9928 -0.1290
 1429TIP3   OH225777   1.859   4.546   6.065 -0.2812 -0.8816 -0.4949
 1429TIP3    H125778   1.954   4.551   6.060 -0.2544 -0.9822 -0.1102
 1429TIP3    H225779   1.842   4.475   6.126 -0.5956 -0.1773  0.2575
 1430TIP3   OH225780   2.391   4.304  16.120  0.6730 -0.8426  0.5503
 1430TIP3    H125781   2.399   4.309  16.024 -0.5313 -1.5787  0.3956
 1430TIP3    H225782   2.480   4.287  16.150  1.3166  0.7258 -0.3262
 1431TIP3   OH225783   5.943   4.021   4.954  0.9497  0.6097 -0.0874
 1431TIP3    H125784   5.968   4.010   4.863 -2.4197 -3.4003 -0.8416
 1431TIP3    H225785   5.859   4.067   4.951  0.5432 -0.0224  0.9113
 1432TIP3   OH225786   4.318   4.684   5.345  0.5832  0.3309  0.5084
 1432TIP3    H125787   4.395   4.731   5.376 -0.7001  1.4596  2.1408
 1432TIP3    H225788   4.274   4.745   5.286  0.0111  0.3707  0.9722
 1433TIP3   OH225789   0.522   3.562   4.895  0.3359  0.0398  0.0294
 1433TIP3    H125790   0.505   3.513   4.814 -0.8525  0.1305  0.2191
 1433TIP3    H225791   0.465   3.522   4.960  0.7918  0.4139  0.6674
 1434TIP3   OH225792   4.017   6.582  11.708 -0.2255 -0.5395 -0.1734
 1434TIP3    H125793   3.938   6.637  11.702  0.1708  0.0169 -0.3391
 1434TIP3    H225794   4.045   6.571  11.618 -0.9052 -1.9245 -0.2447
 1435TIP3   OH225795   2.707   5.909   4.738 -0.2675  0.4646  0.1368
 1435TIP3    H125796   2.792   5.901   4.694 -0.3796 -2.8453  0.2930
 1435TIP3    H225797   2.649   5.944   4.670  0.6606  0.3045 -0.7733
 1436TIP3   OH225798   5.271   6.770  13.911  0.2338 -0.6118 -0.0754
 1436TIP3    H125799   5.292   6.746  14.001 -1.0092 -0.3771  0.2937
 1436TIP3    H225800   5.186   6.730  13.894 -0.5427  1.0678 -0.4185
 1437TIP3   OH225801   5.951   3.573  13.452  0.0499  0.0598 -0.4847
 1437TIP3    H125802   5.978   3.577  13.544 -0.7518 -0.6130 -0.2097
 1437TIP3    H225803   6.029   3.540  13.406  0.2123 -0.3404  0.0613
 1438TIP3   OH225804   4.552   6.738  13.474  0.4496  0.0719 -0.8086
 1438TIP3    H125805   4.518   6.664  13.424 -0.4986 -0.5322  0.6745
 1438TIP3    H225806   4.628   6.702  13.520  0.6795  0.3436 -0.9717
 1439TIP3   OH225807   1.126   2.517  13.751 -0.5223  0.3664  0.0427
 1439TIP3    H125808   1.154   2.476  13.669 -1.6447  1.0029 -0.6955
 1439TIP3    H225809   1.050   2.466  13.779  0.3839 -0.4049  1.2027
 1440TIP3   OH225810   4.905   3.363   0.239  0.0869 -0.0909 -0.3755
 1440TIP3    H125811   4.962   3.438   0.252 -0.2772  0.2445 -0.6882
 1440TIP3    H225812   4.966   3.289   0.229  0.4146 -0.1125  1.4519
 1441TIP3   OH225813   5.984   5.229  12.997  0.2623  0.7416  0.2749
 1441TIP3    H125814   6.065   5.181  13.014  0.5304  1.0109 -0.2112
 1441TIP3    H225815   5.938   5.176  12.933  0.4560  1.0126 -0.0951
 1442TIP3   OH225816   6.578   4.212   1.320  0.8199  0.3447 -0.2121
 1442TIP3    H125817   6.603   4.241   1.408  2.0147  0.6513 -0.6387
 1442TIP3    H225818   6.605   4.120   1.317 -1.6757 -0.5068  0.6431
 1443TIP3   OH225819   5.234   1.127  15.911  0.2249  0.0580 -0.2824
 1443TIP3    H125820   5.306   1.149  15.852 -0.0827  1.4281 -0.1875
 1443TIP3    H225821   5.162   1.104  15.853  0.8092 -1.6733 -0.3758
 1444TIP3   OH225822   2.811   5.148  10.309 -0.6944  0.2920  0.8224
 1444TIP3    H125823   2.828   5.202  10.231  1.1633  0.2019  1.1081
 1444TIP3    H225824   2.838   5.203  10.382  1.5293 -1.0394  1.1006
 1445TIP3   OH225825   4.099   4.861  14.031  0.6430 -0.0309 -0.5432
 1445TIP3    H125826   4.031   4.925  14.051 -0.5842 -1.3751 -0.3005
 1445TIP3    H225827   4.062   4.806  13.963  1.8024 -0.3236 -0.9725
 1446TIP3   OH225828   5.489   1.882  11.183 -0.2724  0.0108  0.8263
 1446TIP3    H125829   5.414   1.874  11.124 -0.2706  0.3890  0.7734
 1446TIP3    H225830   5.529   1.795  11.183  0.2128  0.2220 -0.3768
 1447TIP3   OH225831   5.012   5.847   1.467 -0.4624 -0.0774  0.4463
 1447TIP3    H125832   4.989   5.760   1.498  0.2501 -0.6153 -0.4579
 1447TIP3    H225833   4.964   5.907   1.523 -0.3245 -1.0316  1.6138
 1448TIP3   OH225834   3.903   4.770   5.982 -0.4865  0.0506  0.8010
 1448TIP3    H125835   3.992   4.733   5.983 -0.5929 -0.3114 -0.6384
 1448TIP3    H225836   3.846   4.693   5.982 -0.7739  0.2630  0.6585
 1449TIP3   OH225837   0.634   4.251  14.058  0.3000  0.5260  0.1449
 1449TIP3    H125838   0.672   4.163  14.058  0.1585  0.4210 -1.6794
 1449TIP3    H225839   0.667   4.291  13.977  2.0692  2.9527  1.9205
 1450TIP3   OH225840   2.336   3.659   0.149  0.3786  0.0296 -0.2914
 1450TIP3    H125841   2.302   3.700   0.070 -0.6130 -0.1385  0.0311
 1450TIP3    H225842   2.314   3.566   0.141 -0.8866  0.2078  0.7341
 1451TIP3   OH225843   2.095   3.090   5.272 -0.3459 -0.2474 -0.2987
 1451TIP3    H125844   2.094   3.043   5.188  0.2199 -0.3871 -0.2259
 1451TIP3    H225845   2.004   3.086   5.302 -0.2695 -1.4704 -0.1968
 1452TIP3   OH225846   5.051   6.714   1.997 -0.5610 -0.3821  0.0946
 1452TIP3    H125847   5.141   6.723   2.029 -1.0929  0.2926  1.4545
 1452TIP3    H225848   5.013   6.801   2.006 -1.5082 -0.7777  0.0211
 1453TIP3   OH225849   3.188   2.624  12.957  0.1448 -0.4560 -0.2561
 1453TIP3    H125850   3.129   2.552  12.935 -0.5890  0.0425  0.0725
 1453TIP3    H225851   3.275   2.591  12.932  0.0337 -2.0405  1.2350
 1454TIP3   OH225852   6.787   4.337   4.983  1.0335 -0.4417  0.1890
 1454TIP3    H125853   6.752   4.255   4.949 -1.5911  0.4679  0.5096
 1454TIP3    H225854   6.859   4.359   4.924 -0.7872 -0.9632 -2.3447
 1455TIP3   OH225855   1.264   3.365  16.096 -0.2628  0.0690 -0.3826
 1455TIP3    H125856   1.296   3.408  16.175 -2.1208  0.4733  0.1849
 1455TIP3    H225857   1.344   3.333  16.053  0.7859 -0.3598  1.7376
 1456TIP3   OH225858   5.265   6.391   2.129 -0.0076  0.2999 -0.0481
 1456TIP3    H125859   5.175   6.361   2.116 -0.7067  1.7007  1.1971
 1456TIP3    H225860   5.264   6.431   2.216  1.8407  0.3168  0.0027
 1457TIP3   OH225861   3.143   3.708   5.717 -0.1595 -0.2649 -0.1266
 1457TIP3    H125862   3.057   3.749   5.727  0.0639 -0.1333  1.6759
 1457TIP3    H225863   3.140   3.633   5.776  0.6549 -0.8003 -0.7467
 1458TIP3   OH225864   0.568   0.147   2.091  0.4511  0.6965 -0.0635
 1458TIP3    H125865   0.642   0.105   2.136 -0.6766 -1.1074  0.1972
 1458TIP3    H225866   0.559   0.098   2.009 -0.2631  1.0872 -0.2254
 1459TIP3   OH225867   5.374   4.883  14.781 -0.0771  0.1699 -0.5986
 1459TIP3    H125868   5.342   4.973  14.787 -1.6477 -0.2809 -1.5288
 1459TIP3    H225869   5.469   4.892  14.782 -0.1923  1.8462 -0.6596
 1460TIP3   OH225870   4.673   4.477   2.371 -0.3110 -0.1769 -0.7270
 1460TIP3    H125871   4.631   4.432   2.445  1.9168 -1.3498 -0.0774
 1460TIP3    H225872   4.714   4.554   2.410 -2.2470  1.3286 -1.4713
 1461TIP3   OH225873   6.050   0.933  11.972 -0.0951 -0.0450  0.5577
 1461TIP3    H125874   5.993   0.941  12.048 -1.3313  0.7031 -0.3979
 1461TIP3    H225875   6.002   0.876  11.911  0.4407  0.1124 -0.0272
 1462TIP3   OH225876   6.733   2.085   0.316  0.0038 -0.2985  0.1010
 1462TIP3    H125877   6.738   2.178   0.296 -2.5295 -0.0969  0.0150
 1462TIP3    H225878   6.763   2.041   0.236  0.0012  0.4434 -0.3163
 1463TIP3   OH225879   1.892   5.451   3.807  0.1858  0.1992  0.1508
 1463TIP3    H125880   1.858   5.362   3.802  0.7737 -0.0093 -0.2217
 1463TIP3    H225881   1.842   5.501   3.742  1.7082 -0.4890 -1.6448
 1464TIP3   OH225882   0.215   5.061  12.880 -0.5513 -0.6678 -0.8391
 1464TIP3    H125883   0.235   5.088  12.791 -0.5672  0.3580 -0.5438
 1464TIP3    H225884   0.156   5.129  12.913  1.0751  0.1032  0.6366
 1465TIP3   OH225885   6.146   5.045  11.279 -0.4451 -0.0956  0.4638
 1465TIP3    H125886   6.188   5.090  11.205  0.1842  0.4581  1.1440
 1465TIP3    H225887   6.058   5.083  11.283 -0.1808  0.5284  0.5461
 1466TIP3   OH225888   4.200   3.416   3.181 -0.5102  0.6420 -0.8636
 1466TIP3    H125889   4.108   3.431   3.161 -0.7068 -0.6757 -1.0957
 1466TIP3    H225890   4.201   3.388   3.272 -0.5159 -0.4945 -1.1857
 1467TIP3   OH225891   0.270   3.030   4.656  0.4796  0.4937 -0.7151
 1467TIP3    H125892   0.304   3.028   4.567  1.1023 -1.5709 -0.4967
 1467TIP3    H225893   0.175   3.026   4.647  0.5808 -0.9433 -1.3000
 1468TIP3   OH225894   1.310   5.181  14.673 -0.1819  0.2813  0.6016
 1468TIP3    H125895   1.285   5.259  14.624 -0.3868  0.7037  1.3557
 1468TIP3    H225896   1.390   5.149  14.631 -0.1466  0.8492  0.2403
 1469TIP3   OH225897   1.895   3.056   1.687  0.3275 -0.4359 -0.4305
 1469TIP3    H125898   1.903   3.066   1.782 -0.5317  1.8164 -0.5363
 1469TIP3    H225899   1.809   3.092   1.666  0.6019 -0.6568 -2.1168
 1470TIP3   OH225900   4.251   2.749  14.078 -0.0596  0.2960  0.1799
 1470TIP3    H125901   4.342   2.734  14.104  0.1204  0.5639 -0.2755
 1470TIP3    H225902   4.199   2.706  14.145  0.4147 -1.1839 -0.3694
 1471TIP3   OH225903   4.807   3.621   0.447  0.1431  0.0229  0.5562
 1471TIP3    H125904   4.825   3.671   0.368 -1.0305 -0.9481 -0.3650
 1471TIP3    H225905   4.727   3.659   0.482  1.0939  0.9794  1.7639
 1472TIP3   OH225906   0.951   2.469   5.470 -0.3413 -0.4434 -0.2047
 1472TIP3    H125907   1.001   2.395   5.436 -1.9586 -1.8583  0.3200
 1472TIP3    H225908   0.865   2.461   5.428 -0.6803  0.9088  0.1834
 1473TIP3   OH225909   2.733   5.164   0.671 -0.0915 -0.1650  0.2196
 1473TIP3    H125910   2.661   5.209   0.716 -0.6306  1.2192 -1.8679
 1473TIP3    H225911   2.809   5.176   0.727 -0.9208  0.6884  1.1858
 1474TIP3   OH225912   2.327   2.708  14.971 -0.0581 -0.0316  0.3461
 1474TIP3    H125913   2.368   2.628  15.006  2.2836  0.7317 -0.4590
 1474TIP3    H225914   2.256   2.675  14.916  1.3378 -1.6768 -0.6117
 1475TIP3   OH225915   5.271   3.959  14.728  0.1604 -0.4102 -0.7628
 1475TIP3    H125916   5.342   3.945  14.665  2.2755  2.2438  0.8440
 1475TIP3    H225917   5.267   4.054  14.740 -0.5993 -0.7482  2.5742
 1476TIP3   OH225918   1.007   5.304  11.503  0.0731  0.0126 -0.4899
 1476TIP3    H125919   0.942   5.368  11.531  0.7303  0.1695  0.7218
 1476TIP3    H225920   1.041   5.339  11.421 -1.4673 -0.1643 -1.2450
 1477TIP3   OH225921   1.681   6.813   5.390  0.1423 -0.4798  0.3742
 1477TIP3    H125922   1.624   6.884   5.421  1.0714 -0.1991  1.5098
 1477TIP3    H225923   1.628   6.766   5.325 -0.0040  2.1112 -1.5193
 1478TIP3   OH225924   0.045   3.158  14.195 -0.9062 -0.0339  0.1513
 1478TIP3    H125925   0.110   3.179  14.263  1.3780  0.2307 -1.9588
 1478TIP3    H225926   0.015   3.070  14.217  1.2994 -0.7862  0.4754
 1479TIP3   OH225927   6.229   3.424   3.714  0.2895  0.5525  0.3351
 1479TIP3    H125928   6.245   3.512   3.681  1.3255  0.1092 -0.3748
 1479TIP3    H225929   6.137   3.407   3.696  0.4227  0.9773 -0.7706
 1480TIP3   OH225930   0.887   2.237   4.440  0.7897 -1.0740 -0.5132
 1480TIP3    H125931   0.850   2.313   4.484  0.6869 -1.9475  0.9885
 1480TIP3    H225932   0.817   2.206   4.383 -0.3758 -1.8616  1.2332
 1481TIP3   OH225933   2.642   2.040   4.327  0.8439 -0.5606 -0.0568
 1481TIP3    H125934   2.568   2.037   4.267  0.6059  0.1264  0.2034
 1481TIP3    H225935   2.604   2.030   4.414  1.1925 -1.6042 -0.0039
 1482TIP3   OH225936   3.625   1.163   4.889 -0.1444  0.0807  0.1982
 1482TIP3    H125937   3.698   1.105   4.868  0.6819  0.8365  0.9476
 1482TIP3    H225938   3.664   1.250   4.897 -1.4771  0.9271 -1.6961
 1483TIP3   OH225939   6.354   4.058  17.003 -0.2737  0.1845  0.0371
 1483TIP3    H125940   6.336   4.074  17.096 -0.8964  2.5983 -0.4312
 1483TIP3    H225941   6.448   4.072  16.994  0.0483 -1.4367  0.5009
 1484TIP3   OH225942   2.843   3.419   0.257  0.6628  0.0296 -0.2139
 1484TIP3    H125943   2.756   3.445   0.228  0.9351  1.1429 -0.0815
 1484TIP3    H225944   2.844   3.324   0.248 -0.1630  0.1067 -1.3090
 1485TIP3   OH225945   0.241   4.770   5.373  0.1808  0.0088  0.1247
 1485TIP3    H125946   0.163   4.794   5.421 -1.5337 -1.2681 -1.8318
 1485TIP3    H225947   0.257   4.678   5.397 -0.5289 -0.5550 -1.4154
 1486TIP3   OH225948   6.325   3.789  13.189  0.0231 -0.1121 -0.4169
 1486TIP3    H125949   6.406   3.811  13.143  1.6486 -1.9244  1.3779
 1486TIP3    H225950   6.316   3.694  13.176 -0.8395 -0.2255  0.8671
 1487TIP3   OH225951   6.754   5.193  10.158  0.0715  0.4444  0.3573
 1487TIP3    H125952   6.714   5.271  10.119 -0.1610 -0.5927 -1.6065
 1487TIP3    H225953   6.847   5.201  10.139  0.1796  0.6872  0.9765
 1488TIP3   OH225954   3.178   5.438   5.306  0.2482 -0.0277 -0.4465
 1488TIP3    H125955   3.188   5.455   5.213  2.6410  0.7877 -0.1286
 1488TIP3    H225956   3.196   5.522   5.348 -0.2675 -0.4979  0.7697
 1489TIP3   OH225957   4.859   0.628  15.849 -0.4096  0.3752  0.1177
 1489TIP3    H125958   4.919   0.697  15.879 -0.1227 -0.6178  1.9534
 1489TIP3    H225959   4.827   0.660  15.764  2.7603  0.9019 -1.0302
 1490TIP3   OH225960   5.201   3.520  12.790  0.2448  0.1513 -0.0918
 1490TIP3    H125961   5.122   3.568  12.813  1.5097  1.2886  2.2248
 1490TIP3    H225962   5.183   3.429  12.816 -0.5884  0.2233 -0.3996
 1491TIP3   OH225963   2.799   0.244   0.638 -0.2373 -0.4049  0.6139
 1491TIP3    H125964   2.723   0.243   0.696  0.3725  0.2002  1.4456
 1491TIP3    H225965   2.835   0.332   0.647  0.2401 -0.5044 -0.2008
 1492TIP3   OH225966   3.803   0.822   5.839 -0.1219 -0.1097 -0.0690
 1492TIP3    H125967   3.851   0.772   5.904 -0.5859  1.9024  1.9452
 1492TIP3    H225968   3.718   0.778   5.832 -0.2110 -0.1269  0.9987
 1493TIP3   OH225969   5.665   2.567   1.712 -0.0076  0.2426  0.4339
 1493TIP3    H125970   5.646   2.596   1.623 -0.4010  1.9775  1.0411
 1493TIP3    H225971   5.684   2.474   1.703 -4.6989 -0.8490 -0.8556
 1494TIP3   OH225972   3.090   3.067   5.445  0.2587 -0.0947 -0.1001
 1494TIP3    H125973   3.040   3.149   5.448  0.4460 -0.0152  1.6997
 1494TIP3    H225974   3.177   3.091   5.475  0.1781 -1.0300  0.9531
 1495TIP3   OH225975   4.359   6.394  16.499 -0.0848 -0.0116 -0.0778
 1495TIP3    H125976   4.387   6.307  16.472 -0.4306 -0.0320 -0.3771
 1495TIP3    H225977   4.390   6.452  16.429  1.1517  0.2683  0.6754
 1496TIP3   OH225978   0.681   0.272  11.910  0.2628  0.0874  0.0892
 1496TIP3    H125979   0.633   0.279  11.827  0.8205  1.5291 -0.1350
 1496TIP3    H225980   0.710   0.361  11.929  0.3344 -0.2498  1.7386
 1497TIP3   OH225981   3.985   0.778   5.310 -0.1019  0.2190  0.1046
 1497TIP3    H125982   4.030   0.754   5.229 -1.1799 -0.4970 -0.3157
 1497TIP3    H225983   3.895   0.745   5.298 -0.6891  1.4089  0.9825
 1498TIP3   OH225984   5.137   4.164  14.507  0.0104 -0.0552 -0.0581
 1498TIP3    H125985   5.111   4.220  14.580  1.0908 -1.0788  1.1486
 1498TIP3    H225986   5.189   4.222  14.451 -0.7000  0.6975  0.0243
 1499TIP3   OH225987   6.234   3.561  14.169 -0.4365 -0.3319 -0.1123
 1499TIP3    H125988   6.259   3.633  14.227  0.3243  0.9839 -1.9870
 1499TIP3    H225989   6.138   3.564  14.167 -0.4002  1.3110 -0.9410
 1500TIP3   OH225990   5.088   2.363  12.289 -0.0776 -0.2331  0.1958
 1500TIP3    H125991   5.013   2.312  12.322  0.5739 -1.6693 -0.4973
 1500TIP3    H225992   5.150   2.363  12.362  0.4710 -1.5789 -0.2589
 1501TIP3   OH225993   6.745   6.205   4.185 -0.4909  0.1499 -0.1069
 1501TIP3    H125994   6.831   6.177   4.154 -0.2974  0.6724 -0.0617
 1501TIP3    H225995   6.759   6.225   4.278 -0.7800 -0.2470  0.0227
 1502TIP3   OH225996   4.849   3.831   6.488  0.3612 -0.1099 -0.1499
 1502TIP3    H125997   4.856   3.746   6.531  0.3356 -0.3887 -0.6809
 1502TIP3    H225998   4.756   3.840   6.468  0.1827  0.5734  0.9379
 1503TIP3   OH225999   1.448   2.243  13.842  0.0405  0.5801 -0.3673
 1503TIP3    H126000   1.438   2.330  13.882 -1.6886  0.9082 -1.4224
 1503TIP3    H226001   1.359   2.209  13.836  0.5122 -0.5185 -1.6287
 1504TIP3   OH226002   2.126   1.190  10.678  0.0197 -0.1905 -0.1930
 1504TIP3    H126003   2.150   1.146  10.596 -0.0956  0.0411 -0.3521
 1504TIP3    H226004   2.066   1.260  10.651  3.3974  2.8945 -0.5357
 1505TIP3   OH226005   0.834   4.310   6.566 -0.4604  0.3870  0.8697
 1505TIP3    H126006   0.852   4.399   6.596 -2.1497  0.4648  1.7781
 1505TIP3    H226007   0.861   4.310   6.474 -0.4490  1.8572  0.8430
 1506TIP3   OH226008   4.255   5.389  17.004 -0.3150  0.3948  0.3410
 1506TIP3    H126009   4.242   5.475  17.045 -0.0310  0.2371  0.7638
 1506TIP3    H226010   4.301   5.338  17.070  1.5778  0.6141 -0.7494
 1507TIP3   OH226011   4.304   1.146   3.468 -0.4038  0.0081  0.1401
 1507TIP3    H126012   4.250   1.076   3.504 -1.1177  1.2572  1.6023
 1507TIP3    H226013   4.394   1.113   3.473 -0.8288 -1.3436 -0.5529
 1508TIP3   OH226014   0.081   0.439  11.566 -0.4426 -0.4395 -0.2427
 1508TIP3    H126015   0.062   0.473  11.654  0.7748  0.4792 -0.2919
 1508TIP3    H226016  -0.002   0.404  11.535 -0.8474 -0.9765  1.3582
 1509TIP3   OH226017   6.740   0.995  11.951  0.1023 -0.5520 -0.0495
 1509TIP3    H126018   6.734   1.071  11.893  1.6864  1.0307  1.7174
 1509TIP3    H226019   6.744   0.920  11.893  1.6123  0.9485 -2.0094
 1510TIP3   OH226020   0.012   4.352   4.576  0.0046 -0.2380 -0.6942
 1510TIP3    H126021  -0.042   4.282   4.540 -1.5868 -0.0126  1.0622
 1510TIP3    H226022   0.022   4.415   4.504 -1.4103 -0.6956 -1.3297
 1511TIP3   OH226023   5.860   2.776  11.462 -0.2261  1.0150  0.5366
 1511TIP3    H126024   5.950   2.792  11.435 -0.3209  2.0228  0.7994
 1511TIP3    H226025   5.811   2.851  11.431 -1.3975 -0.4493 -1.4059
 1512TIP3   OH226026   1.470   1.600  16.893 -0.6101  0.3538  0.3047
 1512TIP3    H126027   1.400   1.665  16.894  0.6408  1.7641 -0.3474
 1512TIP3    H226028   1.551   1.651  16.894  0.4230 -1.1849 -0.3588
 1513TIP3   OH226029   4.684   0.011   0.399 -0.3601 -0.3033 -0.2233
 1513TIP3    H126030   4.756   0.043   0.345 -0.5440  1.0348  0.2803
 1513TIP3    H226031   4.653  -0.067   0.354  1.2129 -0.7560 -0.6050
 1514TIP3   OH226032   1.704   2.784   2.196  0.2907  0.0591  0.1554
 1514TIP3    H126033   1.681   2.872   2.165  0.8664  0.3590  0.5608
 1514TIP3    H226034   1.658   2.775   2.280  0.1185 -0.0864  0.0473
 1515TIP3   OH226035   6.352   1.904   5.459  0.4457  0.2170  0.1309
 1515TIP3    H126036   6.347   1.809   5.471  1.3191  0.0107 -0.9449
 1515TIP3    H226037   6.426   1.931   5.513  0.6525  0.1736 -0.1288
 1516TIP3   OH226038   1.405   5.107  12.458 -0.4392  0.5242 -0.1526
 1516TIP3    H126039   1.355   5.098  12.377 -1.3244 -1.0360  0.5224
 1516TIP3    H226040   1.497   5.114  12.430 -0.8433  1.4449 -1.3184
 1517TIP3   OH226041   0.770   0.235  10.550  0.2107 -0.6905  0.3100
 1517TIP3    H126042   0.843   0.178  10.573 -0.6251 -1.8424  0.2031
 1517TIP3    H226043   0.692   0.188  10.580 -0.4387  1.1297  1.7249
 1518TIP3   OH226044   6.733   1.232   2.714 -0.3370  0.3125  0.6771
 1518TIP3    H126045   6.720   1.233   2.620 -2.0261  1.0487  0.8873
 1518TIP3    H226046   6.747   1.140   2.735  0.4735  0.1924 -0.3260
 1519TIP3   OH226047   3.284   4.554  13.211 -0.5912  0.0565 -0.3091
 1519TIP3    H126048   3.248   4.465  13.221 -1.2237  0.4283  1.0429
 1519TIP3    H226049   3.211   4.605  13.177 -0.1158  0.0063 -1.4536
 1520TIP3   OH226050   1.359   5.774  17.120 -0.6644 -0.6889  0.1779
 1520TIP3    H126051   1.441   5.781  17.169 -1.6926  2.9255  1.7251
 1520TIP3    H226052   1.387   5.757  17.030  1.7201 -0.3614  0.7732
 1521TIP3   OH226053   1.052   5.242  15.484 -0.7562 -0.1405  0.3007
 1521TIP3    H126054   1.028   5.229  15.575  1.4428 -4.8788  0.5195
 1521TIP3    H226055   1.146   5.221  15.481 -0.7186 -0.0348 -3.0056
 1522TIP3   OH226056   0.835   4.439   2.336  0.2854  0.8327 -0.6652
 1522TIP3    H126057   0.881   4.423   2.254  2.9569  1.2215  0.6371
 1522TIP3    H226058   0.850   4.532   2.354 -2.7832  1.5050 -1.1078
 1523TIP3   OH226059   5.810   4.078  12.687  0.0407  0.2783  0.6385
 1523TIP3    H126060   5.856   4.030  12.756 -2.3338 -1.0162  1.4332
 1523TIP3    H226061   5.860   4.058  12.607  0.9175 -0.9678  1.4594
 1524TIP3   OH226062   6.236   3.881  14.745 -0.2103 -0.3292 -0.1526
 1524TIP3    H126063   6.328   3.903  14.727  0.0635  0.7796  2.2171
 1524TIP3    H226064   6.220   3.801  14.695  2.6317 -1.6662  0.8727
 1525TIP3   OH226065   6.499   2.079   0.064 -0.8012  0.2102  0.0675
 1525TIP3    H126066   6.418   2.121   0.035 -0.6589  0.4579  0.0341
 1525TIP3    H226067   6.554   2.150   0.096 -1.5636 -0.1779  2.4896
 1526TIP3   OH226068   4.480   5.553   2.430 -0.1980  0.2732  0.4871
 1526TIP3    H126069   4.414   5.527   2.366  1.7975  0.7621 -1.9071
 1526TIP3    H226070   4.502   5.472   2.477  0.5900 -0.8940 -1.7309
 1527TIP3   OH226071   0.934   4.422   3.384  0.6064 -0.2489  0.1853
 1527TIP3    H126072   0.898   4.463   3.305  1.2578 -0.2346 -0.1098
 1527TIP3    H226073   0.916   4.486   3.454  1.4366  0.4588 -0.2362
 1528TIP3   OH226074   6.415   0.338  16.803  0.0301  0.2950  0.2784
 1528TIP3    H126075   6.328   0.300  16.817  0.2691  0.0222  1.1085
 1528TIP3    H226076   6.416   0.415  16.860  0.3649  0.2413  0.3440
 1529TIP3   OH226077   0.244   3.674   4.093 -0.1132 -0.3197  0.3802
 1529TIP3    H126078   0.313   3.630   4.142 -0.7587 -1.8079  0.0155
 1529TIP3    H226079   0.232   3.621   4.014 -0.5707  0.8169 -0.3469
 1530TIP3   OH226080   2.827   6.785  15.484 -0.5800 -0.2911 -0.1724
 1530TIP3    H126081   2.799   6.694  15.472  0.7583 -0.7387 -0.1297
 1530TIP3    H226082   2.876   6.783  15.566 -0.3895  0.4392 -0.2656
 1531TIP3   OH226083   1.555   2.043   1.519  0.0663  0.3850  0.0752
 1531TIP3    H126084   1.471   2.074   1.485  0.1479  0.5459  0.0212
 1531TIP3    H226085   1.581   2.109   1.584  0.0508  0.2286  0.2422
 1532TIP3   OH226086   1.495   1.097   0.148  0.0164  0.6099 -0.5253
 1532TIP3    H126087   1.583   1.133   0.145 -0.1130  1.0866  0.8509
 1532TIP3    H226088   1.508   1.002   0.157  0.4122  0.7477  0.4482
 1533TIP3   OH226089   6.708   4.856   2.313 -0.4010 -0.3318 -0.4656
 1533TIP3    H126090   6.671   4.786   2.259  0.4052 -0.9472 -0.2356
 1533TIP3    H226091   6.773   4.812   2.368  0.3884  0.6577 -0.5787
 1534TIP3   OH226092   0.263   6.010  13.641 -0.8113 -0.0125  0.1586
 1534TIP3    H126093   0.243   6.096  13.678 -0.9139 -0.3097  0.8159
 1534TIP3    H226094   0.340   5.980  13.689 -0.7371 -0.2590 -0.1093
 1535TIP3   OH226095   6.618   4.118  16.981  0.1333  0.1943 -0.3835
 1535TIP3    H126096   6.652   4.129  17.070  0.0364  2.5143 -0.5716
 1535TIP3    H226097   6.691   4.083  16.932 -0.6799 -4.2139  1.1431
 1536TIP3   OH226098   3.843   1.014   4.712 -0.1094 -0.1645  0.0083
 1536TIP3    H126099   3.911   1.060   4.762 -0.0630 -1.3799  1.1186
 1536TIP3    H226100   3.818   1.076   4.643  0.3056  1.3001  1.1193
 1537TIP3   OH226101   3.942   1.286  11.248 -0.2308 -0.6445  0.0765
 1537TIP3    H126102   3.924   1.377  11.227  0.1426 -0.2266  1.4654
 1537TIP3    H226103   3.921   1.238  11.168  3.0646  1.0464 -2.0026
 1538TIP3   OH226104   2.541   0.176  11.177  0.2492 -0.3245  0.3946
 1538TIP3    H126105   2.582   0.112  11.235  0.7086 -0.4724 -0.0766
 1538TIP3    H226106   2.484   0.124  11.120  0.6323 -0.3212  0.0024
 1539TIP3   OH226107   5.392   4.783  11.032  0.6035 -0.1212 -0.3509
 1539TIP3    H126108   5.430   4.868  11.010 -1.8486  1.1436 -0.1189
 1539TIP3    H226109   5.328   4.768  10.962  0.2338 -1.2385  0.2103
 1540TIP3   OH226110   3.652   5.353   4.040 -0.0638 -0.2171 -0.5195
 1540TIP3    H126111   3.726   5.413   4.030  0.6295 -1.3705 -2.9127
 1540TIP3    H226112   3.620   5.340   3.951 -0.7698 -2.6778  0.0401
 1541TIP3   OH226113   5.265   1.562  16.892 -0.0649 -0.7897  0.2605
 1541TIP3    H126114   5.241   1.562  16.800  1.0390  0.5967 -0.0596
 1541TIP3    H226115   5.243   1.650  16.923  0.3337 -0.9723  1.1052
 1542TIP3   OH226116   4.574   5.021  15.868 -0.3915  0.1922  0.2752
 1542TIP3    H126117   4.519   5.083  15.916 -2.0688 -0.2468 -0.9938
 1542TIP3    H226118   4.645   5.074  15.833 -1.0103  1.1363  0.4187
 1543TIP3   OH226119   0.938   2.691   0.623  0.3353 -0.1804 -0.1253
 1543TIP3    H126120   1.020   2.741   0.624 -1.1740  2.5029 -0.9050
 1543TIP3    H226121   0.930   2.656   0.711  1.3116  1.2897  0.5869
 1544TIP3   OH226122   2.699   2.413  16.781 -0.4370  0.0233 -0.1894
 1544TIP3    H126123   2.662   2.388  16.696 -0.6830  0.3186 -0.1737
 1544TIP3    H226124   2.704   2.508  16.778  0.5197 -0.0252 -0.2620
 1545TIP3   OH226125   6.147   2.695  13.524 -0.1348 -0.0100  0.4839
 1545TIP3    H126126   6.090   2.717  13.598 -1.3973 -0.0244 -0.4527
 1545TIP3    H226127   6.235   2.700  13.560 -0.6752  0.7950  1.7880
 1546TIP3   OH226128   4.864   3.994   2.268 -0.8584 -0.0545  0.1218
 1546TIP3    H126129   4.934   4.039   2.221  0.2222 -0.6660  1.0691
 1546TIP3    H226130   4.784   4.019   2.222 -0.4027  3.1375  0.7768
 1547TIP3   OH226131   4.575   4.360  16.768 -0.0319 -0.1388 -0.2201
 1547TIP3    H126132   4.509   4.418  16.730 -0.9819 -1.6571 -0.9647
 1547TIP3    H226133   4.658   4.395  16.737 -0.5901  0.7435 -0.7506
 1548TIP3   OH226134   4.063   4.441   2.974 -0.1465  0.2965  0.8079
 1548TIP3    H126135   4.059   4.426   2.879  1.4751 -2.8537  1.1155
 1548TIP3    H226136   4.154   4.463   2.991 -0.3472  0.4867  1.6900
 1549TIP3   OH226137   0.703   0.608   3.860  0.7344  0.6867  0.0546
 1549TIP3    H126138   0.670   0.584   3.946  0.0658 -1.3483 -0.7226
 1549TIP3    H226139   0.633   0.585   3.799  1.2002  2.0583 -1.0671
 1550TIP3   OH226140   4.439   3.843  12.889  0.4452  0.0064 -0.9148
 1550TIP3    H126141   4.415   3.751  12.885  0.4941 -0.2436  2.2174
 1550TIP3    H226142   4.357   3.888  12.911  0.9758  0.2688  0.6593
 1551TIP3   OH226143   3.167   3.633   1.484  0.2603 -0.3589 -0.0255
 1551TIP3    H126144   3.101   3.700   1.470 -0.1975 -0.3123  1.9677
 1551TIP3    H226145   3.171   3.584   1.402 -1.0750  0.6593 -0.7203
 1552TIP3   OH226146   0.286   1.241  12.310 -0.4885  0.4329  0.1452
 1552TIP3    H126147   0.230   1.314  12.338 -1.0868 -0.2821  0.8560
 1552TIP3    H226148   0.240   1.202  12.236 -1.2425 -0.4847  1.0610
 1553TIP3   OH226149   2.664   3.956  17.039 -0.3273  0.0633  0.2875
 1553TIP3    H126150   2.591   3.999  17.084 -1.5788 -1.1941 -0.4386
 1553TIP3    H226151   2.622   3.902  16.971  1.2299 -1.2443  0.2893
 1554TIP3   OH226152   5.753   0.707   4.350 -0.4506 -0.6360  0.1999
 1554TIP3    H126153   5.751   0.660   4.267 -0.9618 -0.6748  0.2311
 1554TIP3    H226154   5.666   0.745   4.358  0.3535  1.5127 -0.4981
 1555TIP3   OH226155   6.558   4.268  14.451  0.1369  0.8221 -0.0867
 1555TIP3    H126156   6.651   4.258  14.470  0.1564 -0.3002 -0.6490
 1555TIP3    H226157   6.544   4.362  14.444  0.9274  1.0816  1.4442
 1556TIP3   OH226158   4.584   1.734   3.680 -0.1364 -0.0988  0.2639
 1556TIP3    H126159   4.598   1.788   3.603 -1.0500 -1.7637 -1.1575
 1556TIP3    H226160   4.622   1.649   3.657 -0.3094 -0.5857  1.6920
 1557TIP3   OH226161   3.262   4.064  13.860  0.6755 -0.0367 -1.0472
 1557TIP3    H126162   3.277   4.077  13.954  0.1153  0.1566 -0.9809
 1557TIP3    H226163   3.310   4.135  13.818  0.2366  0.3701 -0.8598
 1558TIP3   OH226164   2.278   3.275   4.770 -0.2227 -0.2743 -0.4482
 1558TIP3    H126165   2.197   3.280   4.821 -0.2208  1.1045 -0.5442
 1558TIP3    H226166   2.305   3.366   4.759 -0.2121 -0.5129 -2.9050
 1559TIP3   OH226167   6.476   1.977   5.720 -0.0684  0.2832  0.1886
 1559TIP3    H126168   6.521   1.904   5.763  0.5780  0.5088 -0.0913
 1559TIP3    H226169   6.541   2.048   5.719  0.4433 -0.1363 -2.3419
 1560TIP3   OH226170   4.895   0.355   5.249 -0.5981  0.0851 -0.3776
 1560TIP3    H126171   4.975   0.379   5.202 -0.2236  0.3229  0.3547
 1560TIP3    H226172   4.831   0.338   5.181  0.5064 -1.6562 -1.0426
 1561TIP3   OH226173   3.794   2.869   4.501  0.3178 -0.1041  0.0105
 1561TIP3    H126174   3.889   2.876   4.493  0.2200 -1.0054 -2.6012
 1561TIP3    H226175   3.762   2.957   4.481  0.5652  0.4287  1.7289
 1562TIP3   OH226176   4.460   4.149   5.449 -0.1123  0.4210 -0.1313
 1562TIP3    H126177   4.399   4.191   5.510 -1.4542 -0.1156 -1.0380
 1562TIP3    H226178   4.408   4.137   5.369  0.6101 -1.7423 -0.3341
 1563TIP3   OH226179   6.604   4.800  15.230 -0.0288  0.1742 -0.2679
 1563TIP3    H126180   6.532   4.828  15.287 -1.0518 -1.1049 -0.8824
 1563TIP3    H226181   6.666   4.873  15.232 -1.5614  1.5336 -0.0844
 1564TIP3   OH226182   2.224   4.121  13.157  0.4683 -0.1024  0.1870
 1564TIP3    H126183   2.180   4.166  13.229 -0.9508  2.2162 -1.9661
 1564TIP3    H226184   2.154   4.090  13.100  1.5005  0.2246 -1.3566
 1565TIP3   OH226185   1.557   6.659  12.283 -0.1442  0.4636 -0.1784
 1565TIP3    H126186   1.558   6.751  12.255 -2.6616  0.6494  0.1052
 1565TIP3    H226187   1.510   6.613  12.214  0.6900 -0.5335 -0.0901
 1566TIP3   OH226188   5.764   6.447   1.467 -0.3143 -1.0732  0.3575
 1566TIP3    H126189   5.785   6.519   1.528  1.3026 -1.3013  0.1202
 1566TIP3    H226190   5.844   6.394   1.465 -0.0248 -0.6570 -2.5356
 1567TIP3   OH226191   1.292   5.624   3.730 -0.3029  0.7171  0.3824
 1567TIP3    H126192   1.229   5.659   3.793 -2.8182  0.1177 -1.6250
 1567TIP3    H226193   1.322   5.701   3.681  2.6997  1.3977  2.9351
 1568TIP3   OH226194   3.594   4.837  11.013  0.4142 -0.0226  0.3327
 1568TIP3    H126195   3.539   4.772  11.055  1.9114 -1.1458  0.6428
 1568TIP3    H226196   3.598   4.909  11.076  1.4206 -1.0580  1.5035
 1569TIP3   OH226197   0.685   4.447   1.434 -0.4716  0.1341 -0.1266
 1569TIP3    H126198   0.675   4.392   1.356 -1.3100 -0.8750  0.6740
 1569TIP3    H226199   0.659   4.391   1.507  0.6943  0.9301  0.9495
 1570TIP3   OH226200   3.666   1.666   0.229  0.1794  0.1084 -0.2625
 1570TIP3    H126201   3.641   1.628   0.313  0.4545  0.9172  0.1927
 1570TIP3    H226202   3.584   1.700   0.193  0.4646  2.4398  1.0703
 1571TIP3   OH226203   5.487   5.956  15.538  0.7195 -0.4633  0.0183
 1571TIP3    H126204   5.573   5.929  15.570 -0.0562 -3.0429  0.1179
 1571TIP3    H226205   5.459   5.885  15.481 -0.4157  1.3760 -1.8387
 1572TIP3   OH226206   3.720   2.769   3.598 -0.5479  0.0714  0.1520
 1572TIP3    H126207   3.799   2.761   3.545 -1.0073  0.4089 -0.5935
 1572TIP3    H226208   3.751   2.757   3.688  0.4364  0.7141 -0.0817
 1573TIP3   OH226209   5.802   3.809  16.768  0.0605 -0.1182  0.1258
 1573TIP3    H126210   5.782   3.897  16.737 -1.0254 -0.5963 -0.5857
 1573TIP3    H226211   5.822   3.759  16.689 -1.5400 -1.0546  0.2822
 1574TIP3   OH226212   1.139   1.953   5.383 -0.1039  0.2846 -0.0610
 1574TIP3    H126213   1.087   1.875   5.362  0.0354  0.7286 -2.3762
 1574TIP3    H226214   1.194   1.926   5.456 -2.4575 -0.6821  1.4753
 1575TIP3   OH226215   0.249   6.229  16.243 -0.2255 -0.0343 -0.2410
 1575TIP3    H126216   0.170   6.179  16.222 -1.2409  1.6314 -0.5880
 1575TIP3    H226217   0.284   6.255  16.158 -0.6625  1.2373 -0.0480
 1576TIP3   OH226218   1.943   0.342  13.092  1.0836 -0.2965 -0.7771
 1576TIP3    H126219   2.008   0.273  13.080  2.0309  0.6240 -1.1117
 1576TIP3    H226220   1.863   0.296  13.117  1.6634 -1.5109 -1.0931
 1577TIP3   OH226221   0.184   2.324   2.359 -0.5831 -0.0091  0.3862
 1577TIP3    H126222   0.098   2.353   2.328 -0.2467  2.4804  1.5900
 1577TIP3    H226223   0.214   2.262   2.292 -3.1810 -0.7766 -0.1758
 1578TIP3   OH226224   5.858   6.509  10.824 -0.7804  0.2599 -0.1517
 1578TIP3    H126225   5.866   6.588  10.771 -1.2291  0.1059 -0.4618
 1578TIP3    H226226   5.945   6.471  10.824 -0.5581  0.7566  0.0109
 1579TIP3   OH226227   1.533   2.249  14.690  1.0449 -0.1678 -0.1537
 1579TIP3    H126228   1.588   2.223  14.764  0.2682 -0.0653  0.4715
 1579TIP3    H226229   1.497   2.167  14.656  0.9166 -0.1639 -0.0284
 1580TIP3   OH226230   5.726   4.117   4.012  0.6527 -0.7637 -0.1759
 1580TIP3    H126231   5.737   4.143   4.103 -4.4735 -0.0812  0.5600
 1580TIP3    H226232   5.722   4.199   3.964 -1.5680 -0.7630 -0.0974
 1581TIP3   OH226233   3.050   2.942  12.403  0.0864 -0.4273 -0.5892
 1581TIP3    H126234   3.115   2.954  12.473 -1.9203  1.0533  1.1853
 1581TIP3    H226235   3.049   3.025  12.357 -0.1484 -0.6317 -0.9573
 1582TIP3   OH226236   1.074   0.993   4.620 -0.3435  0.1800 -0.0949
 1582TIP3    H126237   1.005   0.957   4.675  0.0962 -1.7219 -0.7212
 1582TIP3    H226238   1.154   0.950   4.649 -0.0840 -0.8234 -2.0809
 1583TIP3   OH226239   5.427   6.395   3.106  0.4748 -0.2905 -0.2740
 1583TIP3    H126240   5.410   6.303   3.127  0.0356 -0.0945  0.2433
 1583TIP3    H226241   5.397   6.405   3.015 -1.3860 -0.1733  0.3186
 1584TIP3   OH226242   4.996   3.048   4.304  0.7103 -0.5111 -0.4832
 1584TIP3    H126243   4.915   3.046   4.355  0.2469 -1.5047 -1.2040
 1584TIP3    H226244   5.050   3.115   4.346  0.4013 -1.3513  1.3683
 1585TIP3   OH226245   2.641   5.150  16.808 -0.2374  0.0233 -0.1965
 1585TIP3    H126246   2.665   5.059  16.789  1.8560  0.2432  1.0511
 1585TIP3    H226247   2.604   5.182  16.727 -0.7252 -1.8532 -0.7661
 1586TIP3   OH226248   2.482   3.275   4.948 -0.4052  0.0965 -0.2752
 1586TIP3    H126249   2.396   3.256   4.910  0.3317 -1.0057 -1.4592
 1586TIP3    H226250   2.513   3.191   4.980 -0.0322  0.6139  0.7864
 1587TIP3   OH226251   1.442   4.883   0.557  0.4314 -0.4637 -0.2270
 1587TIP3    H126252   1.375   4.914   0.496  2.2215  1.5742 -1.2902
 1587TIP3    H226253   1.393   4.852   0.633 -1.7265  0.4471 -1.1636
 1588TIP3   OH226254   0.834   0.644   2.451  0.0584  0.1297 -0.2417
 1588TIP3    H126255   0.744   0.631   2.420 -0.1136  1.8288 -0.6078
 1588TIP3    H226256   0.887   0.588   2.395 -0.7614 -0.8489 -0.0634
 1589TIP3   OH226257   2.458   5.741   0.458  0.3482  0.5063 -0.4044
 1589TIP3    H126258   2.501   5.797   0.393  0.4395 -0.5211 -1.2607
 1589TIP3    H226259   2.400   5.800   0.505  0.7047  1.3950 -1.0438
 1590TIP3   OH226260   1.950   5.739  12.621 -0.4960  0.0215  0.2057
 1590TIP3    H126261   2.003   5.686  12.561  1.2726  1.0084  0.8173
 1590TIP3    H226262   1.939   5.684  12.698 -0.6188 -0.3016 -0.0408
 1591TIP3   OH226263   6.743   0.072  15.001  0.0245 -0.0831 -0.8248
 1591TIP3    H126264   6.678   0.055  15.069  0.2907  0.2778 -0.4719
 1591TIP3    H226265   6.799   0.140  15.038  0.8188 -0.6388 -0.9875
 1592TIP3   OH226266   1.064   5.129   2.549 -0.2335 -0.0507  0.2179
 1592TIP3    H126267   1.022   5.213   2.531 -2.8601 -0.9583  1.5730
 1592TIP3    H226268   1.059   5.082   2.466 -0.6662  0.3692 -0.0014
 1593TIP3   OH226269   4.864   5.413   2.816  0.2536 -0.6443  0.2132
 1593TIP3    H126270   4.919   5.491   2.808  1.3455 -1.3576  0.4041
 1593TIP3    H226271   4.774   5.445   2.812  0.6075  0.9203  2.7065
 1594TIP3   OH226272   6.522   0.470   4.406 -0.1819  0.0337  0.2692
 1594TIP3    H126273   6.579   0.508   4.473  1.0439 -0.4598 -0.4692
 1594TIP3    H226274   6.490   0.389   4.444 -4.1142  2.3307  2.5314
 1595TIP3   OH226275   6.221   4.809  13.097  0.0891  0.4196  0.1921
 1595TIP3    H126276   6.185   4.744  13.036 -0.3716 -0.1109  1.0154
 1595TIP3    H226277   6.211   4.769  13.183  1.5990  0.7593  0.5560
 1596TIP3   OH226278   4.779   3.624   3.009  0.0998 -0.4997 -0.0903
 1596TIP3    H126279   4.691   3.649   3.039  0.5087  0.3002  0.4801
 1596TIP3    H226280   4.816   3.705   2.974  1.6495 -0.0875  2.2734
 1597TIP3   OH226281   0.731   5.579   1.405  0.4142  0.1633  0.3501
 1597TIP3    H126282   0.744   5.513   1.473  3.1192  0.5501  0.3368
 1597TIP3    H226283   0.807   5.637   1.414 -0.8192  2.0867 -0.9568
 1598TIP3   OH226284   1.771   6.449   5.246 -0.2865 -0.2294  0.4218
 1598TIP3    H126285   1.726   6.380   5.295 -0.7336 -0.3331 -0.1164
 1598TIP3    H226286   1.711   6.524   5.250 -1.5893 -0.9961 -2.0773
 1599TIP3   OH226287   4.854   3.169  14.827 -0.0468 -0.5717  0.7265
 1599TIP3    H126288   4.864   3.261  14.803  2.1210 -0.5695  1.3784
 1599TIP3    H226289   4.943   3.135  14.826 -0.9321 -3.1325 -1.1559
 1600TIP3   OH226290   1.219   5.588   4.204 -0.7979 -0.1804 -0.2495
 1600TIP3    H126291   1.178   5.512   4.246 -0.7766 -0.2118 -0.2846
 1600TIP3    H226292   1.287   5.616   4.265  0.4933 -1.3705 -1.0649
 1601TIP3   OH226293   3.507   1.116   3.297 -0.0826 -0.0148  0.3325
 1601TIP3    H126294   3.592   1.153   3.318 -0.4602  0.6051  0.8187
 1601TIP3    H226295   3.521   1.066   3.217  0.5346  0.8443 -0.1108
 1602TIP3   OH226296   5.878   0.224   1.815 -0.3206 -0.1444  0.1594
 1602TIP3    H126297   5.885   0.209   1.721 -1.9336  0.8957 -0.1586
 1602TIP3    H226298   5.884   0.319   1.825 -0.8252 -0.1977  1.0420
 1603TIP3   OH226299   0.665   1.677   4.793 -0.6356  0.2356  0.5756
 1603TIP3    H126300   0.686   1.756   4.743 -1.4102  1.9792  2.8315
 1603TIP3    H226301   0.570   1.671   4.791 -0.5563 -1.2193 -0.3293
 1604TIP3   OH226302   5.144   0.347  16.362 -0.2956 -0.1794 -0.3346
 1604TIP3    H126303   5.055   0.334  16.394 -0.0678 -0.1636  0.3199
 1604TIP3    H226304   5.200   0.309  16.429  0.2471  1.0276 -0.0717
 1605TIP3   OH226305   4.111   3.972  15.586  0.1204 -0.2373  0.9099
 1605TIP3    H126306   4.149   3.968  15.498 -1.2788 -1.5378  0.3174
 1605TIP3    H226307   4.158   3.905  15.636  1.0089  0.5934  1.2285
 1606TIP3   OH226308   1.540   5.228  13.052 -0.1779  0.3568  0.5809
 1606TIP3    H126309   1.512   5.146  13.092 -0.2157  0.8485  1.5986
 1606TIP3    H226310   1.628   5.242  13.087  0.8709 -0.4942 -1.5415
 1607TIP3   OH226311   3.502   2.323   4.671 -0.3813  0.2090  0.6786
 1607TIP3    H126312   3.460   2.366   4.745 -0.2184  0.2697  0.7356
 1607TIP3    H226313   3.565   2.263   4.710 -1.2193 -0.7336  0.6295
 1608TIP3   OH226314   3.571   1.672  17.030  0.5876 -0.0790 -0.0080
 1608TIP3    H126315   3.515   1.619  17.087  1.9568  0.4522  1.9437
 1608TIP3    H226316   3.549   1.762  17.054 -0.4755  0.2633 -2.0562
 1609TIP3   OH226317   4.367   3.086  13.151  0.2860  0.5187 -0.4916
 1609TIP3    H126318   4.332   3.005  13.115  0.9972  0.2585 -0.6263
 1609TIP3    H226319   4.461   3.070  13.157  0.7525  2.0325 -2.4901
 1610TIP3   OH226320   0.651   3.430  12.824 -0.2600  0.2955 -0.3748
 1610TIP3    H126321   0.731   3.452  12.871 -0.6009  0.9367 -0.0729
 1610TIP3    H226322   0.658   3.336  12.807 -0.0979  0.0575  0.8934
 1611TIP3   OH226323   3.745   0.040   1.698  0.0742 -0.0198 -0.3371
 1611TIP3    H126324   3.831   0.043   1.741  0.6797  0.0087 -1.5240
 1611TIP3    H226325   3.762   0.006   1.610 -1.2072 -0.4827 -0.4316
 1612TIP3   OH226326   5.432   2.616  16.833  0.0699 -0.2425 -0.1484
 1612TIP3    H126327   5.423   2.527  16.799 -0.2572  0.4455 -1.9654
 1612TIP3    H226328   5.525   2.638  16.818  0.4031 -0.6189  1.2420
 1613TIP3   OH226329   3.964   5.991  14.792 -0.0120  0.1265  0.4146
 1613TIP3    H126330   3.900   5.996  14.864  0.3091  1.1176  0.6613
 1613TIP3    H226331   3.924   6.043  14.722 -1.7738 -3.3415 -1.3779
 1614TIP3   OH226332   6.684   1.590  11.398  0.4748  0.0570 -0.3292
 1614TIP3    H126333   6.708   1.501  11.425 -0.4008  0.0687  0.5547
 1614TIP3    H226334   6.733   1.605  11.317  1.7687 -0.6918  0.2737
 1615TIP3   OH226335   6.609   3.096  12.131 -0.3335 -0.1972 -0.1365
 1615TIP3    H126336   6.524   3.096  12.175 -0.6458  1.0469 -0.7118
 1615TIP3    H226337   6.590   3.068  12.042 -0.0179 -0.6313 -0.0721
 1616TIP3   OH226338   4.883   0.386   6.216 -0.1551  0.8641  0.3783
 1616TIP3    H126339   4.927   0.377   6.131 -0.4967 -1.6367  0.3892
 1616TIP3    H226340   4.949   0.427   6.273  0.4458  1.5861 -0.7917
 1617TIP3   OH226341   3.754   1.269   5.708  0.4438  0.0446 -1.0806
 1617TIP3    H126342   3.783   1.195   5.762 -0.4545  0.2782 -0.2396
 1617TIP3    H226343   3.804   1.261   5.628  3.3252  0.7939  0.5133
 1618TIP3   OH226344   4.039   6.686   4.717 -0.3813  0.3627 -0.6946
 1618TIP3    H126345   3.975   6.709   4.785 -0.9693 -1.2795 -0.6651
 1618TIP3    H226346   4.086   6.768   4.701 -0.1701  0.7969  1.7485
 1619TIP3   OH226347   5.327   2.830  16.997  0.5628  0.3360 -0.0564
 1619TIP3    H126348   5.377   2.783  16.931 -0.0740 -1.3523  0.5883
 1619TIP3    H226349   5.368   2.805  17.080 -1.4395 -1.3762  0.5204
 1620TIP3   OH226350   6.164   2.458   0.925 -0.3016 -0.6313  0.3405
 1620TIP3    H126351   6.179   2.530   0.987  0.2782 -1.1791  0.8476
 1620TIP3    H226352   6.162   2.501   0.839  2.2567 -0.2292  0.4022
 1621TIP3   OH226353   2.471   1.028   4.585 -0.1325 -0.1193 -0.3985
 1621TIP3    H126354   2.522   1.108   4.570 -4.1260  3.3902  2.3092
 1621TIP3    H226355   2.504   0.993   4.667  0.7642 -0.5677 -0.9328
 1622TIP3   OH226356   6.482   4.383  16.932  0.1033  0.3220  0.4059
 1622TIP3    H126357   6.491   4.382  16.836  0.2618 -1.2248  0.4086
 1622TIP3    H226358   6.488   4.291  16.957  1.0476  0.7906  2.0178
 1623TIP3   OH226359   5.506   1.455   5.030 -0.2279  0.2318 -0.0067
 1623TIP3    H126360   5.460   1.509   5.094  1.3087 -1.1609  2.4060
 1623TIP3    H226361   5.577   1.511   4.998  0.7563  0.0370  1.7358
 1624TIP3   OH226362   4.244   0.334   6.107 -0.9231  0.0261 -0.2170
 1624TIP3    H126363   4.285   0.362   6.189 -2.0544 -1.4387  0.9217
 1624TIP3    H226364   4.218   0.416   6.064  1.0483  0.8822  0.1070
 1625TIP3   OH226365   2.071   6.267   0.708  0.0166  0.0961  0.1855
 1625TIP3    H126366   2.160   6.234   0.695  0.3723  1.2987 -0.4775
 1625TIP3    H226367   2.023   6.191   0.743  1.1350 -0.7415 -0.0400
 1626TIP3   OH226368   2.237   1.367   0.168 -0.0284 -0.5834 -0.0633
 1626TIP3    H126369   2.284   1.325   0.239  0.2055 -0.3502 -0.0789
 1626TIP3    H226370   2.277   1.454   0.160 -0.5544 -0.3248  0.0218
 1627TIP3   OH226371   6.516   3.485  15.255 -0.1863  0.0576 -0.0245
 1627TIP3    H126372   6.427   3.515  15.276  0.2407  1.2857  0.1033
 1627TIP3    H226373   6.566   3.566  15.240  0.4860 -0.6512 -1.9239
 1628TIP3   OH226374   0.982   2.707  16.355  0.6481  0.2778 -0.1018
 1628TIP3    H126375   0.983   2.790  16.404  1.3292  0.5954 -0.6202
 1628TIP3    H226376   1.016   2.643  16.417 -1.2234  0.0703  0.7805
 1629TIP3   OH226377   2.409   0.712   1.065 -0.0840  0.5019 -0.0317
 1629TIP3    H126378   2.499   0.679   1.068 -0.6672 -1.0807  1.4832
 1629TIP3    H226379   2.358   0.640   1.029 -1.0457  0.6031  1.0779
 1630TIP3   OH226380   1.577   4.722   4.823  0.1671 -0.5241 -0.4035
 1630TIP3    H126381   1.519   4.696   4.894 -0.8068 -0.8976 -1.3119
 1630TIP3    H226382   1.653   4.760   4.867 -0.2417 -1.0942  0.8410
 1631TIP3   OH226383   3.405   5.036  13.413 -0.2826 -0.1522 -0.4961
 1631TIP3    H126384   3.480   4.977  13.416  0.7545  0.7760 -3.8228
 1631TIP3    H226385   3.333   4.982  13.383  0.2443 -0.1313 -1.8577
 1632TIP3   OH226386   6.792   5.216  15.867  0.2782 -0.0600  0.0803
 1632TIP3    H126387   6.802   5.197  15.960  0.2209 -0.1413  0.0701
 1632TIP3    H226388   6.868   5.176  15.826 -0.1594 -0.8069 -0.0179
 1633TIP3   OH226389   5.491   2.279   1.913  0.2205 -0.2251 -0.0454
 1633TIP3    H126390   5.412   2.318   1.950  0.5507  1.1700 -0.7408
 1633TIP3    H226391   5.468   2.187   1.899 -1.4010  0.2223 -0.5307
 1634TIP3   OH226392   5.954   2.845   2.777  0.5802 -0.1731 -0.2675
 1634TIP3    H126393   5.949   2.940   2.766 -0.7749 -0.3906 -1.8741
 1634TIP3    H226394   5.920   2.830   2.865 -0.4531  0.7650 -0.4713
 1635TIP3   OH226395   5.348   6.741  16.189 -0.0589 -0.2174  0.2237
 1635TIP3    H126396   5.306   6.742  16.275  0.1265 -1.6896  0.3553
 1635TIP3    H226397   5.302   6.808  16.139  0.8906  1.8135  1.9428
 1636TIP3   OH226398   2.667   3.996  12.058 -0.3990  0.2875 -0.2679
 1636TIP3    H126399   2.638   3.956  12.139  0.8420  1.5086  0.8230
 1636TIP3    H226400   2.763   3.991  12.061 -0.3246 -0.9687 -2.3581
 1637TIP3   OH226401   1.250   0.386   5.007 -0.4487  0.0193  0.2114
 1637TIP3    H126402   1.172   0.417   4.961  1.2967  0.1349 -3.0280
 1637TIP3    H226403   1.256   0.293   4.984  1.5256  0.5186 -1.6634
 1638TIP3   OH226404   5.429   3.171   3.898  0.0838 -0.6465  0.0388
 1638TIP3    H126405   5.514   3.191   3.939 -0.0114 -2.4778  1.2559
 1638TIP3    H226406   5.398   3.093   3.944 -2.3139  0.0016 -0.3328
 1639TIP3   OH226407   0.495   1.329   1.264  0.0434 -0.3323 -0.5659
 1639TIP3    H126408   0.502   1.240   1.300 -0.3249 -0.1103  0.0844
 1639TIP3    H226409   0.427   1.323   1.198  0.3416 -0.6345 -0.8464
 1640TIP3   OH226410   5.663   6.223  11.102  0.3428  0.8640 -0.4960
 1640TIP3    H126411   5.614   6.145  11.128 -0.0929  1.1803 -0.3458
 1640TIP3    H226412   5.729   6.191  11.041  1.4075  0.0917  1.0019
 1641TIP3   OH226413   1.436   3.184   3.734  0.3385 -0.3846  0.0159
 1641TIP3    H126414   1.359   3.146   3.693  0.7930 -0.9102 -0.3680
 1641TIP3    H226415   1.485   3.223   3.662  1.0022 -1.0732  0.0805
 1642TIP3   OH226416   2.097   5.056  12.841  0.2849 -0.0820 -0.0777
 1642TIP3    H126417   2.037   4.981  12.839 -0.8175  0.7932 -0.6780
 1642TIP3    H226418   2.178   5.020  12.879  0.4354 -2.0560 -2.0443
 1643TIP3   OH226419   4.846   6.151   3.498  0.0193  0.4871 -0.1498
 1643TIP3    H126420   4.842   6.210   3.574 -0.6234 -0.1901  0.3594
 1643TIP3    H226421   4.776   6.182   3.441  1.3823  1.8758 -1.1590
 1644TIP3   OH226422   0.059   4.612   4.733 -0.0639 -0.2413  0.4085
 1644TIP3    H126423   0.004   4.536   4.714  0.3795 -0.5610  0.3999
 1644TIP3    H226424   0.106   4.629   4.651 -2.3462  1.9041 -0.6125
 1645TIP3   OH226425   2.348   6.012  16.534  0.3112  0.0444 -0.2175
 1645TIP3    H126426   2.430   5.996  16.580 -0.6557  0.0209  1.5598
 1645TIP3    H226427   2.352   5.954  16.457  1.2340 -1.1867  0.7231
 1646TIP3   OH226428   6.530   5.885   3.758 -0.1270 -0.4722 -0.8697
 1646TIP3    H126429   6.442   5.920   3.742  0.2698  1.6219  1.1428
 1646TIP3    H226430   6.520   5.831   3.836  0.3808 -0.2389 -0.6439
 1647TIP3   OH226431   6.041   4.621  14.156 -0.0056  0.0474 -0.6102
 1647TIP3    H126432   6.130   4.628  14.190 -0.3439 -1.8621  0.9002
 1647TIP3    H226433   6.017   4.529  14.171 -1.9383  0.3055 -1.7430
 1648TIP3   OH226434   5.532   3.183  12.055 -0.0283 -0.4315 -0.2258
 1648TIP3    H126435   5.439   3.200  12.040 -0.0651 -1.6545 -1.5817
 1648TIP3    H226436   5.534   3.120  12.127 -0.2475 -0.3931 -0.1838
 1649TIP3   OH226437   3.186   2.839  11.071  0.9497 -0.4454  0.2556
 1649TIP3    H126438   3.204   2.895  11.147 -0.4153 -0.0535  0.2989
 1649TIP3    H226439   3.226   2.755  11.095  0.1886 -0.4508  1.6022
 1650TIP3   OH226440   0.547   1.320  13.128  0.3404  0.2753 -0.1372
 1650TIP3    H126441   0.569   1.337  13.220  0.3098  0.2582 -0.1265
 1650TIP3    H226442   0.497   1.238  13.130 -1.1443  1.1482  0.0210
 1651TIP3   OH226443   0.907   5.326   4.465 -0.0801 -0.1749  0.1625
 1651TIP3    H126444   0.982   5.384   4.477 -0.8212  0.4956  1.8499
 1651TIP3    H226445   0.924   5.252   4.524 -2.4576  1.8127  3.6716
 1652TIP3   OH226446   0.660   6.254   0.082  0.0976  0.2076 -0.4885
 1652TIP3    H126447   0.599   6.318   0.048  0.5613  0.8447 -0.1398
 1652TIP3    H226448   0.654   6.263   0.177  1.6392  1.1723 -0.4488
 1653TIP3   OH226449   0.560   3.583  13.316  0.2599  0.1336 -0.3334
 1653TIP3    H126450   0.543   3.671  13.284  1.4930  0.2862 -0.6366
 1653TIP3    H226451   0.528   3.524  13.248  0.7450  0.3949 -0.7898
 1654TIP3   OH226452   4.016   2.117  13.894  0.0431  0.0177 -0.2694
 1654TIP3    H126453   3.947   2.184  13.895 -0.0768 -0.1060 -0.3208
 1654TIP3    H226454   3.991   2.058  13.823  0.7535  0.5517 -0.9882
 1655TIP3   OH226455   6.825   5.411   2.891  0.2804 -0.0630  0.2909
 1655TIP3    H126456   6.860   5.324   2.874 -2.4759 -1.6250  1.8448
 1655TIP3    H226457   6.790   5.407   2.980 -0.3120  2.5087  0.2717
 1656TIP3   OH226458   6.085   5.124  12.464 -0.2708 -0.0010  0.2835
 1656TIP3    H126459   6.051   5.129  12.554  0.3449 -1.6789  0.6389
 1656TIP3    H226460   6.038   5.051  12.424 -1.5024  1.5347 -1.2439
 1657TIP3   OH226461   2.890   4.816  13.328 -0.4351 -0.0031 -0.0084
 1657TIP3    H126462   2.795   4.829  13.330 -0.2659  1.8800 -1.1307
 1657TIP3    H226463   2.923   4.867  13.401 -0.2290  0.0356 -0.1277
 1658TIP3   OH226464   3.098   0.041  16.481  0.0684  0.1395 -0.1491
 1658TIP3    H126465   3.152   0.085  16.546 -0.7682 -0.8096  1.2358
 1658TIP3    H226466   3.010   0.040  16.519 -0.5515  0.0219 -1.5310
 1659TIP3   OH226467   6.514   6.342  11.711 -0.7906  0.4183 -0.1429
 1659TIP3    H126468   6.509   6.396  11.632 -0.4008 -0.5573 -0.8483
 1659TIP3    H226469   6.439   6.370  11.764 -1.3301  0.7612 -1.0678
 1660TIP3   OH226470   2.085   5.094   6.201  0.7961 -0.7999  0.0409
 1660TIP3    H126471   1.999   5.087   6.243  0.2389  2.7876 -0.1722
 1660TIP3    H226472   2.142   5.129   6.269  1.8562 -2.1489 -0.1272
 1661TIP3   OH226473   4.095   5.277  16.041 -0.6218 -0.4979 -1.2201
 1661TIP3    H126474   4.000   5.267  16.042 -0.6597 -0.8072 -3.1643
 1661TIP3    H226475   4.130   5.189  16.056 -0.6569 -0.5318 -1.3389
 1662TIP3   OH226476   5.139   6.742   5.036  0.3336  0.5566 -0.0925
 1662TIP3    H126477   5.120   6.752   5.129 -2.1958 -2.0286 -0.1910
 1662TIP3    H226478   5.078   6.802   4.993  0.0689  0.2707 -0.1200
 1663TIP3   OH226479   4.857   5.113   0.251 -0.4267  0.3667 -0.4466
 1663TIP3    H126480   4.829   5.205   0.247  0.2200  0.5336 -1.4126
 1663TIP3    H226481   4.866   5.087   0.160  1.6518  0.0333 -0.1883
 1664TIP3   OH226482   5.040   3.386  15.302 -0.4439 -0.6432  0.0319
 1664TIP3    H126483   5.103   3.320  15.273 -1.0971 -1.3327  0.1282
 1664TIP3    H226484   4.960   3.336  15.319 -0.9583  0.1826  0.0977
 1665TIP3   OH226485   2.441   3.225  15.729 -0.0328 -0.1699 -0.2706
 1665TIP3    H126486   2.405   3.222  15.817 -2.3043  0.5789 -1.0812
 1665TIP3    H226487   2.482   3.139  15.716 -1.0808 -0.8921  0.9548
 1666TIP3   OH226488   1.034   4.672   3.812  0.2814 -0.1416  0.3899
 1666TIP3    H126489   0.951   4.718   3.820 -0.3800 -1.0576 -0.8952
 1666TIP3    H226490   1.097   4.740   3.790 -0.4728  0.3229 -0.4062
 1667TIP3   OH226491   2.385   6.277   4.200 -0.1923  0.5534 -0.1634
 1667TIP3    H126492   2.333   6.252   4.277 -0.2972 -1.6413 -0.8616
 1667TIP3    H226493   2.447   6.342   4.232 -0.7797  0.2962  1.5913
 1668TIP3   OH226494   4.879   0.859   2.320  0.4595  0.3372  0.2136
 1668TIP3    H126495   4.937   0.867   2.396 -0.2132 -0.1498  0.7859
 1668TIP3    H226496   4.938   0.834   2.248  1.2641  1.8507  0.3104
 1669TIP3   OH226497   2.218   6.412   1.994 -0.3505  0.3787 -0.2775
 1669TIP3    H126498   2.271   6.418   1.914  1.1450 -1.6291  0.4737
 1669TIP3    H226499   2.186   6.321   1.994  2.2408 -0.7063  2.8381
 1670TIP3   OH226500   1.936   1.589   0.665  0.0479 -0.5745 -0.3605
 1670TIP3    H126501   1.892   1.658   0.616  1.4420  0.8666  0.3218
 1670TIP3    H226502   1.889   1.509   0.643 -2.7344  0.8183  0.1489
 1671TIP3   OH226503   2.039   4.432  11.552 -0.8458 -0.0184 -0.0675
 1671TIP3    H126504   2.041   4.344  11.589 -1.3558 -0.6670 -1.4970
 1671TIP3    H226505   2.120   4.438  11.500 -1.3365 -0.0605 -0.8485
 1672TIP3   OH226506   4.090   3.043  16.999 -0.7869 -0.2692 -0.0470
 1672TIP3    H126507   4.171   3.010  16.958 -0.5773  1.2015 -0.8707
 1672TIP3    H226508   4.120   3.106  17.064 -1.2821  0.4765 -0.5345
 1673TIP3   OH226509   4.948   2.953   0.889 -0.2077 -0.8306  0.6597
 1673TIP3    H126510   4.960   2.865   0.926 -1.9213 -1.0049  0.9161
 1673TIP3    H226511   4.860   2.950   0.850  0.9188 -0.1716 -2.1236
 1674TIP3   OH226512   3.099   1.581  16.283  0.5968  0.3148 -0.1922
 1674TIP3    H126513   3.064   1.629  16.207 -1.6384  2.3310  1.9179
 1674TIP3    H226514   3.035   1.512  16.299  0.7140  0.3017  0.2287
 1675TIP3   OH226515   3.533   3.563  10.967 -0.0732  0.9166 -0.3599
 1675TIP3    H126516   3.532   3.568  10.871 -2.2032  0.7831 -0.3794
 1675TIP3    H226517   3.573   3.478  10.986 -1.2231  0.1645 -1.1952
 1676TIP3   OH226518   6.464   3.957  14.599  0.1840  0.1639  0.0817
 1676TIP3    H126519   6.469   4.050  14.575  0.6355 -0.1689 -1.1892
 1676TIP3    H226520   6.487   3.910  14.519  0.3762 -1.0461  0.8171
 1677TIP3   OH226521   5.062   0.911   2.522 -0.5292 -0.2814 -0.2259
 1677TIP3    H126522   5.058   0.828   2.570  0.6595  0.7684  1.8937
 1677TIP3    H226523   5.155   0.933   2.522 -1.0297  2.2224  1.5494
 1678TIP3   OH226524   0.233   5.486   1.650  0.3332  0.5470  0.2747
 1678TIP3    H126525   0.300   5.539   1.694  0.0968  2.3327 -1.3580
 1678TIP3    H226526   0.279   5.406   1.624  0.3299 -0.9085  4.1591
 1679TIP3   OH226527   0.165   0.226   5.533 -0.5702  0.1803  0.2339
 1679TIP3    H126528   0.177   0.317   5.562  0.7586  0.0744  0.0693
 1679TIP3    H226529   0.240   0.208   5.478 -2.3279 -0.0845 -2.2576
 1680TIP3   OH226530   6.407   1.119  14.942 -0.1888 -0.0672  0.0859
 1680TIP3    H126531   6.344   1.145  15.010  2.1462  0.6257  2.1285
 1680TIP3    H226532   6.427   1.027  14.963  0.7398  0.2282  0.5598
 1681TIP3   OH226533   4.926   4.715  12.667  0.0042  0.3842 -0.3897
 1681TIP3    H126534   4.976   4.714  12.585 -0.4300 -0.7227 -0.6564
 1681TIP3    H226535   4.868   4.791  12.658  0.8012  0.9991 -0.5690
 1682TIP3   OH226536   1.491   4.889  16.912  0.2078 -0.2927  0.0954
 1682TIP3    H126537   1.584   4.871  16.916  0.5164  0.1587 -2.8238
 1682TIP3    H226538   1.459   4.833  16.841 -1.7245 -0.3202  0.9265
 1683TIP3   OH226539   1.650   3.511   2.789  0.0099  0.2941  0.2841
 1683TIP3    H126540   1.697   3.595   2.785  0.8350 -0.1132  0.9408
 1683TIP3    H226541   1.701   3.452   2.734  0.3361 -0.1693  1.0526
 1684TIP3   OH226542   6.551   1.974  16.490 -0.0906 -0.3825  0.5820
 1684TIP3    H126543   6.626   1.915  16.499  1.5428  1.2277 -1.6552
 1684TIP3    H226544   6.579   2.056  16.531 -1.0513 -0.0852  0.6714
 1685TIP3   OH226545   0.303   2.393  14.733  0.3131  0.2902 -0.3974
 1685TIP3    H126546   0.379   2.368  14.784  0.8609  0.6757 -1.0086
 1685TIP3    H226547   0.290   2.322  14.671  1.5964  1.2544 -1.8324
 1686TIP3   OH226548   3.966   4.742  13.821 -0.0310 -0.3605  0.2193
 1686TIP3    H126549   3.977   4.730  13.727 -1.1290  0.2991 -0.0086
 1686TIP3    H226550   3.929   4.829  13.830  0.3057 -0.3142  1.2939
 1687TIP3   OH226551   2.556   2.119   5.430 -0.1045  0.1489 -0.0804
 1687TIP3    H126552   2.594   2.183   5.490  0.9889 -0.3030 -0.2665
 1687TIP3    H226553   2.572   2.035   5.472  0.8089 -0.1883 -1.0398
 1688TIP3   OH226554   3.982   3.203   3.707  0.1268  0.4380  0.0273
 1688TIP3    H126555   3.958   3.184   3.798 -0.6075 -1.2248 -0.4744
 1688TIP3    H226556   3.967   3.120   3.661 -0.0827  1.4138 -1.7235
 1689TIP3   OH226557   1.378   5.241   0.045  0.3353 -0.6481  0.0103
 1689TIP3    H126558   1.386   5.335   0.031  0.1238 -0.7409 -0.7717
 1689TIP3    H226559   1.459   5.204   0.011 -0.6541 -0.9857 -2.1499
 1690TIP3   OH226560   1.380   4.707  16.041 -0.7338 -0.2650  0.4925
 1690TIP3    H126561   1.407   4.643  16.107 -0.5804 -0.2922  0.4035
 1690TIP3    H226562   1.287   4.689  16.027 -0.6947 -0.4602  0.4787
 1691TIP3   OH226563   4.522   4.033  16.634 -0.5275  0.1430 -0.2008
 1691TIP3    H126564   4.446   4.029  16.577 -1.8827 -1.1022  1.5770
 1691TIP3    H226565   4.499   4.098  16.700  1.1256  1.7691 -1.1497
 1692TIP3   OH226566   1.182   2.372  13.060 -0.4799 -0.3047  0.6341
 1692TIP3    H126567   1.191   2.287  13.018 -1.0729 -0.9448  1.7716
 1692TIP3    H226568   1.088   2.383  13.073 -0.5551  1.1922 -0.8040
 1693TIP3   OH226569   4.729   3.798  11.745 -0.7726  0.1082 -0.3113
 1693TIP3    H126570   4.749   3.876  11.694  1.1948 -0.5488 -0.6508
 1693TIP3    H226571   4.656   3.757  11.700  1.3291 -0.8450 -3.1654
 1694TIP3   OH226572   3.334   0.639  16.349  0.3971 -0.2210  0.0982
 1694TIP3    H126573   3.267   0.679  16.404 -0.7591 -0.5322 -1.0307
 1694TIP3    H226574   3.310   0.663  16.260  2.2914  0.3844 -0.3106
 1695TIP3   OH226575   5.020   4.848   5.601  0.5653 -0.5441 -0.2506
 1695TIP3    H126576   4.951   4.785   5.581  1.8216 -2.3548  0.8515
 1695TIP3    H226577   4.988   4.896   5.677  0.5230 -1.3837  0.2632
 1696TIP3   OH226578   0.373   1.789   4.770  0.2891  0.6648 -0.3870
 1696TIP3    H126579   0.402   1.870   4.728 -0.5977  1.5463  0.6085
 1696TIP3    H226580   0.285   1.774   4.735  0.2227  0.4664 -0.1402
 1697TIP3   OH226581   1.134   0.302  12.664  0.2197 -0.5530  0.3096
 1697TIP3    H126582   1.219   0.284  12.705  0.5874 -0.6774 -0.4780
 1697TIP3    H226583   1.116   0.223  12.613  0.4231  0.1166 -0.8265
 1698TIP3   OH226584   5.527   1.935   5.905  0.3821  0.1407  0.5289
 1698TIP3    H126585   5.516   2.006   5.842 -0.5930  0.9266  1.5600
 1698TIP3    H226586   5.535   1.978   5.990  0.2154 -0.9498  1.1205
 1699TIP3   OH226587   6.728   6.269   3.222  0.0428 -0.0881  0.1092
 1699TIP3    H126588   6.792   6.337   3.200  1.2680 -1.3339 -0.2927
 1699TIP3    H226589   6.688   6.300   3.303 -0.5084  1.8268 -0.8173
 1700TIP3   OH226590   6.300   5.589  16.496  0.1695 -0.2690  0.1714
 1700TIP3    H126591   6.328   5.499  16.482  2.8237  0.3977  0.6961
 1700TIP3    H226592   6.301   5.599  16.592  0.5902  0.4989  0.0921
 1701TIP3   OH226593   4.180   5.894   0.090  0.0357 -0.1153 -0.0985
 1701TIP3    H126594   4.151   5.963   0.031 -0.1158  0.2669  0.4139
 1701TIP3    H226595   4.121   5.901   0.165  1.9175  1.2220  1.3701
 1702TIP3   OH226596   4.717   2.730   5.596 -0.1510 -0.4624 -0.3995
 1702TIP3    H126597   4.735   2.637   5.605  1.2426 -0.2185 -0.4063
 1702TIP3    H226598   4.656   2.736   5.522 -0.0191 -1.3425 -0.5902
 1703TIP3   OH226599   2.214   2.185  10.659  0.6686  0.1382 -0.2574
 1703TIP3    H126600   2.230   2.126  10.732 -0.3536  0.3812  0.1832
 1703TIP3    H226601   2.301   2.218  10.635  0.8014  3.0473  3.3850
 1704TIP3   OH226602   0.208   5.937  15.596 -0.6719  0.8858 -0.2641
 1704TIP3    H126603   0.207   5.870  15.664  0.3920  1.5732  0.4823
 1704TIP3    H226604   0.142   5.910  15.533 -1.1480 -0.1795  0.6633
 1705TIP3   OH226605   0.660   3.349   5.533  0.4195  0.3778  0.2974
 1705TIP3    H126606   0.614   3.350   5.449  0.7154  0.8549  0.1354
 1705TIP3    H226607   0.604   3.298   5.591  0.3102 -0.1313 -0.2469
 1706TIP3   OH226608   5.114   4.706  13.136 -0.3130 -0.6666  0.4408
 1706TIP3    H126609   5.131   4.612  13.140  0.5896 -0.5164  0.4256
 1706TIP3    H226610   5.139   4.739  13.223  0.8382 -0.2373 -0.0201
 1707TIP3   OH226611   4.566   4.088   3.936  0.2807 -0.3148  0.2709
 1707TIP3    H126612   4.660   4.084   3.956  0.7969  0.0200 -1.7810
 1707TIP3    H226613   4.524   4.036   4.003  1.7965  0.6430  2.0566
 1708TIP3   OH226614   1.944   6.277   5.119  0.2483 -0.2212  0.6379
 1708TIP3    H126615   1.990   6.238   5.194  1.4737  0.6303  0.3516
 1708TIP3    H226616   1.899   6.353   5.155  0.2083 -0.2497  0.6486
 1709TIP3   OH226617   6.039   0.290   6.452  0.5320  0.1114  0.8460
 1709TIP3    H126618   6.035   0.312   6.359  0.1046  1.2872  1.1221
 1709TIP3    H226619   6.089   0.209   6.455  0.4157 -0.0379 -0.4204
 1710TIP3   OH226620   5.520   2.658   0.966 -0.6565 -0.5374 -0.3459
 1710TIP3    H126621   5.570   2.657   0.885 -2.1254 -0.2620 -1.2969
 1710TIP3    H226622   5.496   2.750   0.978  0.5464 -0.3835  1.0611
 1711TIP3   OH226623   5.810   5.288   4.144  0.3175  0.5765 -0.3637
 1711TIP3    H126624   5.817   5.285   4.048 -0.2809  1.4594 -0.4473
 1711TIP3    H226625   5.864   5.215   4.174  0.6644  0.4002 -1.3674
 1712TIP3   OH226626   5.900   4.887   3.304 -0.5342  0.2777 -0.1201
 1712TIP3    H126627   5.869   4.972   3.336 -1.5217  1.5314 -3.8748
 1712TIP3    H226628   5.826   4.852   3.254 -0.4341 -3.2854  1.8810
 1713TIP3   OH226629   0.109   4.155  13.251  0.5057 -0.4225 -0.6347
 1713TIP3    H126630   0.153   4.113  13.177  0.3566 -1.4818 -0.1412
 1713TIP3    H226631   0.130   4.100  13.326  0.0722  0.2421 -0.0111
 1714TIP3   OH226632   1.727   0.514   0.554 -0.2697  0.3591  0.7471
 1714TIP3    H126633   1.684   0.535   0.471 -2.0391  2.6086  2.1427
 1714TIP3    H226634   1.712   0.420   0.566 -1.5835  0.3717 -0.5757
 1715TIP3   OH226635   3.666   5.343  11.601 -0.6811  0.2552  0.7099
 1715TIP3    H126636   3.636   5.258  11.568  1.9023 -0.2623 -0.6401
 1715TIP3    H226637   3.637   5.405  11.534 -0.8137  0.1067  0.6278
 1716TIP3   OH226638   5.042   4.691   4.728 -0.5083  0.1908  0.6486
 1716TIP3    H126639   5.029   4.783   4.704 -0.2374 -0.2059 -1.1569
 1716TIP3    H226640   4.965   4.670   4.782 -0.1898  1.6494  1.7638
 1717TIP3   OH226641   6.765   1.651  11.166 -0.0154 -0.0462 -0.1766
 1717TIP3    H126642   6.791   1.595  11.093  0.4352 -0.5015  0.3316
 1717TIP3    H226643   6.682   1.690  11.138  0.0950 -0.3090 -0.8809
 1718TIP3   OH226644   6.584   0.776  15.687  0.6813 -0.4321 -0.6106
 1718TIP3    H126645   6.656   0.782  15.749  0.2230  0.4804 -0.1335
 1718TIP3    H226646   6.522   0.715  15.727  0.2828  0.3279 -0.0438
 1719TIP3   OH226647   2.507   1.186  16.076 -1.0198  0.2808 -0.2002
 1719TIP3    H126648   2.440   1.190  16.144 -3.6494  0.8358 -2.6546
 1719TIP3    H226649   2.532   1.093  16.072 -1.7667  0.0394  0.6253
 1720TIP3   OH226650   6.359   3.732   2.950 -0.1167  0.0814  0.1174
 1720TIP3    H126651   6.349   3.645   2.913  0.6555 -0.3617  0.9089
 1720TIP3    H226652   6.433   3.770   2.902  0.0481  0.0015  0.3071
 1721TIP3   OH226653   2.318   3.580   1.946  0.0850  0.2484  0.0744
 1721TIP3    H126654   2.407   3.590   1.982 -0.0854  1.2292  0.2487
 1721TIP3    H226655   2.327   3.603   1.854 -0.0340  0.5579  0.1414
 1722TIP3   OH226656   3.211   3.782  11.582 -0.7740 -0.4131  0.2626
 1722TIP3    H126657   3.163   3.862  11.559  0.0947  0.0898  0.1513
 1722TIP3    H226658   3.162   3.745  11.655 -2.4352 -0.9518 -1.0681
 1723TIP3   OH226659   5.679   6.824  15.199 -0.1038  0.1775 -0.2349
 1723TIP3    H126660   5.664   6.894  15.262  0.2785  0.1797 -0.1427
 1723TIP3    H226661   5.592   6.805  15.163 -0.2794  0.3804  0.0731
 1724TIP3   OH226662   4.621   3.014  13.154 -0.1072  0.8164 -0.0354
 1724TIP3    H126663   4.647   2.928  13.121  0.9702  0.6977  1.0371
 1724TIP3    H226664   4.700   3.048  13.196 -1.1359  1.3683  1.5131
 1725TIP3   OH226665   3.849   5.568   2.834 -0.9013 -0.5727  0.2425
 1725TIP3    H126666   3.796   5.500   2.877 -0.4840 -0.2945  1.2289
 1725TIP3    H226667   3.932   5.525   2.814 -0.5326 -0.2937  1.1239
 1726TIP3   OH226668   4.445   0.825   0.422  0.0398 -0.0900  0.1049
 1726TIP3    H126669   4.443   0.732   0.401 -0.0342  0.5029 -3.1869
 1726TIP3    H226670   4.370   0.861   0.374  0.3936  1.7443  0.8490
 1727TIP3   OH226671   3.638   2.282   1.551 -0.1814  0.3195  0.4752
 1727TIP3    H126672   3.572   2.245   1.610  1.8675 -1.2958  1.9032
 1727TIP3    H226673   3.636   2.225   1.474 -0.4467  0.3035  0.4916
 1728TIP3   OH226674   6.697   2.989  16.968 -0.7574  0.7237 -0.3384
 1728TIP3    H126675   6.611   3.015  17.003 -0.6482 -0.3929  0.8137
 1728TIP3    H226676   6.709   2.899  16.996  0.3406  0.4997 -1.4182
 1729TIP3   OH226677   4.179   5.395  14.927  0.0586 -0.1107 -0.0939
 1729TIP3    H126678   4.115   5.465  14.933  0.6743  0.4672 -0.0956
 1729TIP3    H226679   4.178   5.370  14.834 -0.5450 -0.4776  0.0089
 1730TIP3   OH226680   6.691   3.535   2.728 -0.3109 -0.1995  0.2832
 1730TIP3    H126681   6.735   3.457   2.761 -0.5389 -0.9051 -1.0219
 1730TIP3    H226682   6.668   3.514   2.638  1.4714  2.1086 -0.8435
 1731TIP3   OH226683   3.610   2.157   1.322  0.2177 -0.1265 -0.3476
 1731TIP3    H126684   3.527   2.157   1.275  1.4404  0.5104 -2.6618
 1731TIP3    H226685   3.673   2.193   1.260  2.1704 -0.2166  1.4613
 1732TIP3   OH226686   5.208   4.143   1.179 -0.4457 -0.4408  0.2288
 1732TIP3    H126687   5.214   4.061   1.229  0.7554  1.1281  2.9130
 1732TIP3    H226688   5.144   4.196   1.228  0.1531  0.8735 -0.3690
 1733TIP3   OH226689   4.801   2.818  13.269  0.2307  0.7048 -0.3954
 1733TIP3    H126690   4.858   2.790  13.341 -0.2242  0.1651 -0.2361
 1733TIP3    H226691   4.861   2.843  13.199  0.7060  2.1567  0.4929
 1734TIP3   OH226692   2.924   4.029   3.661  0.5104  0.1642  0.1637
 1734TIP3    H126693   3.014   3.996   3.671 -0.1956 -2.3278 -0.7729
 1734TIP3    H226694   2.883   3.966   3.601 -2.4610  0.0082  2.1736
 1735TIP3   OH226695   1.696   2.466  14.456  0.1691  0.1397 -0.2068
 1735TIP3    H126696   1.734   2.381  14.479 -0.7396 -0.7609 -1.8248
 1735TIP3    H226697   1.688   2.512  14.539 -0.6845 -1.9465  0.9405
 1736TIP3   OH226698   6.030   2.274  12.670  0.2024  0.2318 -0.8321
 1736TIP3    H126699   5.947   2.245  12.631 -1.2764  1.4644  1.1881
 1736TIP3    H226700   6.090   2.201  12.655 -0.7864 -0.1781 -3.5442
 1737TIP3   OH226701   5.791   1.631   0.949 -0.2091 -0.1374  0.3427
 1737TIP3    H126702   5.702   1.665   0.937  0.2176  1.0561  0.4702
 1737TIP3    H226703   5.818   1.605   0.861 -0.9026 -1.0874  0.3988
 1738TIP3   OH226704   1.331   0.968  12.802  1.1108  0.1620 -0.5671
 1738TIP3    H126705   1.387   1.026  12.750  1.8736 -0.7465 -0.7817
 1738TIP3    H226706   1.263   0.940  12.741  0.8953  0.6162 -0.5371
 1739TIP3   OH226707   3.730   6.556  11.957 -0.1297  0.1832  0.1536
 1739TIP3    H126708   3.646   6.516  11.980 -0.2683  1.2500  1.6665
 1739TIP3    H226709   3.735   6.549  11.862 -1.0108 -1.6498  0.2040
 1740TIP3   OH226710   0.860   0.653  12.505  0.1921  0.8489 -0.1477
 1740TIP3    H126711   0.819   0.567  12.508 -0.5985  1.2494  0.9691
 1740TIP3    H226712   0.949   0.636  12.474 -0.4359 -0.1641 -1.4866
 1741TIP3   OH226713   4.048   1.765   4.441 -0.3706 -0.5412 -0.1125
 1741TIP3    H126714   4.095   1.846   4.424  0.2885 -0.5935  1.3181
 1741TIP3    H226715   4.052   1.717   4.358  0.3395  0.3281 -0.5987
 1742TIP3   OH226716   0.744   2.712  14.470  0.2474  0.1676  0.1353
 1742TIP3    H126717   0.795   2.755  14.402  1.1198 -2.9748 -1.3981
 1742TIP3    H226718   0.807   2.694  14.540  0.0732  0.5895  0.4077
 1743TIP3   OH226719   3.414   2.743   0.369 -0.3935  0.7815  0.1246
 1743TIP3    H126720   3.465   2.693   0.305 -1.9192  0.4057 -0.8431
 1743TIP3    H226721   3.428   2.697   0.452  1.5363  1.2187  0.1112
 1744TIP3   OH226722   1.001   1.015  14.961  0.0592 -0.1220 -0.2242
 1744TIP3    H126723   1.017   1.017  14.867  1.3215  1.6429 -0.0183
 1744TIP3    H226724   0.966   0.928  14.978  0.2277 -0.6208 -2.2536
 1745TIP3   OH226725   1.589   6.630   4.275 -0.2474  0.5032  0.3253
 1745TIP3    H126726   1.653   6.561   4.263 -1.0601 -0.1761 -0.2145
 1745TIP3    H226727   1.634   6.696   4.327  0.6378 -0.2932  0.5895
 1746TIP3   OH226728   2.991   2.039   6.162  0.5310 -0.3868  0.1787
 1746TIP3    H126729   3.040   1.987   6.099 -0.0955  1.0394 -1.5447
 1746TIP3    H226730   3.052   2.107   6.190  0.4773 -0.3987  0.3263
 1747TIP3   OH226731   2.676   0.461  11.965 -0.0846  0.0945  0.0433
 1747TIP3    H126732   2.581   0.459  11.974 -0.1289 -1.4904 -0.4308
 1747TIP3    H226733   2.693   0.526  11.897 -0.9119 -0.4315 -0.6811
 1748TIP3   OH226734   4.808   1.442   0.744 -0.3017  1.2042  0.4923
 1748TIP3    H126735   4.817   1.497   0.666 -1.5388  2.2643  1.0667
 1748TIP3    H226736   4.892   1.395   0.750 -0.7385 -0.1607 -2.3637
 1749TIP3   OH226737   0.877   0.255  11.631  0.3763  0.1463  0.1408
 1749TIP3    H126738   0.931   0.323  11.672  0.3120  0.9813 -1.1103
 1749TIP3    H226739   0.787   0.283  11.648  0.3319  1.1880 -1.5844
 1750TIP3   OH226740   4.372   1.117   2.790 -0.5676 -0.3110  0.1347
 1750TIP3    H126741   4.317   1.195   2.793  0.0102  0.2553 -2.2965
 1750TIP3    H226742   4.420   1.124   2.708  1.0072 -2.2363  0.8140
 1751TIP3   OH226743   0.614   1.093   4.538 -0.0346 -0.1345  0.0252
 1751TIP3    H126744   0.610   1.136   4.452  1.4541 -1.0556 -0.5406
 1751TIP3    H226745   0.595   1.001   4.520  0.4059 -0.3567  0.6499
 1752TIP3   OH226746   3.183   2.532   2.118  0.0813  0.1980 -0.1117
 1752TIP3    H126747   3.192   2.451   2.069  0.5478 -1.4845  2.5678
 1752TIP3    H226748   3.096   2.564   2.096 -0.9077 -2.1000  0.2336
 1753TIP3   OH226749   4.142   2.956  13.479  0.2380  0.3681  0.0961
 1753TIP3    H126750   4.091   3.028  13.516 -0.4118 -1.3380  2.7995
 1753TIP3    H226751   4.091   2.926  13.404 -1.0707  0.7546  0.8091
 1754TIP3   OH226752   5.852   2.326   3.042  0.4796  0.3581  0.0560
 1754TIP3    H126753   5.798   2.402   3.059 -0.0732  0.4209 -1.7899
 1754TIP3    H226754   5.884   2.338   2.952 -1.1473 -2.4329 -1.0197
 1755TIP3   OH226755   5.305   6.291  11.236 -0.1850  0.3311  0.0089
 1755TIP3    H126756   5.367   6.228  11.199  0.5659  1.1210 -0.1102
 1755TIP3    H226757   5.288   6.258  11.324  0.8906  0.4240  0.2703
 1756TIP3   OH226758   4.451   4.891   1.268  0.4017  0.2578  0.1679
 1756TIP3    H126759   4.471   4.906   1.175 -1.3097  0.6288 -0.1774
 1756TIP3    H226760   4.405   4.806   1.268 -1.4245  1.1974  0.3578
 1757TIP3   OH226761   1.498   1.010   3.115  0.2036  0.3138 -0.0172
 1757TIP3    H126762   1.534   0.923   3.094  0.9347  0.8289 -0.9362
 1757TIP3    H226763   1.482   1.006   3.210 -0.5961 -1.1175 -0.1918
 1758TIP3   OH226764   2.446   3.524  11.317 -0.4811  0.0655  0.0083
 1758TIP3    H126765   2.403   3.595  11.270  1.7165  2.2641  1.1005
 1758TIP3    H226766   2.529   3.512  11.272 -0.5627 -1.4545  0.2074
 1759TIP3   OH226767   5.239   0.118   2.792 -0.0062  0.3001  0.3841
 1759TIP3    H126768   5.231   0.096   2.699 -0.1038  0.3941  0.3708
 1759TIP3    H226769   5.331   0.101   2.812 -0.4052 -1.6596  0.7656
 1760TIP3   OH226770   1.782   3.023   6.295  0.0595  0.3669  0.6036
 1760TIP3    H126771   1.695   3.006   6.330 -0.1579 -1.3129 -0.6157
 1760TIP3    H226772   1.839   3.026   6.372 -0.5388 -2.2598  1.2506
 1761TIP3   OH226773   4.304   6.508   3.731 -0.4101  0.0426 -0.9613
 1761TIP3    H126774   4.241   6.551   3.790 -1.6692 -0.4923 -1.8684
 1761TIP3    H226775   4.342   6.579   3.680  0.8622  0.5474  0.5897
 1762TIP3   OH226776   0.375   3.879   2.690  0.7015 -0.7317 -0.5101
 1762TIP3    H126777   0.423   3.933   2.627 -0.1639  2.0984  1.0651
 1762TIP3    H226778   0.287   3.871   2.653  0.4026  0.2850 -0.0347
 1763TIP3   OH226779   6.407   2.661  13.609  0.0544 -0.1965  0.5469
 1763TIP3    H126780   6.406   2.694  13.699  0.7675  0.8266  0.1934
 1763TIP3    H226781   6.476   2.595  13.608  1.1112  0.8700  0.4060
 1764TIP3   OH226782   2.213   4.867  11.695  0.1123  0.6061  0.3342
 1764TIP3    H126783   2.270   4.941  11.713  0.2931  0.4307  0.4909
 1764TIP3    H226784   2.125   4.899  11.714  0.2602  0.5505  1.1475
 1765TIP3   OH226785   3.541   5.022   4.818 -0.3637 -0.0552 -0.7191
 1765TIP3    H126786   3.609   5.072   4.863 -0.4849  1.6379 -2.3359
 1765TIP3    H226787   3.583   4.990   4.738 -0.7307 -1.3154 -0.4383
 1766TIP3   OH226788   3.867   0.050   1.125 -0.3942  0.3375  0.5221
 1766TIP3    H126789   3.827   0.004   1.199  0.0274 -2.0733 -0.6388
 1766TIP3    H226790   3.812   0.128   1.112 -2.3186 -0.7864  1.4589
 1767TIP3   OH226791   4.573   1.684  12.653 -0.1068  0.3505 -0.0996
 1767TIP3    H126792   4.667   1.703  12.648 -0.2963  2.3818  2.3919
 1767TIP3    H226793   4.530   1.770  12.650 -1.7982 -0.4296  0.3956
 1768TIP3   OH226794   1.783   0.952  10.459 -0.0742 -0.3184 -0.0565
 1768TIP3    H126795   1.803   1.043  10.437  0.7512 -0.3614  0.4557
 1768TIP3    H226796   1.845   0.901  10.406 -1.8919 -0.7217 -1.9347
 1769TIP3   OH226797   3.630   4.280   2.550 -0.3872 -0.0193  0.2168
 1769TIP3    H126798   3.623   4.369   2.584 -0.2179 -0.4581  1.4438
 1769TIP3    H226799   3.713   4.248   2.584  0.8049  0.1829 -2.2902
 1770TIP3   OH226800   6.221   3.890  12.767  0.1348  0.2752  0.0830
 1770TIP3    H126801   6.260   3.840  12.696  0.2804  0.9172 -0.3018
 1770TIP3    H226802   6.256   3.979  12.756 -2.6228  1.3268 -1.2780
 1771TIP3   OH226803   0.811   6.709  12.480 -0.3566  0.0630 -0.0475
 1771TIP3    H126804   0.732   6.727  12.429  0.2988  0.1288 -1.0815
 1771TIP3    H226805   0.795   6.623  12.519 -1.9682  1.1373  1.8816
 1772TIP3   OH226806   6.808   4.727  12.256 -0.1123 -0.1493 -0.3066
 1772TIP3    H126807   6.865   4.717  12.180 -1.1701  0.5829 -1.2276
 1772TIP3    H226808   6.788   4.820  12.258 -0.2758 -0.2018  0.7511
 1773TIP3   OH226809   4.024   2.904  16.051 -0.0141  0.2761 -0.1687
 1773TIP3    H126810   4.026   2.994  16.018  0.4594  0.2132 -0.3245
 1773TIP3    H226811   4.113   2.872  16.038  0.5386  0.6361  2.2581
 1774TIP3   OH226812   2.384   0.892   4.342 -0.2555 -0.4043  0.3640
 1774TIP3    H126813   2.454   0.827   4.347 -0.0769 -0.3890 -1.2929
 1774TIP3    H226814   2.385   0.936   4.427  3.6245  1.4987 -0.4612
 1775TIP3   OH226815   1.730   3.328   4.252 -0.0408 -0.3418 -0.4878
 1775TIP3    H126816   1.807   3.376   4.283  0.7518 -1.3909 -0.7357
 1775TIP3    H226817   1.655   3.374   4.290  0.8308 -1.6243  3.2180
 1776TIP3   OH226818   3.714   1.594  14.834  0.0006  0.0072  0.2646
 1776TIP3    H126819   3.808   1.602  14.822 -0.1327  1.9776  0.2632
 1776TIP3    H226820   3.694   1.503  14.811  1.9560 -0.6013  0.7939
 1777TIP3   OH226821   3.185   1.318  15.665 -0.1070 -0.2445 -0.2642
 1777TIP3    H126822   3.196   1.300  15.572 -0.5995  0.4714 -0.4701
 1777TIP3    H226823   3.237   1.251  15.709  0.4076 -0.3832 -1.0631
 1778TIP3   OH226824   2.345   2.113   2.175  0.5026  0.6264  0.2405
 1778TIP3    H126825   2.255   2.082   2.182  0.4301  0.4904 -1.0345
 1778TIP3    H226826   2.355   2.137   2.083  1.7401  0.7364  0.3865
 1779TIP3   OH226827   5.328   5.036  15.550 -0.4405  0.7411 -0.1149
 1779TIP3    H126828   5.308   5.125  15.520  0.5228  0.8606 -0.4625
 1779TIP3    H226829   5.289   4.979  15.484 -1.7362  0.8559  0.5127
 1780TIP3   OH226830   6.490   3.796  16.900 -0.2191  0.0153 -0.4411
 1780TIP3    H126831   6.445   3.722  16.941 -0.0057  0.1519  0.0467
 1780TIP3    H226832   6.431   3.870  16.911  0.6701  0.5017  1.3922
 1781TIP3   OH226833   5.914   0.974  15.425  0.2985 -0.4506  0.1927
 1781TIP3    H126834   5.974   0.900  15.434 -0.8318 -1.6321 -1.4785
 1781TIP3    H226835   5.947   1.022  15.349  0.7265  0.5002  0.9614
 1782TIP3   OH226836   0.497   1.481  16.167 -0.4871 -0.2126 -0.7588
 1782TIP3    H126837   0.435   1.444  16.230  0.2645  2.1496  1.5508
 1782TIP3    H226838   0.447   1.489  16.086 -1.3042 -3.9665 -0.7807
 1783TIP3   OH226839   4.331   6.274  15.533  0.3971 -0.1195  0.5858
 1783TIP3    H126840   4.338   6.203  15.596 -1.7833  0.8990  2.0843
 1783TIP3    H226841   4.381   6.346  15.572 -0.1330  0.2035  0.6748
 1784TIP3   OH226842   0.497   5.383  12.383 -0.6348 -0.4461  0.1069
 1784TIP3    H126843   0.506   5.474  12.353  0.8693 -1.0933 -1.6359
 1784TIP3    H226844   0.415   5.353  12.344 -0.6361 -0.1210 -0.1509
 1785TIP3   OH226845   5.274   0.323   4.897 -0.0502 -0.5190  0.3747
 1785TIP3    H126846   5.329   0.338   4.820 -0.8725  2.2050  0.2103
 1785TIP3    H226847   5.268   0.228   4.904 -0.6403 -0.9289 -3.4170
 1786TIP3   OH226848   0.387   2.027  12.039  0.0647  0.0246  0.6238
 1786TIP3    H126849   0.360   1.948  12.086  1.2819 -0.3953  0.6610
 1786TIP3    H226850   0.431   2.080  12.105  0.4956  0.0939  0.2861
 1787TIP3   OH226851   0.247   1.741   1.182  0.1201 -0.1639 -0.4658
 1787TIP3    H126852   0.331   1.761   1.139  0.1533 -0.8266 -0.7207
 1787TIP3    H226853   0.236   1.647   1.170 -0.0915 -0.2852  0.5959
 1788TIP3   OH226854   3.933   6.388   1.287  0.5119  0.0200 -0.7677
 1788TIP3    H126855   3.874   6.407   1.360  1.9229  0.3835  0.3200
 1788TIP3    H226856   3.892   6.314   1.242  0.6779 -1.7405  1.7397
 1789TIP3   OH226857   2.142   5.696  15.904 -0.1708  0.4643  0.0625
 1789TIP3    H126858   2.157   5.756  15.831 -0.6264 -1.0586 -1.3411
 1789TIP3    H226859   2.189   5.736  15.977  1.4693  1.3703 -1.3918
 1790TIP3   OH226860   2.560   2.315  14.395  0.5736  0.1412  0.6809
 1790TIP3    H126861   2.605   2.263  14.328 -0.2162  0.1294  0.1502
 1790TIP3    H226862   2.598   2.402  14.387 -0.4152  0.4791 -0.6856
 1791TIP3   OH226863   4.408   4.694   2.433  0.0130 -0.1700 -0.7272
 1791TIP3    H126864   4.360   4.721   2.511  0.9808 -0.6433  0.0499
 1791TIP3    H226865   4.372   4.608   2.411 -0.1004 -0.1400 -0.6593
 1792TIP3   OH226866   6.477   1.547  13.845 -0.2593 -0.4005  0.0554
 1792TIP3    H126867   6.382   1.559  13.832  0.1465  0.9167 -2.1718
 1792TIP3    H226868   6.512   1.536  13.757  1.8881  1.0679  0.6449
 1793TIP3   OH226869   6.157   1.123   3.709 -0.0976  0.9877 -0.1895
 1793TIP3    H126870   6.123   1.111   3.620 -1.0730 -1.0059  0.3803
 1793TIP3    H226871   6.232   1.182   3.699 -0.4744  1.1786 -2.2574
 1794TIP3   OH226872   5.295   3.484   5.203  0.5961  0.8821 -0.6208
 1794TIP3    H126873   5.251   3.400   5.214  1.1268  0.6166 -0.4650
 1794TIP3    H226874   5.364   3.483   5.269  1.5815  0.7929 -1.6269
 1795TIP3   OH226875   4.087   3.119   0.369 -0.1790 -0.2947  0.1216
 1795TIP3    H126876   4.169   3.086   0.331 -0.7560  1.0560 -2.4903
 1795TIP3    H226877   4.102   3.213   0.378 -2.3111  0.5094 -3.1565
 1796TIP3   OH226878   5.737   2.282  16.758 -0.0645 -0.4627  0.6140
 1796TIP3    H126879   5.782   2.301  16.675 -2.0047  1.4727 -0.0666
 1796TIP3    H226880   5.735   2.186  16.762 -0.0675 -0.6157 -1.6733
 1797TIP3   OH226881   6.400   0.090   0.913 -0.3570 -0.4982 -0.2616
 1797TIP3    H126882   6.494   0.097   0.900 -0.1338 -2.5487 -0.1878
 1797TIP3    H226883   6.387   0.102   1.007  0.0479 -1.6421 -0.0377
 1798TIP3   OH226884   3.615   3.439   5.583  0.1381 -0.1753 -0.1787
 1798TIP3    H126885   3.559   3.427   5.506  0.8662 -0.2787 -0.7109
 1798TIP3    H226886   3.623   3.534   5.593 -0.5317 -0.1575  0.2020
 1799TIP3   OH226887   1.563   6.155   2.014 -0.0324  0.3704  0.7212
 1799TIP3    H126888   1.485   6.147   1.960  0.3349 -0.3131  0.2792
 1799TIP3    H226889   1.558   6.082   2.075 -0.5186  1.2243  1.7238
 1800TIP3   OH226890   2.073   4.428   4.734  0.0517  0.0158  0.3599
 1800TIP3    H126891   2.105   4.347   4.772  2.2094  0.3406 -0.6299
 1800TIP3    H226892   2.129   4.443   4.658 -2.4025  0.7387 -1.4680
 1801TIP3   OH226893   5.262   4.512   6.050 -0.1056  0.2142  0.0410
 1801TIP3    H126894   5.211   4.439   6.085 -0.5048  0.9184  0.9498
 1801TIP3    H226895   5.211   4.543   5.975 -0.4408  0.1895  0.2562
 1802TIP3   OH226896   3.469   0.143   4.559 -0.4489  0.1102  0.0005
 1802TIP3    H126897   3.392   0.145   4.502 -1.9165 -0.0085  1.8714
 1802TIP3    H226898   3.448   0.078   4.626  2.1037 -1.3483 -0.4648
 1803TIP3   OH226899   2.873   0.645  16.485 -0.3064  0.4249 -0.1720
 1803TIP3    H126900   2.961   0.657  16.522 -1.0948  0.9709  1.6229
 1803TIP3    H226901   2.888   0.598  16.403  1.4844 -1.7073  1.2630
 1804TIP3   OH226902   5.041   2.932  13.713 -0.3290 -0.4364  0.4059
 1804TIP3    H126903   5.070   3.011  13.760  1.4818 -1.4274  1.0653
 1804TIP3    H226904   5.021   2.869  13.782 -0.4257 -1.0000 -0.1301
 1805TIP3   OH226905   4.861   1.370   4.833 -0.0775 -0.5752 -0.0926
 1805TIP3    H126906   4.789   1.363   4.896  0.2346 -1.8380  0.1554
 1805TIP3    H226907   4.862   1.462   4.807  0.1636  0.1110  2.1794
 1806TIP3   OH226908   4.687   2.789   1.227 -0.1230  0.3605 -0.1719
 1806TIP3    H126909   4.768   2.812   1.272 -0.2469  0.5848 -0.0635
 1806TIP3    H226910   4.713   2.725   1.161  0.0804  0.1373  0.1251
 1807TIP3   OH226911   6.417   5.081   0.374  0.0677 -0.7481 -0.0994
 1807TIP3    H126912   6.468   5.011   0.334  1.4353  0.1353  0.0368
 1807TIP3    H226913   6.333   5.078   0.328  0.0026 -2.5897  0.0451
 1808TIP3   OH226914   3.460   6.560  16.309 -0.8589 -0.3604  0.2080
 1808TIP3    H126915   3.518   6.543  16.234 -0.8747  1.1232 -0.1782
 1808TIP3    H226916   3.447   6.655  16.308 -1.4855 -0.4034  1.6462
 1809TIP3   OH226917   3.561   2.431   1.837 -0.5559 -0.2805 -0.0712
 1809TIP3    H126918   3.530   2.427   1.927  1.7053 -0.8671  0.7475
 1809TIP3    H226919   3.496   2.382   1.787 -0.8861 -1.5707  1.5506
 1810TIP3   OH226920   3.098   1.086  14.353  0.2872 -0.0164 -0.2686
 1810TIP3    H126921   3.009   1.118  14.335  0.0450 -0.1568  0.6059
 1810TIP3    H226922   3.108   1.097  14.448  1.2177  0.0259 -0.3653
 1811TIP3   OH226923   4.118   3.557  15.313 -0.5729  0.4764  0.2166
 1811TIP3    H126924   4.169   3.579  15.235  0.1454 -2.7482 -0.3797
 1811TIP3    H226925   4.028   3.582  15.291  0.1912  3.5457  0.1409
 1812TIP3   OH226926   2.362   1.836   4.456  0.0217 -0.2820  0.2120
 1812TIP3    H126927   2.455   1.819   4.469 -0.3174 -2.2353  0.4052
 1812TIP3    H226928   2.344   1.914   4.510  1.6018  0.3685 -0.1627
 1813TIP3   OH226929   6.215   6.166   2.262  0.2511 -0.0414 -0.0782
 1813TIP3    H126930   6.226   6.081   2.219 -3.5698 -2.3618  2.8455
 1813TIP3    H226931   6.132   6.199   2.230 -0.0460  0.8145  1.4696
 1814TIP3   OH226932   1.332   4.223   2.891  0.0472  0.6310 -0.1091
 1814TIP3    H126933   1.313   4.304   2.938  0.4743  2.0611 -2.2726
 1814TIP3    H226934   1.251   4.173   2.896 -0.7550  1.9008 -0.0956
 1815TIP3   OH226935   0.011   3.048  13.702  0.1750  0.7216  0.2947
 1815TIP3    H126936   0.028   2.984  13.633 -0.1262  1.4046 -0.4183
 1815TIP3    H226937   0.041   3.004  13.782 -2.0841 -1.2153  0.1840
 1816TIP3   OH226938   3.432   1.422  14.429 -1.1155 -0.1314  0.4632
 1816TIP3    H126939   3.404   1.512  14.445 -1.8939 -0.4661  1.0379
 1816TIP3    H226940   3.417   1.377  14.512 -0.3246 -0.6971  0.3091
 1817TIP3   OH226941   1.884   3.470  15.383 -0.1489 -0.5593  0.6827
 1817TIP3    H126942   1.882   3.377  15.362  1.5226 -0.4697 -0.1068
 1817TIP3    H226943   1.809   3.484  15.441 -0.0153 -2.5321  1.4155
 1818TIP3   OH226944   3.346   3.052  12.724  0.0789  0.1236  0.1215
 1818TIP3    H126945   3.440   3.042  12.738 -0.0899  1.2369  2.5400
 1818TIP3    H226946   3.309   2.965  12.742  0.6870 -0.6409 -2.0212
 1819TIP3   OH226947   2.234   5.182  10.697  0.1221 -0.1634  0.5474
 1819TIP3    H126948   2.152   5.133  10.696 -0.9056  1.4513 -0.9596
 1819TIP3    H226949   2.275   5.163  10.613  0.5639  0.1840  0.6782
 1820TIP3   OH226950   2.372   4.758   3.676  0.1838 -0.5220 -0.3455
 1820TIP3    H126951   2.383   4.767   3.581 -0.8888 -0.5983 -0.4858
 1820TIP3    H226952   2.297   4.813   3.697  2.0344  1.7169  0.9056
 1821TIP3   OH226953   4.601   0.975  14.423 -0.1414  0.0455  0.1328
 1821TIP3    H126954   4.518   1.007  14.387  0.4150  0.8784 -0.4438
 1821TIP3    H226955   4.668   1.027  14.378  0.7200 -0.9690  0.2075
 1822TIP3   OH226956   5.680   6.147   2.966 -0.0241 -0.1128 -0.3031
 1822TIP3    H126957   5.605   6.112   3.015  1.9300 -0.5152  2.6553
 1822TIP3    H226958   5.694   6.085   2.895 -1.9975 -0.4332 -0.4668
 1823TIP3   OH226959   1.280   2.916   4.060 -0.5926 -0.8631  0.1342
 1823TIP3    H126960   1.274   2.870   4.144 -1.2149 -1.7315 -0.3775
 1823TIP3    H226961   1.373   2.936   4.050 -0.4835 -0.9412  0.9309
 1824TIP3   OH226962   4.834   2.400   5.607  0.6365  0.6155 -0.0239
 1824TIP3    H126963   4.761   2.437   5.656  0.5384 -0.2588  0.5127
 1824TIP3    H226964   4.864   2.326   5.660 -0.1458 -1.0294 -1.7387
 1825TIP3   OH226965   0.248   0.396   0.708 -0.4398 -0.0236  0.5031
 1825TIP3    H126966   0.228   0.459   0.776 -2.8324 -0.3030  0.1412
 1825TIP3    H226967   0.231   0.310   0.748 -1.7744 -0.1931 -0.3734
 1826TIP3   OH226968   0.628   0.439   0.410 -0.7291 -0.3665  0.3348
 1826TIP3    H126969   0.590   0.388   0.338  0.4256 -0.4117 -0.2718
 1826TIP3    H226970   0.723   0.428   0.399 -0.4939  0.9373  0.9118
 1827TIP3   OH226971   6.331   2.096   0.688 -0.0096  0.3530  0.3347
 1827TIP3    H126972   6.412   2.050   0.663  0.1761  1.0987 -0.4469
 1827TIP3    H226973   6.290   2.120   0.606 -1.0353  0.0017  0.7304
 1828TIP3   OH226974   3.843   3.822  14.726  0.0711 -0.0782  0.6969
 1828TIP3    H126975   3.884   3.894  14.677  0.2347 -0.1723  0.6931
 1828TIP3    H226976   3.813   3.761  14.658 -0.2908  0.1058  0.6915
 1829TIP3   OH226977   5.296   0.657   4.173 -0.1228  0.0613  0.0590
 1829TIP3    H126978   5.233   0.591   4.202  1.5726 -2.5682 -1.8037
 1829TIP3    H226979   5.284   0.663   4.078  1.8147  0.1076 -0.2335
 1830TIP3   OH226980   3.919   2.313   4.952 -0.2649 -0.0479 -0.4069
 1830TIP3    H126981   3.993   2.327   4.893 -1.4475  1.4774 -1.6034
 1830TIP3    H226982   3.855   2.264   4.900  0.0361 -1.7311  0.7528
 1831TIP3   OH226983   2.130   2.027   3.999  0.0515 -0.6570 -0.4488
 1831TIP3    H126984   2.085   2.004   4.080  1.1145 -3.0845 -0.4605
 1831TIP3    H226985   2.114   2.121   3.988 -2.9492 -0.9144  0.7500
 1832TIP3   OH226986   1.391   6.607   0.547  0.1527  0.0110 -0.0701
 1832TIP3    H126987   1.465   6.665   0.529 -0.1280  1.4471  2.7676
 1832TIP3    H226988   1.316   6.651   0.508  0.4301 -0.2695 -0.9438
 1833TIP3   OH226989   0.006   1.353   3.260  0.2427  0.0429  0.0737
 1833TIP3    H126990  -0.036   1.329   3.177 -0.2410  0.3989  0.2087
 1833TIP3    H226991  -0.050   1.422   3.296  1.0376  0.6366  0.1923
 1834TIP3   OH226992   6.404   2.227  11.724  0.8837  0.3634 -0.1661
 1834TIP3    H126993   6.458   2.246  11.801 -0.2691 -0.0887  0.7757
 1834TIP3    H226994   6.352   2.307  11.711  0.5969  0.1933 -0.0667
 1835TIP3   OH226995   2.002   3.415  12.904 -0.1692  0.8244 -0.6433
 1835TIP3    H126996   2.053   3.336  12.921  1.1146  2.1743  2.8310
 1835TIP3    H226997   2.022   3.438  12.813  0.8470 -1.8107 -1.1697
 1836TIP3   OH226998   5.033   2.820   3.653 -1.0259 -0.0223  0.2774
 1836TIP3    H126999   5.025   2.725   3.666 -1.7733  0.1336  1.0849
 1836TIP3    H227000   5.012   2.857   3.739  0.3842  0.8444  0.2793
 1837TIP3   OH227001   4.523   5.406   5.172  0.5739 -0.5344 -0.6331
 1837TIP3    H127002   4.607   5.434   5.138  2.0172 -1.0805  2.1804
 1837TIP3    H227003   4.517   5.447   5.259 -2.3363 -0.0730 -0.9348
 1838TIP3   OH227004   0.844   0.127  16.527 -1.0233 -0.4161 -0.3810
 1838TIP3    H127005   0.750   0.111  16.519 -1.3916  1.9384 -1.4775
 1838TIP3    H227006   0.864   0.190  16.458  1.5893 -1.6055 -0.8435
 1839TIP3   OH227007   6.239   5.488   4.206  0.0972 -0.1204 -0.1081
 1839TIP3    H127008   6.282   5.409   4.174 -0.3996 -0.4188 -0.0519
 1839TIP3    H227009   6.196   5.525   4.128  0.4592  0.1865 -0.1685
 1840TIP3   OH227010   1.540   5.882   2.832 -0.2169 -0.0881 -0.2959
 1840TIP3    H127011   1.445   5.890   2.833 -0.4377 -2.1155 -0.5433
 1840TIP3    H227012   1.572   5.971   2.815 -2.0008  0.8662  1.0824
 1841TIP3   OH227013   4.266   2.977  10.779 -0.4170  0.1004 -0.3441
 1841TIP3    H127014   4.272   2.908  10.846 -1.6349  0.4710  0.1652
 1841TIP3    H227015   4.298   3.055  10.824  0.1817  0.0418 -0.6660
 1842TIP3   OH227016   4.795   4.912   2.154  0.5130 -0.1674  0.1733
 1842TIP3    H127017   4.816   5.004   2.141  2.5353 -0.2889  1.9767
 1842TIP3    H227018   4.718   4.913   2.211 -0.0554  0.3855 -0.5903
 1843TIP3   OH227019   3.899   4.961  13.458  0.1175  0.5992 -0.2363
 1843TIP3    H127020   3.951   4.928  13.385  0.3271  0.1219  0.1190
 1843TIP3    H227021   3.961   5.006  13.515  0.0294  0.6100 -0.1468
 1844TIP3   OH227022   1.193   4.122  16.108  0.5713  0.3568  1.0250
 1844TIP3    H127023   1.267   4.183  16.111  0.3744  0.7725 -1.2050
 1844TIP3    H227024   1.117   4.177  16.091  0.2731 -0.3907 -0.2111
 1845TIP3   OH227025   5.508   4.212   3.853 -0.4804  0.5116  0.1414
 1845TIP3    H127026   5.544   4.279   3.910  2.4547 -0.0857 -0.8046
 1845TIP3    H227027   5.563   4.215   3.775 -2.2674 -0.8890 -1.2824
 1846TIP3   OH227028   2.535   5.025   2.281 -0.5555  0.2158 -0.3962
 1846TIP3    H127029   2.523   5.119   2.280  1.3406  0.5094 -2.3189
 1846TIP3    H227030   2.618   5.011   2.328 -0.0037 -0.3200 -1.4756
 1847TIP3   OH227031   1.796   0.918   2.914 -0.1208  0.2356 -0.2748
 1847TIP3    H127032   1.753   0.833   2.927  0.3490  0.2962  2.2567
 1847TIP3    H227033   1.840   0.910   2.829 -0.4159 -1.9183 -0.2922
 1848TIP3   OH227034   3.808   5.612  12.021 -0.3562  0.0181 -0.3670
 1848TIP3    H127035   3.892   5.611  11.975  0.0582 -2.0858  0.3444
 1848TIP3    H227036   3.745   5.644  11.956  0.6752 -0.2122 -1.5133
 1849TIP3   OH227037   2.560   0.281   0.224  0.3265 -0.1650 -0.1326
 1849TIP3    H127038   2.646   0.250   0.251 -0.0260 -0.2085  1.0043
 1849TIP3    H227039   2.545   0.242   0.138  0.6148 -1.7518  0.5084
 1850TIP3   OH227040   6.424   2.365   3.317 -0.2586 -0.4490  0.4716
 1850TIP3    H127041   6.438   2.456   3.290 -2.7193  0.0443  0.6138
 1850TIP3    H227042   6.499   2.345   3.372 -0.5260  2.1376  1.9352
 1851TIP3   OH227043   0.626   4.070  12.959  0.0218 -0.0646 -0.4456
 1851TIP3    H127044   0.562   4.058  13.030  0.3956  1.3950  0.1708
 1851TIP3    H227045   0.602   4.003  12.895 -0.3369 -1.4351  1.0274
 1852TIP3   OH227046   2.078   5.634   6.165  0.4004  0.9019  0.0883
 1852TIP3    H127047   2.030   5.696   6.220 -0.7390  0.5145 -0.4281
 1852TIP3    H227048   2.124   5.578   6.227  0.6965  1.6744  0.5842
 1853TIP3   OH227049   0.831   2.055  15.907  0.0819 -0.3036  0.3751
 1853TIP3    H127050   0.871   2.051  15.820 -0.3581  2.8308 -0.0713
 1853TIP3    H227051   0.900   2.090  15.964 -0.4234  0.1721  0.7036
 1854TIP3   OH227052   3.762   1.194   4.530 -0.1665 -0.0841  0.2016
 1854TIP3    H127053   3.675   1.174   4.496  0.2385 -0.3342 -0.7223
 1854TIP3    H227054   3.782   1.280   4.494  0.3081 -0.3917 -0.2772
 1855TIP3   OH227055   3.311   0.998  12.263 -0.1072  0.4231 -0.0296
 1855TIP3    H127056   3.362   0.956  12.332  0.6914  1.0976 -0.2052
 1855TIP3    H227057   3.258   0.927  12.226 -1.3238  0.2300  1.9256
 1856TIP3   OH227058   3.791   2.804  11.336 -0.8075 -0.3307  0.1376
 1856TIP3    H127059   3.811   2.841  11.250  0.7225  0.3638  0.7453
 1856TIP3    H227060   3.710   2.755  11.323  0.4648 -2.0308 -2.1987
 1857TIP3   OH227061   3.139   6.500   2.269 -0.6844  0.3360  0.2776
 1857TIP3    H127062   3.140   6.526   2.177  0.0513  0.2331  0.2463
 1857TIP3    H227063   3.065   6.440   2.277 -1.1478  0.8488 -0.1008
 1858TIP3   OH227064   4.193   2.486  12.110 -0.1161 -0.0119  0.1713
 1858TIP3    H127065   4.218   2.395  12.090 -0.9096 -0.1976 -0.0113
 1858TIP3    H227066   4.110   2.478  12.157  0.6392  0.5439  1.6499
 1859TIP3   OH227067   3.500   0.140   0.832  0.7809  0.5703 -0.3959
 1859TIP3    H127068   3.556   0.194   0.776 -0.5237  1.6166 -0.7426
 1859TIP3    H227069   3.426   0.196   0.852 -0.1043 -0.7511  0.1379
 1860TIP3   OH227070   2.800   5.665  12.315  0.7050 -0.0619 -0.6183
 1860TIP3    H127071   2.798   5.577  12.352  0.0662  0.0321 -0.4150
 1860TIP3    H227072   2.720   5.671  12.262 -0.1578  0.9566  0.7065
 1861TIP3   OH227073   3.602   1.444  13.142  0.4512  0.4810  1.1540
 1861TIP3    H127074   3.620   1.537  13.127 -0.0955  0.5815  1.1019
 1861TIP3    H227075   3.688   1.405  13.157  0.9457  0.5967 -0.9948
 1862TIP3   OH227076   3.219   2.981  12.009 -0.0091  0.3561  0.4063
 1862TIP3    H127077   3.286   2.991  12.077  2.0973  1.2284 -1.6675
 1862TIP3    H227078   3.220   3.064  11.962 -0.9831 -0.4057 -1.0294
 1863TIP3   OH227079   5.322   3.922   2.640  0.1630 -0.5872  0.4620
 1863TIP3    H127080   5.276   3.841   2.618 -0.3724 -0.8020  2.2041
 1863TIP3    H227081   5.306   3.934   2.734  0.9942  1.0580  0.4325
 1864TIP3   OH227082   2.655   3.792   0.384 -0.2846  0.4312 -0.3972
 1864TIP3    H127083   2.634   3.739   0.308 -1.7538 -0.5625  0.6312
 1864TIP3    H227084   2.727   3.747   0.427  1.7032  1.8843 -2.0012
 1865TIP3   OH227085   6.385   0.416   2.507 -0.4630 -0.1060  0.3709
 1865TIP3    H127086   6.318   0.360   2.546  0.5543 -1.7304 -0.1242
 1865TIP3    H227087   6.421   0.465   2.581 -2.0852  0.7320  0.6548
 1866TIP3   OH227088   3.696   3.956   5.673 -0.4464 -0.9594 -0.5036
 1866TIP3    H127089   3.691   4.033   5.616  1.6691 -0.7828 -0.5014
 1866TIP3    H227090   3.696   3.882   5.613  0.6274 -0.8186 -0.6910
 1867TIP3   OH227091   0.597   6.235  14.103  0.5445  0.2437  0.1281
 1867TIP3    H127092   0.563   6.291  14.172  1.5194 -0.2496  1.0517
 1867TIP3    H227093   0.557   6.267  14.023 -0.0186  1.3260  0.8251
 1868TIP3   OH227094   4.277   5.125   2.532 -0.1799  0.4946  0.2665
 1868TIP3    H127095   4.265   5.213   2.566 -1.8754  0.4330 -0.0869
 1868TIP3    H227096   4.365   5.100   2.560  0.5563  2.4993 -0.1215
 1869TIP3   OH227097   6.122   6.710  12.613 -0.3193 -0.3088  0.2742
 1869TIP3    H127098   6.135   6.645  12.544 -0.0056 -0.1993  0.2292
 1869TIP3    H227099   6.031   6.698  12.641  0.0630 -1.5663  1.0770
 1870TIP3   OH227100   3.218   1.014  11.829 -0.0131 -0.3700  0.2387
 1870TIP3    H127101   3.310   1.032  11.850  0.1726 -1.7897  0.7984
 1870TIP3    H227102   3.196   0.938  11.884 -0.4277 -2.3866 -2.4980
 1871TIP3   OH227103   3.896   2.264  13.051  0.1652  0.2940  0.2870
 1871TIP3    H127104   3.814   2.271  13.002  0.0586  0.6752  0.5134
 1871TIP3    H227105   3.892   2.335  13.115  0.8154  0.5186  0.0891
 1872TIP3   OH227106   6.118   1.099  14.591  0.4885  0.3218  0.1243
 1872TIP3    H127107   6.098   1.165  14.525  0.7830  0.7238  0.4355
 1872TIP3    H227108   6.043   1.099  14.650 -0.0078 -0.3948 -0.4862
 1873TIP3   OH227109   4.756   3.975   5.098 -0.3097  0.1842 -0.3180
 1873TIP3    H127110   4.734   3.884   5.077  1.2990 -0.2045 -0.4571
 1873TIP3    H227111   4.749   3.980   5.194 -0.6086 -0.0217 -0.3266
 1874TIP3   OH227112   5.450   1.420   0.069 -0.1468 -0.3405  0.0195
 1874TIP3    H127113   5.461   1.458  -0.018 -0.5145 -0.9845 -0.3214
 1874TIP3    H227114   5.428   1.494   0.125  0.1843  0.0961 -0.4126
 1875TIP3   OH227115   4.289   3.366   6.376 -0.7833  0.4642 -0.2791
 1875TIP3    H127116   4.342   3.291   6.347 -1.0367  0.2928 -0.3001
 1875TIP3    H227117   4.341   3.405   6.446 -0.0493  1.0245 -1.1128
 1876TIP3   OH227118   4.626   4.272   2.960  0.3705 -0.5750  0.2695
 1876TIP3    H127119   4.626   4.184   2.923 -1.2153  0.1708 -1.7547
 1876TIP3    H227120   4.538   4.282   2.998 -0.8755  1.1876 -2.6585
 1877TIP3   OH227121   2.067   3.975  12.962 -0.5611 -0.4724 -0.3172
 1877TIP3    H127122   2.022   3.944  12.883 -2.2625 -1.2162  0.8611
 1877TIP3    H227123   1.996   3.992  13.024  0.7339 -0.0572  1.1074
 1878TIP3   OH227124   5.142   2.472   6.307  0.2346  0.3497 -0.3210
 1878TIP3    H127125   5.224   2.475   6.355  0.7324  1.9649 -1.2177
 1878TIP3    H227126   5.076   2.502   6.369  0.0460 -2.1034  0.7959
 1879TIP3   OH227127   3.899   5.203   1.850 -0.5130  0.3326  0.0607
 1879TIP3    H127128   3.980   5.247   1.875 -0.5901 -0.7334  2.5914
 1879TIP3    H227129   3.919   5.110   1.857 -1.2861 -0.0101 -1.7757
 1880TIP3   OH227130   5.209   6.174  11.741 -0.2764 -0.0592 -1.0757
 1880TIP3    H127131   5.274   6.240  11.765 -1.0649  0.4195 -0.1565
 1880TIP3    H227132   5.227   6.100  11.800 -1.5136  0.6860  0.3200
 1881TIP3   OH227133   0.945   0.368   0.856  0.0828 -0.2198  0.1514
 1881TIP3    H127134   0.988   0.453   0.849  1.7689 -1.1250 -1.5543
 1881TIP3    H227135   0.882   0.378   0.927  0.0691  2.4974 -0.1455
 1882TIP3   OH227136   5.307   6.531   5.118  0.2558 -0.8886 -0.3698
 1882TIP3    H127137   5.269   6.477   5.187 -0.8400 -1.0978 -1.1057
 1882TIP3    H227138   5.232   6.561   5.066  0.9078  0.6483 -0.4914
 1883TIP3   OH227139   2.890   3.846   0.959  0.4619 -0.2492 -0.2793
 1883TIP3    H127140   2.954   3.898   0.910 -0.2855 -0.7832 -1.9285
 1883TIP3    H227141   2.861   3.903   1.030  0.6288  1.0927 -1.2546
 1884TIP3   OH227142   4.092   6.639   0.985  0.3434  0.1155 -0.2941
 1884TIP3    H127143   4.012   6.592   0.961 -1.0719  0.4750  3.1925
 1884TIP3    H227144   4.077   6.729   0.955 -0.5074  0.1379  0.1712
 1885TIP3   OH227145   2.918   1.178  16.021  0.0559  0.5380 -0.3263
 1885TIP3    H127146   3.013   1.171  16.027  0.2081  2.0138 -0.6597
 1885TIP3    H227147   2.897   1.259  16.068 -1.1240 -0.1754  0.4176
 1886TIP3   OH227148   2.636   5.727  13.891  0.4375 -0.2917  0.1529
 1886TIP3    H127149   2.603   5.772  13.969 -0.7779 -1.1191  0.1509
 1886TIP3    H227150   2.643   5.795  13.825 -2.1314 -0.1554 -0.0869
 1887TIP3   OH227151   6.730   5.507  11.240  0.3512  0.2388  0.3768
 1887TIP3    H127152   6.768   5.433  11.193 -0.6915  0.0517 -0.1996
 1887TIP3    H227153   6.692   5.468  11.319 -0.9173 -0.0134 -0.3150
 1888TIP3   OH227154   4.267   2.287  13.799  0.5250 -0.0444 -0.4556
 1888TIP3    H127155   4.187   2.236  13.812  1.6016 -1.5155  0.8711
 1888TIP3    H227156   4.327   2.226  13.756  1.2464  0.6946 -0.5061
 1889TIP3   OH227157   4.104   5.368  15.219  0.2130  0.3681  0.0212
 1889TIP3    H127158   4.147   5.425  15.283 -0.1053  0.8093 -0.1550
 1889TIP3    H227159   4.133   5.402  15.134  2.1353 -1.3517 -0.0811
 1890TIP3   OH227160   4.423   5.362  12.922 -0.2139 -0.2630  0.6854
 1890TIP3    H127161   4.417   5.454  12.894 -0.3640 -0.0911  1.2645
 1890TIP3    H227162   4.401   5.312  12.844 -0.4635  0.2026  0.4501
 1891TIP3   OH227163   2.998   1.655   0.545  0.4271  0.8433  0.6487
 1891TIP3    H127164   3.000   1.562   0.521 -1.8615  0.4999  1.5715
 1891TIP3    H227165   3.074   1.666   0.603 -0.2461 -0.8974  1.9446
 1892TIP3   OH227166   6.038   2.079   0.072  0.7210  0.1862 -0.4996
 1892TIP3    H127167   5.945   2.103   0.073  0.7833  0.5285 -1.6106
 1892TIP3    H227168   6.067   2.099  -0.017  1.8075 -0.1367 -0.2329
 1893TIP3   OH227169   3.989   5.089   2.857 -0.7229  0.4568 -0.5642
 1893TIP3    H127170   4.020   5.001   2.836 -2.4872 -0.2660 -0.3294
 1893TIP3    H227171   3.913   5.102   2.801 -0.8532  1.5909 -0.1583
 1894TIP3   OH227172   0.268   6.202  15.662  0.5010 -0.4908  0.6966
 1894TIP3    H127173   0.227   6.220  15.747 -0.1328  0.7947  0.1548
 1894TIP3    H227174   0.229   6.120  15.633 -1.9553  0.7966  0.0979
 1895TIP3   OH227175   1.229   3.878  15.800  0.0855 -0.0810 -0.5823
 1895TIP3    H127176   1.165   3.927  15.749  0.8962  0.8496 -0.7206
 1895TIP3    H227177   1.255   3.938  15.870 -1.4643 -1.5399  1.3515
 1896TIP3   OH227178   3.278   0.229  16.837 -0.2654  0.1580  0.1376
 1896TIP3    H127179   3.313   0.140  16.830  1.0138  0.6396  0.1257
 1896TIP3    H227180   3.184   0.217  16.849 -0.1529 -1.1849 -0.1825
 1897TIP3   OH227181   6.315   6.410  15.735  0.6728 -0.1127  0.3477
 1897TIP3    H127182   6.384   6.472  15.759  1.2562 -0.2822 -0.8309
 1897TIP3    H227183   6.264   6.455  15.668  0.5218 -0.5478  0.1654
 1898TIP3   OH227184   4.728   2.687  16.351 -0.0484  0.1145 -0.4270
 1898TIP3    H127185   4.748   2.779  16.337 -0.2442 -0.1264 -2.5884
 1898TIP3    H227186   4.637   2.687  16.381  0.0445  0.6279 -0.1235
 1899TIP3   OH227187   5.236   5.060  11.193  0.2318 -0.2546  0.1256
 1899TIP3    H127188   5.144   5.079  11.211 -0.1764 -0.0639 -1.9077
 1899TIP3    H227189   5.284   5.130  11.238 -0.8127  1.2612 -1.0079
 1900TIP3   OH227190   0.106   6.201  16.468  0.0290 -0.3871  0.0458
 1900TIP3    H127191   0.176   6.173  16.410 -0.6272  0.0075 -0.9610
 1900TIP3    H227192   0.039   6.133  16.460  0.5557 -1.1283  1.5427
 1901TIP3   OH227193   2.195   1.861   4.225  0.2973  0.4056  0.1058
 1901TIP3    H127194   2.248   1.844   4.303  0.4559 -0.0495 -0.0946
 1901TIP3    H227195   2.234   1.806   4.157 -0.6708 -0.2456  0.0548
 1902TIP3   OH227196   0.153   2.611  11.700 -0.2064  0.1867 -0.1138
 1902TIP3    H127197   0.061   2.607  11.725 -0.7031  0.7589 -1.6931
 1902TIP3    H227198   0.152   2.654  11.614  1.6208  1.0552  0.2653
 1903TIP3   OH227199   6.247   4.982   4.263  0.5339  0.0566 -0.0973
 1903TIP3    H127200   6.343   4.986   4.266  0.5007  0.6168  0.4045
 1903TIP3    H227201   6.228   4.925   4.189  1.2714 -1.1692  0.6199
 1904TIP3   OH227202   1.398   6.143   3.047  0.2506 -0.0894  0.1714
 1904TIP3    H127203   1.382   6.115   2.957  0.6252  1.0564 -0.2790
 1904TIP3    H227204   1.463   6.213   3.039 -0.6640  0.9279  1.2009
 1905TIP3   OH227205   0.004   0.635   1.227 -0.2279 -0.7069  0.5081
 1905TIP3    H127206  -0.046   0.652   1.307 -2.6367 -1.6794 -0.6836
 1905TIP3    H227207   0.021   0.541   1.229 -0.4585 -0.7699 -0.1688
 1906TIP3   OH227208   0.307   1.284  13.500 -0.4757 -0.4388 -0.0534
 1906TIP3    H127209   0.370   1.218  13.473 -0.5823 -0.3814 -0.4592
 1906TIP3    H227210   0.266   1.312  13.418  0.7242  1.3247 -0.1067
 1907TIP3   OH227211   3.927   0.297   5.937 -0.0801  0.0405 -0.0977
 1907TIP3    H127212   3.885   0.378   5.966 -0.3191 -0.4766  1.0411
 1907TIP3    H227213   3.893   0.229   5.996 -0.5319 -1.0539 -1.5382
 1908TIP3   OH227214   0.125   2.172   3.415 -0.3067 -1.0192 -0.0206
 1908TIP3    H127215   0.136   2.264   3.436 -1.0748 -1.3105  1.8557
 1908TIP3    H227216   0.030   2.159   3.416 -0.1979 -1.8642 -0.0677
 1909TIP3   OH227217   1.684   3.509   3.704 -0.0838  0.7925 -0.3826
 1909TIP3    H127218   1.646   3.562   3.633 -1.8019  0.5962  0.3562
 1909TIP3    H227219   1.663   3.557   3.784  1.0749  0.5575  0.0889
 1910TIP3   OH227220   5.980   4.140  14.573 -0.0336  0.0542  0.5609
 1910TIP3    H127221   5.975   4.105  14.662  0.6517  0.7258  0.8706
 1910TIP3    H227222   6.072   4.131  14.549  0.0027  0.8985  0.3524
 1911TIP3   OH227223   1.486   2.572  16.613 -0.3000  0.1487 -0.0212
 1911TIP3    H127224   1.438   2.491  16.626 -0.8426  0.4137 -0.3304
 1911TIP3    H227225   1.426   2.628  16.563 -0.2930  1.0653  0.9427
 1912TIP3   OH227226   0.302   0.933  12.824  0.7006  0.0554 -0.4703
 1912TIP3    H127227   0.386   0.965  12.792  0.6432  0.3639 -0.3190
 1912TIP3    H227228   0.304   0.838  12.808  1.0485  0.0718 -0.5265
 1913TIP3   OH227229   4.641   6.233   3.334 -0.1851  0.0159 -0.4053
 1913TIP3    H127230   4.596   6.262   3.254  0.1475 -0.5707 -0.8119
 1913TIP3    H227231   4.570   6.204   3.392 -0.3051 -2.9340 -1.8347
 1914TIP3   OH227232   5.567   3.883   5.081 -0.1225  0.0824 -0.5549
 1914TIP3    H127233   5.606   3.833   5.010  0.0135  0.6427 -0.8794
 1914TIP3    H227234   5.641   3.915   5.132 -0.2422 -1.5539  0.7280
 1915TIP3   OH227235   5.572   5.186   1.415  0.1210  0.4702  0.7431
 1915TIP3    H127236   5.612   5.130   1.482  0.3068  1.2297  1.2737
 1915TIP3    H227237   5.478   5.171   1.425  0.1168  1.0425  1.5867
 1916TIP3   OH227238   6.593   2.463  11.831  0.1098  0.1120 -0.4240
 1916TIP3    H127239   6.590   2.487  11.738 -1.9115 -0.7937 -0.6388
 1916TIP3    H227240   6.638   2.378  11.831  1.3411  0.7356 -0.3835
 1917TIP3   OH227241   6.029   3.029  14.037  0.0305 -0.8071 -0.0256
 1917TIP3    H127242   6.051   3.013  14.129  1.4893 -2.2969 -0.5755
 1917TIP3    H227243   6.103   2.992  13.988 -0.3385  0.6325 -1.7891
 1918TIP3   OH227244   5.399   4.248   3.417 -0.3475 -0.7287 -0.3272
 1918TIP3    H127245   5.443   4.325   3.452 -1.8652  0.2443 -0.4736
 1918TIP3    H227246   5.306   4.263   3.436 -0.8871 -1.5983 -2.0816
 1919TIP3   OH227247   4.368   4.903  16.623 -0.5148 -0.5980 -0.4254
 1919TIP3    H127248   4.355   4.995  16.645  0.2333 -0.1467 -1.7445
 1919TIP3    H227249   4.313   4.856  16.685  1.2455  0.5612  2.2147
 1920TIP3   OH227250   2.862   3.256   5.444 -0.0154  0.1908 -0.1137
 1920TIP3    H127251   2.794   3.281   5.381 -1.0642 -2.0435  0.0407
 1920TIP3    H227252   2.818   3.258   5.529  0.8063  1.0613  0.3188
 1921TIP3   OH227253   4.306   3.744   0.147 -0.6276  0.0883 -0.3469
 1921TIP3    H127254   4.229   3.698   0.113  0.5987 -1.0003 -1.7458
 1921TIP3    H227255   4.300   3.832   0.110 -1.5763  0.2572  0.1735
 1922TIP3   OH227256   3.180   4.038   2.443 -0.1975  0.1493 -0.1349
 1922TIP3    H127257   3.156   3.945   2.440 -0.8825  0.2311  1.5707
 1922TIP3    H227258   3.097   4.083   2.458  0.0929  1.0799 -1.2057
 1923TIP3   OH227259   1.725   0.747   4.009  0.1860  0.1491  0.0845
 1923TIP3    H127260   1.743   0.656   3.986  0.1625  0.6336 -2.0569
 1923TIP3    H227261   1.711   0.745   4.104  1.1867 -1.8966  0.2479
 1924TIP3   OH227262   5.183   0.325   5.144  0.4062 -0.9743  0.5021
 1924TIP3    H127263   5.235   0.398   5.177 -0.1538 -0.0202 -0.6356
 1924TIP3    H227264   5.208   0.319   5.051 -1.9614 -0.0577 -0.2454
 1925TIP3   OH227265   2.299   1.528   2.413 -0.1649  0.6178 -0.1131
 1925TIP3    H127266   2.325   1.615   2.384 -1.1509  1.0287  0.1992
 1925TIP3    H227267   2.267   1.540   2.502 -0.5047 -0.0181 -0.1412
 1926TIP3   OH227268   4.073   6.155  10.941 -0.5902 -0.2727 -0.8021
 1926TIP3    H127269   4.021   6.195  11.010 -0.4599 -1.5671  0.0865
 1926TIP3    H227270   4.062   6.213  10.865 -0.1686  1.5473  0.4746
 1927TIP3   OH227271   5.764   1.730   5.592 -0.2315  0.0471 -0.0158
 1927TIP3    H127272   5.839   1.673   5.573  1.6145  2.7039 -1.2403
 1927TIP3    H227273   5.768   1.743   5.687  1.0510  0.3341 -0.0838
 1928TIP3   OH227274   2.229   4.960   1.627  0.1115  0.3413  0.1728
 1928TIP3    H127275   2.185   5.038   1.592  0.4472  0.3030 -0.3265
 1928TIP3    H227276   2.171   4.888   1.604  0.1700  0.3545 -0.0148
 1929TIP3   OH227277   6.197   6.154   3.563  0.4153  0.1546 -0.0684
 1929TIP3    H127278   6.184   6.099   3.487 -0.8329 -1.6898  1.3890
 1929TIP3    H227279   6.237   6.234   3.529  1.3044 -1.2117 -2.4017
 1930TIP3   OH227280   4.402   3.482   2.516 -0.5785  0.6738  0.4936
 1930TIP3    H127281   4.360   3.548   2.571 -0.0582  0.9673  0.5430
 1930TIP3    H227282   4.457   3.432   2.576  0.4509  1.3734  0.1494
 1931TIP3   OH227283   4.709   0.546   2.000  0.0542 -0.5419 -0.1515
 1931TIP3    H127284   4.798   0.536   2.033 -0.0766  0.2087  0.4845
 1931TIP3    H227285   4.699   0.477   1.935  1.3618 -0.1518 -0.7965
 1932TIP3   OH227286   3.013   0.335   5.307  0.2092  0.3247  0.2626
 1932TIP3    H127287   2.951   0.365   5.240 -0.3842 -0.4906  0.4337
 1932TIP3    H227288   2.998   0.393   5.382 -0.6262 -0.1100  0.4411
 1933TIP3   OH227289   1.080   1.038   3.808  0.1100 -0.6238  0.1766
 1933TIP3    H127290   1.003   0.981   3.817 -0.3751 -0.0796 -0.4359
 1933TIP3    H227291   1.154   0.978   3.817 -0.3680 -1.0719  1.3451
 1934TIP3   OH227292   3.438   4.895   4.175 -0.2992  0.0791 -0.0441
 1934TIP3    H127293   3.452   4.984   4.209  0.6387 -0.3688  0.8070
 1934TIP3    H227294   3.365   4.861   4.227 -2.8669  1.3799 -2.4830
 1935TIP3   OH227295   2.369   6.187  15.555 -0.6626  0.2165  0.2906
 1935TIP3    H127296   2.281   6.219  15.538 -0.4521 -0.2483 -2.0902
 1935TIP3    H227297   2.366   6.153  15.644 -2.2606  2.1382  1.0442
 1936TIP3   OH227298   6.447   2.155  11.472  0.4462  0.0088 -0.9224
 1936TIP3    H127299   6.432   2.180  11.563  1.6920 -0.8256 -0.4622
 1936TIP3    H227300   6.364   2.117  11.443  0.1562 -0.0591 -0.0129
 1937TIP3   OH227301   4.905   5.225  10.338 -0.3048 -0.1104 -0.3851
 1937TIP3    H127302   4.812   5.232  10.359 -0.9155  0.9362 -3.1084
 1937TIP3    H227303   4.949   5.234  10.423 -2.5947  0.8633  0.7892
 1938TIP3   OH227304   5.754   3.258  15.460  0.3530  0.2357 -0.7821
 1938TIP3    H127305   5.676   3.202  15.459 -0.6696  1.6051 -2.0577
 1938TIP3    H227306   5.732   3.329  15.520  0.7425  0.4692 -0.9117
 1939TIP3   OH227307   5.805   0.061  14.450 -0.0446  0.7906  0.2009
 1939TIP3    H127308   5.815   0.085  14.358  1.8686 -3.0203 -0.7893
 1939TIP3    H227309   5.893   0.072  14.487 -0.0388 -0.7199  0.6881
 1940TIP3   OH227310   3.083   1.665  14.965 -0.1896  0.1214  0.2136
 1940TIP3    H127311   3.068   1.579  14.926  0.7077  0.7883 -1.7307
 1940TIP3    H227312   2.996   1.703  14.974 -0.5681 -0.8644  0.8241
 1941TIP3   OH227313   6.039   2.949  16.293 -0.2525  0.4368  0.0368
 1941TIP3    H127314   6.024   3.043  16.286  0.0907  0.5637  0.8506
 1941TIP3    H227315   6.034   2.931  16.387 -1.0825 -0.4941 -0.1738
 1942TIP3   OH227316   6.796   2.438   3.208 -0.1597 -0.3264  0.4737
 1942TIP3    H127317   6.847   2.372   3.161 -0.2159  0.7738 -1.2572
 1942TIP3    H227318   6.799   2.411   3.299  1.5814 -1.5663  0.1082
 1943TIP3   OH227319   6.161   0.185   5.391 -0.2252 -0.4504  0.2014
 1943TIP3    H127320   6.209   0.124   5.335 -1.1266 -0.5917 -0.4476
 1943TIP3    H227321   6.120   0.246   5.329 -0.4787 -0.0388  0.7692
 1944TIP3   OH227322   3.986   6.622  15.370 -0.2229 -0.2186  0.4323
 1944TIP3    H127323   3.901   6.619  15.325  0.2351  1.7725 -0.7233
 1944TIP3    H227324   4.044   6.569  15.315 -0.2556  0.1677  0.0107
 1945TIP3   OH227325   3.174   5.613   5.527 -0.4294  0.2810  0.1046
 1945TIP3    H127326   3.208   5.701   5.514  0.3892 -0.1415 -0.7338
 1945TIP3    H227327   3.094   5.625   5.578 -0.0182  1.4553  0.4930
 1946TIP3   OH227328   4.898   5.192  16.056  0.6631 -0.4634 -0.3074
 1946TIP3    H127329   4.978   5.161  16.098  2.0320  0.8284 -1.8613
 1946TIP3    H227330   4.888   5.282  16.088 -0.7678 -0.9374  0.6647
 1947TIP3   OH227331   1.629   3.564  15.552  0.3253  0.2109  0.6812
 1947TIP3    H127332   1.543   3.539  15.586  0.7643 -3.3887 -0.4338
 1947TIP3    H227333   1.691   3.527  15.615  1.0432 -1.5270 -0.9368
 1948TIP3   OH227334   1.542   5.786  11.044 -0.1334 -0.0449  0.8065
 1948TIP3    H127335   1.615   5.794  10.982 -0.6254 -0.1220  0.2108
 1948TIP3    H227336   1.518   5.694  11.042 -1.7326  0.3540 -0.7447
 1949TIP3   OH227337   6.485   4.202  13.841  0.3200 -0.0221  0.8250
 1949TIP3    H127338   6.420   4.144  13.881  0.0943  0.4277  1.1096
 1949TIP3    H227339   6.552   4.214  13.909  1.3302 -1.4240  0.1519
 1950TIP3   OH227340   2.367   2.980  11.774  0.8609 -0.4533  0.0820
 1950TIP3    H127341   2.452   3.019  11.795  1.0148 -0.7677  0.0667
 1950TIP3    H227342   2.390   2.902  11.722  0.5213 -0.0444 -0.6980
 1951TIP3   OH227343   6.292   4.563   2.594  0.0812  0.0132  0.3001
 1951TIP3    H127344   6.208   4.604   2.617 -0.4960  0.2963 -2.0896
 1951TIP3    H227345   6.355   4.605   2.653 -1.2712  0.5132  1.4814
 1952TIP3   OH227346   3.364   0.090   2.262  0.5789  0.3796  0.5696
 1952TIP3    H127347   3.436   0.077   2.200 -0.5985 -0.7231 -0.6176
 1952TIP3    H227348   3.285   0.084   2.208 -0.4235  1.2534  1.8965
 1953TIP3   OH227349   5.122   2.358  11.583 -0.0451  0.5324  0.8736
 1953TIP3    H127350   5.065   2.282  11.574  0.3932  0.3685 -0.8420
 1953TIP3    H227351   5.160   2.349  11.671  0.0486 -1.2681  0.6806
 1954TIP3   OH227352   4.631   0.802   1.347 -0.0297  0.1637  0.3575
 1954TIP3    H127353   4.596   0.749   1.275  0.1979 -0.3477  0.6202
 1954TIP3    H227354   4.635   0.741   1.422  0.1628  0.5709  0.6796
 1955TIP3   OH227355   3.674   0.407   0.014 -0.2057 -0.2101  0.0184
 1955TIP3    H127356   3.722   0.355  -0.050 -0.2151  0.1125 -0.2503
 1955TIP3    H227357   3.584   0.408  -0.018 -0.0626  0.5834 -0.3680
 1956TIP3   OH227358   0.763   2.586   6.614  0.1100 -0.3598 -0.0693
 1956TIP3    H127359   0.677   2.544   6.607  0.0944 -0.1562 -1.2709
 1956TIP3    H227360   0.765   2.621   6.703 -0.0890 -2.4049  0.7909
 1957TIP3   OH227361   4.844   5.674  13.990  0.5679  0.2626  0.2804
 1957TIP3    H127362   4.903   5.661  14.064 -0.8862  1.0156  1.6294
 1957TIP3    H227363   4.828   5.769  13.989  1.0211  0.3454 -1.3809
 1958TIP3   OH227364   4.486   5.840   6.360 -0.4556 -0.3934  0.2122
 1958TIP3    H127365   4.443   5.916   6.321 -0.4358  0.3110  1.5031
 1958TIP3    H227366   4.561   5.877   6.408 -0.0111 -1.3071  0.2501
 1959TIP3   OH227367   4.716   6.803   4.826  0.2972  0.0234 -0.1915
 1959TIP3    H127368   4.680   6.854   4.754 -1.5956 -1.8812 -0.6680
 1959TIP3    H227369   4.649   6.806   4.894  1.2790  0.2635  0.8088
 1960TIP3   OH227370   4.732   0.188  12.880  0.2153 -0.2477  0.6284
 1960TIP3    H127371   4.800   0.125  12.857 -0.3107 -0.3743 -0.6422
 1960TIP3    H227372   4.680   0.144  12.948 -0.2016 -1.2477 -0.3070
 1961TIP3   OH227373   4.338   4.489   2.904  0.3670 -0.2296  0.2195
 1961TIP3    H127374   4.365   4.418   2.962  0.0667 -0.3817  0.1721
 1961TIP3    H227375   4.418   4.540   2.890  0.9496 -1.4094 -0.9630
 1962TIP3   OH227376   4.853   2.429  15.297 -0.0653  0.0619 -0.2674
 1962TIP3    H127377   4.867   2.451  15.389 -0.6451 -1.5697  0.2546
 1962TIP3    H227378   4.868   2.511  15.250  1.7055  0.6093  1.1177
 1963TIP3   OH227379   6.817   1.173  12.596 -0.1785 -0.3711  0.3128
 1963TIP3    H127380   6.909   1.147  12.588  0.3909  0.3714  3.3104
 1963TIP3    H227381   6.782   1.117  12.665 -1.4096  0.7375  0.6190
 1964TIP3   OH227382   4.358   1.562   3.704 -0.1405 -0.4325  0.2479
 1964TIP3    H127383   4.446   1.574   3.739  0.0466  0.5719 -0.5073
 1964TIP3    H227384   4.331   1.650   3.675 -1.2673 -0.7752  0.1873
 1965TIP3   OH227385   3.224   0.706   2.295 -0.0588 -0.1029 -0.2640
 1965TIP3    H127386   3.169   0.752   2.231  0.8270  1.7406  0.2184
 1965TIP3    H227387   3.197   0.615   2.289 -0.1335  0.0341 -3.1342
 1966TIP3   OH227388   4.530   2.108   1.289 -0.2489 -0.1602  0.2816
 1966TIP3    H127389   4.581   2.152   1.220  0.0936 -0.5483  0.2837
 1966TIP3    H227390   4.483   2.179   1.332 -0.6585  0.0640 -0.5101
 1967TIP3   OH227391   0.406   2.086  10.560 -0.7974 -0.4913  0.0092
 1967TIP3    H127392   0.497   2.093  10.591 -0.4844 -4.2199  0.4356
 1967TIP3    H227393   0.356   2.141  10.620  0.9932  0.5060  0.6659
 1968TIP3   OH227394   0.345   1.168  12.571 -0.1482  0.1055  0.5135
 1968TIP3    H127395   0.379   1.078  12.561 -1.5555 -0.2838 -1.1787
 1968TIP3    H227396   0.312   1.191  12.484 -1.2307  1.6948  1.3048
 1969TIP3   OH227397   6.355   1.843   3.276  0.3560 -0.6058  0.0519
 1969TIP3    H127398   6.419   1.773   3.262  0.3667 -0.6618  0.3737
 1969TIP3    H227399   6.310   1.851   3.192 -0.0306 -1.3879  0.1785
 1970TIP3   OH227400   2.417   3.747   5.730  0.2682  0.1478  0.2696
 1970TIP3    H127401   2.469   3.822   5.702  0.4461  0.7410  2.0542
 1970TIP3    H227402   2.334   3.785   5.760 -0.2119 -0.5210 -0.1955
 1971TIP3   OH227403   1.416   2.101   5.514 -0.0883 -0.0476 -0.3841
 1971TIP3    H127404   1.395   2.182   5.561 -1.8716 -0.8365  0.2721
 1971TIP3    H227405   1.450   2.042   5.582  1.3871  0.1761 -0.8933
 1972TIP3   OH227406   6.555   1.828   5.935 -1.0016  0.1864 -0.0750
 1972TIP3    H127407   6.647   1.818   5.910 -1.3492 -0.4374 -1.1470
 1972TIP3    H227408   6.558   1.880   6.015  0.2640  0.5860 -0.3540
 1973TIP3   OH227409   2.266   6.212   5.170  0.2142 -0.0620 -0.0810
 1973TIP3    H127410   2.250   6.214   5.264 -1.5812  0.7142 -0.3684
 1973TIP3    H227411   2.339   6.272   5.156 -1.9305  2.8799  0.4574
 1974TIP3   OH227412   2.607   1.845  11.722 -0.2638 -0.2506  0.3956
 1974TIP3    H127413   2.673   1.891  11.670  0.0485 -0.7441  0.3423
 1974TIP3    H227414   2.624   1.871  11.812 -0.1399 -0.1982  0.3571
 1975TIP3   OH227415   4.740   2.901  16.956  0.9545 -0.1903  0.1836
 1975TIP3    H127416   4.741   2.819  17.006 -0.3200 -0.7123 -0.6209
 1975TIP3    H227417   4.734   2.969  17.023  0.1741 -0.8372  0.7870
 1976TIP3   OH227418   4.751   1.631  11.881 -0.4726 -0.4583  0.4316
 1976TIP3    H127419   4.694   1.706  11.894 -1.9120 -1.3709 -0.3482
 1976TIP3    H227420   4.766   1.597  11.970  0.5975  0.9803  0.8446
 1977TIP3   OH227421   3.055   6.019  17.002  0.1649  0.1188  0.3723
 1977TIP3    H127422   3.097   6.081  16.943 -2.8519  1.8418 -0.1637
 1977TIP3    H227423   3.049   6.065  17.085  0.3191 -0.5113  0.7338
 1978TIP3   OH227424   5.824   0.177  12.738  0.2687  0.7518  0.6353
 1978TIP3    H127425   5.848   0.136  12.654 -1.8261 -0.2650  0.4616
 1978TIP3    H227426   5.844   0.270  12.726  0.6168  0.5258 -0.7429
 1979TIP3   OH227427   6.472   2.664   3.271  0.5812 -0.1263 -0.5644
 1979TIP3    H127428   6.404   2.718   3.232  0.4122  0.2204  0.1792
 1979TIP3    H227429   6.457   2.671   3.366  1.9810  0.4056 -0.3466
 1980TIP3   OH227430   3.470   6.027   3.747  0.6946 -0.4014  0.7045
 1980TIP3    H127431   3.388   5.980   3.735  2.0160 -2.4734 -0.9667
 1980TIP3    H227432   3.537   5.958   3.750  2.7050  1.2952 -1.3833
 1981TIP3   OH227433   4.214   4.815   0.077  0.1046  0.4829  0.1628
 1981TIP3    H127434   4.133   4.858   0.106 -0.5630 -0.2412 -0.5665
 1981TIP3    H227435   4.187   4.763   0.001  1.3180  0.4466 -0.2596
 1982TIP3   OH227436   0.540   5.501  11.050  0.0652 -0.0516 -0.1812
 1982TIP3    H127437   0.494   5.574  11.007 -0.5321 -0.3924 -0.1277
 1982TIP3    H227438   0.577   5.451  10.977  2.0214  1.2683 -0.1745
 1983TIP3   OH227439   0.241   4.511   2.826 -0.1427  0.0088 -0.2285
 1983TIP3    H127440   0.274   4.522   2.915  1.4363 -1.6032 -0.5644
 1983TIP3    H227441   0.172   4.445   2.834 -0.5420  0.4391 -0.0972
 1984TIP3   OH227442   1.938   0.958   1.456 -0.5491  0.1077  0.6420
 1984TIP3    H127443   1.845   0.936   1.443  0.0055 -1.0442 -1.9968
 1984TIP3    H227444   1.984   0.904   1.392  1.7611  2.2295  0.3881
 1985TIP3   OH227445   5.957   2.313  14.064  0.4649 -0.9318 -0.4136
 1985TIP3    H127446   5.986   2.240  14.118 -0.4627 -2.0498 -1.3684
 1985TIP3    H227447   5.897   2.273  14.001  0.6130  0.5234 -1.5110
 1986TIP3   OH227448   0.061   0.116  15.293 -0.0297 -0.0748  0.4226
 1986TIP3    H127449  -0.009   0.177  15.313 -0.9462 -1.7988  3.0990
 1986TIP3    H227450   0.133   0.170  15.262 -1.7544  1.9760 -0.2260
 1987TIP3   OH227451   6.213   2.699   3.877  0.0231 -0.1956 -0.2786
 1987TIP3    H127452   6.121   2.675   3.885 -0.1352  0.8381  1.5312
 1987TIP3    H227453   6.214   2.794   3.891  1.3316 -0.1540 -0.5367
 1988TIP3   OH227454   4.623   0.521   5.889 -0.1448 -0.4063 -0.0640
 1988TIP3    H127455   4.699   0.525   5.831  1.2422 -2.1297  1.4841
 1988TIP3    H227456   4.568   0.452   5.852  1.3590 -2.4194  1.2113
 1989TIP3   OH227457   5.644   5.613   2.395  0.2709  0.0667 -0.6526
 1989TIP3    H127458   5.671   5.536   2.345  0.0725 -0.2702 -0.2526
 1989TIP3    H227459   5.550   5.620   2.380  0.4683  0.9044 -1.5918
 1990TIP3   OH227460   5.650   5.600  11.978  0.1433  0.0687  0.3404
 1990TIP3    H127461   5.595   5.548  11.919  0.5135 -2.3773  2.0092
 1990TIP3    H227462   5.726   5.624  11.925 -0.2354 -0.7601 -0.6167
 1991TIP3   OH227463   3.475   4.851  12.830  0.4426  0.6530  0.0854
 1991TIP3    H127464   3.492   4.791  12.903  0.4677  1.2787  0.6043
 1991TIP3    H227465   3.395   4.897  12.854  0.5103  0.9456 -0.2314
 1992TIP3   OH227466   1.201   6.584  13.911 -1.0498 -0.7165  0.1147
 1992TIP3    H127467   1.109   6.560  13.926 -1.3612 -0.1942 -0.8431
 1992TIP3    H227468   1.230   6.619  13.995 -2.2384  0.6350  0.0143
 1993TIP3   OH227469   2.953   6.802  12.592  0.3257 -0.0306 -0.3189
 1993TIP3    H127470   2.865   6.767  12.601  0.6879 -1.4131 -1.6445
 1993TIP3    H227471   2.944   6.876  12.531 -0.0031  0.2132  0.0268
 1994TIP3   OH227472   3.137   5.136   1.233 -0.6421 -0.3675 -0.2209
 1994TIP3    H127473   3.194   5.062   1.253 -1.0862 -0.7814 -0.4819
 1994TIP3    H227474   3.066   5.129   1.297 -1.0216 -0.5446 -0.6565
 1995TIP3   OH227475   4.635   5.180   3.835  0.3187 -0.4354 -0.4546
 1995TIP3    H127476   4.554   5.230   3.828  0.3148 -0.4135 -0.2473
 1995TIP3    H227477   4.702   5.239   3.800  0.2770 -0.3785 -0.4390
 1996TIP3   OH227478   4.002   3.245   4.828 -0.3941 -0.2481 -0.2512
 1996TIP3    H127479   4.001   3.308   4.900 -0.9337 -0.7140  0.1610
 1996TIP3    H227480   3.918   3.199   4.835 -1.1476  0.7304 -2.1092
 1997TIP3   OH227481   2.293   3.949  15.387  0.4181 -0.6420 -0.1340
 1997TIP3    H127482   2.331   4.024  15.433  0.4370 -1.2234  0.8033
 1997TIP3    H227483   2.368   3.904  15.349  0.4670 -0.5734 -0.1200
 1998TIP3   OH227484   3.934   2.166  12.668  0.4561 -0.5305 -0.4867
 1998TIP3    H127485   3.839   2.153  12.660  0.6081 -1.4260 -0.9237
 1998TIP3    H227486   3.962   2.193  12.581  0.2891  2.0722  0.1695
 1999TIP3   OH227487   6.522   6.350  16.706 -0.1379 -0.2923  0.2590
 1999TIP3    H127488   6.562   6.436  16.695 -1.3449  0.2639  0.1065
 1999TIP3    H227489   6.577   6.306  16.771 -0.4340  1.1820  1.5518
 2000TIP3   OH227490   6.770   2.145   0.591 -0.3574  0.4667 -0.3336
 2000TIP3    H127491   6.712   2.074   0.620 -2.3281  2.1152  0.0159
 2000TIP3    H227492   6.780   2.131   0.497 -2.4244  0.8070 -0.6656
 2001TIP3   OH227493   3.956   5.607   3.118 -0.5385  0.1503 -0.1534
 2001TIP3    H127494   3.925   5.552   3.046 -0.7815 -3.0501  2.1707
 2001TIP3    H227495   4.051   5.592   3.120 -0.4505  0.6874 -0.1403
 2002TIP3   OH227496   4.989   4.641   1.359 -0.0085  1.0886  0.4386
 2002TIP3    H127497   4.918   4.579   1.369 -1.1655  2.3839  0.6084
 2002TIP3    H227498   4.994   4.686   1.444  2.7476 -0.6935  1.3306
 2003TIP3   OH227499   4.030   2.243  15.826 -0.2470  0.6198 -0.2423
 2003TIP3    H127500   4.111   2.193  15.812 -0.3256 -0.0862  1.5317
 2003TIP3    H227501   3.990   2.201  15.903 -1.4439  2.0329 -0.0683
 2004TIP3   OH227502   3.984   3.262  16.545 -0.2314 -0.3258  0.0572
 2004TIP3    H127503   4.019   3.313  16.617  1.5715 -1.3018 -0.0718
 2004TIP3    H227504   3.907   3.219  16.582 -0.5523  0.8013  0.7608
 2005TIP3   OH227505   3.716   0.866   4.398 -0.0908  0.0765 -0.3276
 2005TIP3    H127506   3.681   0.900   4.315 -1.3516 -0.6154 -0.0870
 2005TIP3    H227507   3.717   0.771   4.387  0.7082  0.0236  0.0887
 2006TIP3   OH227508   2.078   6.224  11.369 -0.2865 -0.1044  0.1391
 2006TIP3    H127509   1.999   6.220  11.422 -1.5685  1.0479 -1.5871
 2006TIP3    H227510   2.104   6.316  11.371  0.9389 -0.4393  0.5343
 2007TIP3   OH227511   0.672   6.218   0.341  0.2752 -0.0998 -0.2291
 2007TIP3    H127512   0.646   6.127   0.353 -2.7794  0.6803 -0.0733
 2007TIP3    H227513   0.680   6.253   0.429 -0.2362  0.1738 -0.2857
 2008TIP3   OH227514   0.368   2.208  16.106 -0.6845  0.1543 -0.2378
 2008TIP3    H127515   0.392   2.219  16.198  1.3560 -0.1172 -0.6904
 2008TIP3    H227516   0.428   2.140  16.074 -1.1431  0.4759 -1.8428
 2009TIP3   OH227517   0.524   3.980   6.429 -0.2407  0.3444 -0.9357
 2009TIP3    H127518   0.448   3.999   6.374 -0.2550  1.7656 -0.4658
 2009TIP3    H227519   0.544   4.064   6.472  1.3750 -0.0851 -0.7853
 2010TIP3   OH227520   0.044   0.076  12.611 -1.1597  0.7608  0.1348
 2010TIP3    H127521  -0.045   0.054  12.636 -0.4557 -0.1863  2.0060
 2010TIP3    H227522   0.068   0.011  12.545 -1.0857 -0.4770  1.3523
 2011TIP3   OH227523   3.486   0.433   2.854  0.3231 -0.1560 -0.2562
 2011TIP3    H127524   3.529   0.491   2.916 -4.2017  1.3806  1.8545
 2011TIP3    H227525   3.486   0.347   2.897  0.2719  0.0888  0.2378
 2012TIP3   OH227526   4.129   2.286   4.516 -0.6034  0.2732 -0.3298
 2012TIP3    H127527   4.154   2.254   4.603  0.2893 -1.3689 -1.1529
 2012TIP3    H227528   4.037   2.262   4.508 -0.2427 -1.1642 -0.4844
 2013TIP3   OH227529   3.514   2.809  13.487  0.2424 -0.7034  1.1634
 2013TIP3    H127530   3.440   2.871  13.494  1.0226  0.1639  2.1346
 2013TIP3    H227531   3.590   2.865  13.472  0.5032 -1.7067 -1.7343
 2014TIP3   OH227532   0.104   5.421  15.448 -0.1245 -0.6447  0.6231
 2014TIP3    H127533   0.132   5.502  15.406  1.3698 -1.3936  0.1129
 2014TIP3    H227534   0.139   5.351  15.392 -3.2696 -1.7047 -0.1959
 2015TIP3   OH227535   2.902   4.129   0.969  0.0729 -0.2928 -0.1036
 2015TIP3    H127536   2.972   4.163   1.025  0.4678 -1.0844 -0.1131
 2015TIP3    H227537   2.835   4.098   1.030 -1.1405  2.1306 -0.0717
 2016TIP3   OH227538   6.176   4.299   3.537  0.2045 -0.5976  0.0545
 2016TIP3    H127539   6.097   4.289   3.589 -0.4103 -0.1119 -0.7614
 2016TIP3    H227540   6.248   4.292   3.600 -0.5216  0.2237  0.9935
 2017TIP3   OH227541   0.338   6.490   4.610  0.0959 -0.4512 -0.2681
 2017TIP3    H127542   0.380   6.575   4.624 -0.5727 -0.1387 -0.1258
 2017TIP3    H227543   0.400   6.426   4.646  0.6272 -0.0316 -0.4319
 2018TIP3   OH227544   1.218   3.283  13.422 -0.0730 -0.3558 -0.2749
 2018TIP3    H127545   1.160   3.295  13.347 -0.2561  0.3922 -0.0258
 2018TIP3    H227546   1.297   3.243  13.386  0.0052  0.3720 -0.9317
 2019TIP3   OH227547   1.602   5.532   0.043  0.0032  0.1835 -0.1745
 2019TIP3    H127548   1.607   5.628   0.050 -1.3506  0.1808  1.5003
 2019TIP3    H227549   1.691   5.502   0.063  0.2868  1.0608 -0.0711
 2020TIP3   OH227550   6.310   4.008   0.121  0.0082  0.2357 -0.0588
 2020TIP3    H127551   6.217   3.987   0.113 -0.1111  0.8006 -0.1764
 2020TIP3    H227552   6.338   3.963   0.201 -1.1737  2.7948  1.9771
 2021TIP3   OH227553   3.226   2.347  11.589 -0.2364 -0.4537  0.4718
 2021TIP3    H127554   3.286   2.293  11.538 -0.7103  1.1591 -2.0248
 2021TIP3    H227555   3.280   2.419  11.622 -0.5196  0.3750 -0.7955
 2022TIP3   OH227556   1.346   3.917  11.504 -0.1564  0.2227  0.2654
 2022TIP3    H127557   1.324   4.009  11.517  2.3821  1.2488 -1.7958
 2022TIP3    H227558   1.309   3.895  11.418 -1.3607 -0.9611  1.0412
 2023TIP3   OH227559   2.140   4.204   0.737  0.0448  0.2664 -0.3496
 2023TIP3    H127560   2.102   4.132   0.787 -2.9898  0.3179 -2.3663
 2023TIP3    H227561   2.218   4.167   0.696 -1.1874 -1.7979 -0.9532
 2024TIP3   OH227562   2.306   6.698  13.817 -0.0625  0.0792 -0.0819
 2024TIP3    H127563   2.352   6.618  13.843  0.9412  0.2609 -1.1689
 2024TIP3    H227564   2.316   6.701  13.722 -0.0077  1.5363 -0.0539
 2025TIP3   OH227565   3.114   2.541   4.521  0.0838 -0.0739  0.3946
 2025TIP3    H127566   3.145   2.452   4.505  0.1574  0.1846 -0.9517
 2025TIP3    H227567   3.140   2.591   4.444  0.7508  1.3257  1.4530
 2026TIP3   OH227568   0.007   4.242  16.287  0.0390 -0.6701 -0.4440
 2026TIP3    H127569   0.043   4.310  16.230 -2.1802  1.0304  0.0415
 2026TIP3    H227570   0.053   4.253  16.370 -0.9410  0.9051 -0.0816
 2027TIP3   OH227571   4.976   6.055  10.372  0.1670 -0.3960 -0.3970
 2027TIP3    H127572   4.923   5.975  10.372  1.3901 -1.2865  1.0867
 2027TIP3    H227573   5.064   6.024  10.350  0.4345  0.7436 -0.9775
 2028TIP3   OH227574   5.461   0.375  16.227 -0.3742  1.1303 -0.4410
 2028TIP3    H127575   5.391   0.415  16.175 -0.0114  0.5880 -1.3734
 2028TIP3    H227576   5.415   0.324  16.294 -0.8394  3.1436  0.8447
 2029TIP3   OH227577   3.446   1.177   5.100 -0.3104  0.3291 -0.5646
 2029TIP3    H127578   3.487   1.252   5.143 -0.3640  0.2876 -0.4397
 2029TIP3    H227579   3.492   1.168   5.017  0.8690 -0.5629  0.1508
 2030TIP3   OH227580   5.542   5.544   2.989 -0.2525  0.4533 -0.3704
 2030TIP3    H127581   5.514   5.454   3.009 -0.0436  0.0808 -1.6465
 2030TIP3    H227582   5.536   5.590   3.073 -0.5989 -0.6877  0.2602
 2031TIP3   OH227583   2.287   3.643   0.449  0.3271 -0.8182  0.1153
 2031TIP3    H127584   2.307   3.662   0.358 -0.0720  0.6259  0.3008
 2031TIP3    H227585   2.367   3.605   0.485  2.1642  2.8295  0.3078
 2032TIP3   OH227586   5.043   0.238  12.152 -0.0040  0.7009 -0.2828
 2032TIP3    H127587   5.069   0.264  12.240  0.5331  0.0333 -0.2385
 2032TIP3    H227588   4.949   0.218  12.160  0.1111  0.3530  0.2044
 2033TIP3   OH227589   2.838   6.789   1.216 -0.2478  0.5040 -0.0799
 2033TIP3    H127590   2.753   6.802   1.259 -0.3196 -1.8494  0.6188
 2033TIP3    H227591   2.903   6.812   1.282 -0.3709 -1.2101  0.6901
 2034TIP3   OH227592   4.906   1.076  14.631 -0.0795 -0.3927  0.8722
 2034TIP3    H127593   4.942   1.140  14.570 -0.1851  0.6591  1.8896
 2034TIP3    H227594   4.946   1.098  14.715 -0.6850 -1.2080  1.3830
 2035TIP3   OH227595   3.309   5.274   3.649  0.2759  0.4409 -0.2698
 2035TIP3    H127596   3.326   5.241   3.737 -1.4498  1.0412  0.3354
 2035TIP3    H227597   3.252   5.207   3.610  2.4600 -0.7431 -1.6540
 2036TIP3   OH227598   2.606   5.671   4.637 -0.9442  0.2988  0.1284
 2036TIP3    H127599   2.623   5.683   4.544 -0.8343 -0.7692  0.0084
 2036TIP3    H227600   2.660   5.737   4.680 -0.2170  0.1235 -0.5080
 2037TIP3   OH227601   5.234   1.538  14.696  0.1157  0.0366 -0.4191
 2037TIP3    H127602   5.182   1.589  14.757  0.2326 -0.5248  0.1577
 2037TIP3    H227603   5.310   1.594  14.677  0.7691 -0.3202  1.0158
 2038TIP3   OH227604   6.677   0.043   5.740 -0.3506  0.7304  0.2195
 2038TIP3    H127605   6.653   0.074   5.828 -1.2428  1.0230 -0.1133
 2038TIP3    H227606   6.632  -0.042   5.732  1.6848 -0.5012  0.9390
 2039TIP3   OH227607   3.807   4.136  16.907  0.0972 -0.0535 -0.3457
 2039TIP3    H127608   3.874   4.172  16.965 -0.0702  1.5994 -1.1182
 2039TIP3    H227609   3.732   4.193  16.919 -0.8962 -1.3499 -0.1562
 2040TIP3   OH227610   5.167   1.707  15.184  0.3920  0.4573 -0.5114
 2040TIP3    H127611   5.235   1.663  15.234  0.6693  1.0679 -0.3432
 2040TIP3    H227612   5.143   1.782  15.237  1.0511  1.4117 -1.5093
 2041TIP3   OH227613   4.806   2.610  16.980  0.2653  0.4695  0.0750
 2041TIP3    H127614   4.772   2.520  16.979  2.3453 -0.4022 -1.6411
 2041TIP3    H227615   4.761   2.654  16.908 -0.0511  0.4991  0.2923
 2042TIP3   OH227616   0.044   4.330  17.092  0.2228  0.6661  0.1421
 2042TIP3    H127617   0.019   4.260  17.153 -0.7540  0.5203 -0.3984
 2042TIP3    H227618   0.055   4.285  17.008 -1.1406  1.2456 -0.3725
 2043TIP3   OH227619   5.076   3.634   1.698  0.4551 -0.2654  0.0215
 2043TIP3    H127620   5.022   3.619   1.776 -2.2365 -1.6598 -1.9359
 2043TIP3    H227621   5.125   3.553   1.686 -1.9741 -1.6388 -1.6516
 2044TIP3   OH227622   5.104   6.445  16.126 -0.5468  0.4337  0.2803
 2044TIP3    H127623   5.106   6.400  16.210  1.0721  0.8409  0.4767
 2044TIP3    H227624   5.160   6.393  16.069 -0.3561  1.0328 -0.0891
 2045TIP3   OH227625   1.605   1.195  12.275  0.6217  0.1909  0.2868
 2045TIP3    H127626   1.516   1.165  12.295  0.5137  1.1492  1.3227
 2045TIP3    H227627   1.641   1.126  12.219 -0.7814 -0.1869 -0.1902
 2046TIP3   OH227628   3.774   5.881   1.372 -0.0419 -0.0408 -0.4177
 2046TIP3    H127629   3.798   5.815   1.437  2.2399  1.7857  0.6942
 2046TIP3    H227630   3.825   5.857   1.294  1.0650  0.5962  0.1018
 2047TIP3   OH227631   4.783   0.339   3.515  0.6872 -0.0338  0.2759
 2047TIP3    H127632   4.797   0.333   3.420 -1.4714  0.9363 -0.1648
 2047TIP3    H227633   4.802   0.430   3.536  2.2698 -0.5028  1.0347
 2048TIP3   OH227634   0.166   6.168  15.935 -0.2736 -0.0509 -0.1016
 2048TIP3    H127635   0.215   6.089  15.913  0.3287  0.3123 -0.0778
 2048TIP3    H227636   0.085   6.136  15.974  0.3017 -0.6513  0.6180
 2049TIP3   OH227637   0.097   2.430  15.104 -0.5824  0.4697 -0.2942
 2049TIP3    H127638   0.101   2.441  15.199  1.5207 -1.3741 -0.0883
 2049TIP3    H227639   0.138   2.346  15.087  1.1599  1.6975 -2.9997
 2050TIP3   OH227640   6.643   0.915  16.623  0.2122  0.0009  0.0609
 2050TIP3    H127641   6.609   0.856  16.690 -0.8740 -0.0631 -0.5225
 2050TIP3    H227642   6.670   0.858  16.552 -2.3669  0.1953 -1.1986
 2051TIP3   OH227643   5.082   5.629  16.667  0.2794  0.6237 -0.2017
 2051TIP3    H127644   4.997   5.672  16.663 -1.3441 -2.2444  0.4346
 2051TIP3    H227645   5.131   5.666  16.594 -1.8276  1.7528 -1.1407
 2052TIP3   OH227646   5.661   1.111  12.660  0.1451  0.2540  0.1869
 2052TIP3    H127647   5.626   1.028  12.628  2.2507  0.2652 -2.6085
 2052TIP3    H227648   5.725   1.086  12.727  1.2121 -0.4957 -1.0669
 2053TIP3   OH227649   0.781   0.964   5.466 -0.1975 -0.2540  0.0709
 2053TIP3    H127650   0.733   0.929   5.541 -2.4062  1.3854 -0.4622
 2053TIP3    H227651   0.773   0.896   5.399 -0.1487 -0.7720  0.5771
 2054TIP3   OH227652   0.366   3.637   5.710 -0.3794 -0.6910  0.0539
 2054TIP3    H127653   0.298   3.688   5.754  0.8499  0.3941  0.7855
 2054TIP3    H227654   0.346   3.645   5.617 -0.3516  0.9876  0.1630
 2055TIP3   OH227655   2.183   4.391   3.873  0.4925  0.4852  0.6020
 2055TIP3    H127656   2.220   4.447   3.941 -0.7514  0.9255  0.9463
 2055TIP3    H227657   2.215   4.428   3.791  0.9516  0.7363  0.8881
 2056TIP3   OH227658   2.624   4.356  17.010  0.2351 -0.1589 -0.2382
 2056TIP3    H127659   2.669   4.435  17.041  0.7323 -1.0417  1.4113
 2056TIP3    H227660   2.681   4.321  16.942  0.7602  0.1157  0.0502
 2057TIP3   OH227661   5.728   5.468   3.486  0.7032  0.2514 -0.3451
 2057TIP3    H127662   5.752   5.505   3.571 -2.5535 -1.3584  1.4389
 2057TIP3    H227663   5.634   5.479   3.480  0.7369 -0.2450 -3.5430
 2058TIP3   OH227664   4.901   4.602  13.941  0.2572 -0.8053  0.0918
 2058TIP3    H127665   4.991   4.634  13.938  0.1981 -0.5831 -2.7542
 2058TIP3    H227666   4.901   4.523  13.887 -1.1610 -1.0582  0.4041
 2059TIP3   OH227667   3.023   6.758   4.632 -0.4581  0.0630  0.0790
 2059TIP3    H127668   3.004   6.851   4.621 -0.8973  0.4351  3.0316
 2059TIP3    H227669   2.943   6.721   4.670 -0.4200 -1.6239 -1.3687
 2060TIP3   OH227670   3.060   6.775  14.595  0.3485 -1.0847  0.0458
 2060TIP3    H127671   3.044   6.755  14.503 -0.2654  0.1433 -0.1348
 2060TIP3    H227672   3.066   6.870  14.598 -0.3587 -1.0580  1.3838
 2061TIP3   OH227673   0.096   2.540  15.991 -0.1543 -0.3926  0.1935
 2061TIP3    H127674   0.145   2.470  15.949  0.7005  1.2861 -1.7950
 2061TIP3    H227675   0.055   2.587  15.918 -0.9011  1.0057  1.4725
 2062TIP3   OH227676   2.470   2.036  12.068 -0.0553 -0.3721 -0.6285
 2062TIP3    H127677   2.520   2.115  12.091 -0.4315  0.2468 -1.8425
 2062TIP3    H227678   2.535   1.975  12.035  0.2582 -0.6340  0.4387
 2063TIP3   OH227679   6.231   2.893  15.017 -0.1403  0.4416  0.4890
 2063TIP3    H127680   6.200   2.958  15.080  0.8338  0.7405  0.6786
 2063TIP3    H227681   6.309   2.932  14.978  1.3956 -1.2427  1.7224
 2064TIP3   OH227682   5.177   1.532   3.474  0.0559  0.2900  0.3206
 2064TIP3    H127683   5.087   1.526   3.506  0.6553  0.2952  2.1412
 2064TIP3    H227684   5.194   1.447   3.434 -0.4427 -0.0660  0.8509
 2065TIP3   OH227685   3.375   3.628   3.888 -0.3795  0.2681 -0.0690
 2065TIP3    H127686   3.287   3.599   3.865  0.0719 -0.2264 -1.2021
 2065TIP3    H227687   3.399   3.691   3.820 -1.0276  2.8479  1.8896
 2066TIP3   OH227688   1.695   5.075  12.499  0.1806 -0.4374  0.2989
 2066TIP3    H127689   1.724   4.992  12.537  0.5499 -0.5875 -0.2994
 2066TIP3    H227690   1.682   5.133  12.575 -1.5349 -1.4747  0.8589
 2067TIP3   OH227691   5.780   3.702   1.726  0.7594 -0.9364 -0.7281
 2067TIP3    H127692   5.804   3.772   1.665  0.5537 -0.6221 -0.4510
 2067TIP3    H227693   5.789   3.622   1.674  2.5636 -0.8615 -0.5769
 2068TIP3   OH227694   2.516   0.302   3.029 -0.0052 -0.0059  0.1547
 2068TIP3    H127695   2.440   0.310   2.972  0.5076  0.0588 -0.5286
 2068TIP3    H227696   2.590   0.290   2.970  0.5456  0.1065  0.8027
 2069TIP3   OH227697   2.165   2.760  10.188  0.2176  0.2335 -0.1739
 2069TIP3    H127698   2.180   2.821  10.261  0.0367 -0.5673  0.5588
 2069TIP3    H227699   2.108   2.692  10.226 -1.1741  0.6093 -1.4890
 2070TIP3   OH227700   6.800   3.532  11.412  0.3527  0.1452  0.4964
 2070TIP3    H127701   6.848   3.464  11.365  0.6333 -0.9472  2.2624
 2070TIP3    H227702   6.718   3.490  11.439  0.7358  0.3073  2.0292
 2071TIP3   OH227703   1.186   4.371  12.073 -0.3056  0.2538  0.0966
 2071TIP3    H127704   1.162   4.434  12.141 -1.7421  0.8766 -0.9114
 2071TIP3    H227705   1.119   4.304  12.078  1.1290 -1.1772  1.0530
 2072TIP3   OH227706   2.292   2.935   2.558 -0.6275 -0.1067 -0.4101
 2072TIP3    H127707   2.316   3.019   2.595 -0.9929 -0.2265  0.1068
 2072TIP3    H227708   2.218   2.905   2.611  0.3064 -1.3474  0.2712
 2073TIP3   OH227709   1.167   6.777   0.475  0.0432  0.2596 -0.3110
 2073TIP3    H127710   1.138   6.804   0.388  1.1014 -0.3131 -0.8656
 2073TIP3    H227711   1.088   6.745   0.518 -0.5026  0.6075 -1.0430
 2074TIP3   OH227712   2.813   3.914   2.486 -0.6186  0.6371 -0.0621
 2074TIP3    H127713   2.882   3.868   2.440  1.2496  0.9445  2.2319
 2074TIP3    H227714   2.845   4.003   2.497 -1.9128  1.1197  0.0249
 2075TIP3   OH227715   5.565   0.832  13.832  0.6002  0.3570 -0.1106
 2075TIP3    H127716   5.472   0.813  13.843  1.1805 -2.3883  0.5892
 2075TIP3    H227717   5.573   0.859  13.740 -0.5952 -1.5589 -0.8349
 2076TIP3   OH227718   2.507   1.292  12.934 -0.1667 -0.0383  0.4658
 2076TIP3    H127719   2.445   1.332  12.995 -1.2776 -1.1201  0.0844
 2076TIP3    H227720   2.463   1.296  12.849  0.3592 -0.6594  0.1577
 2077TIP3   OH227721   1.635   4.229  13.309  0.8038  0.3457 -0.0009
 2077TIP3    H127722   1.664   4.261  13.394  1.6092  1.1763 -0.5714
 2077TIP3    H227723   1.657   4.299  13.248  0.2966 -0.2638 -0.9081
 2078TIP3   OH227724   2.824   2.432  14.949 -0.0778  0.2402  0.6496
 2078TIP3    H127725   2.916   2.426  14.923 -0.7699 -0.2162 -2.0640
 2078TIP3    H227726   2.799   2.522  14.929 -0.9920 -0.4935 -1.9254
 2079TIP3   OH227727   3.949   2.789   3.331 -0.6183 -0.1889 -0.1922
 2079TIP3    H127728   3.949   2.837   3.248 -1.1261  0.9976  0.4783
 2079TIP3    H227729   4.020   2.828   3.381  0.0386 -1.2608 -0.2420
 2080TIP3   OH227730   1.215   3.004   5.442 -0.6412  0.7633  0.4521
 2080TIP3    H127731   1.154   3.076   5.456  0.4879  1.8731 -0.1377
 2080TIP3    H227732   1.295   3.031   5.488  0.7860  1.2950 -2.1430
 2081TIP3   OH227733   4.374   5.381  15.613  0.8196  0.1534  0.4425
 2081TIP3    H127734   4.279   5.381  15.624  0.5820 -0.0003 -1.2789
 2081TIP3    H227735   4.400   5.471  15.631  0.5227 -0.0391  2.0052
 2082TIP3   OH227736   6.439   1.975  15.255  0.3997 -0.0521  0.2391
 2082TIP3    H127737   6.515   1.916  15.262  0.5579  0.1158 -0.0260
 2082TIP3    H227738   6.436   1.999  15.163 -0.5054 -0.7411  0.0758
 2083TIP3   OH227739   0.021   6.061   0.059  0.2678 -0.4528 -0.0102
 2083TIP3    H127740  -0.058   6.012   0.038 -0.2797  0.6728 -0.6585
 2083TIP3    H227741  -0.010   6.150   0.080  1.4191  0.3013 -1.3071
 2084TIP3   OH227742   6.470   2.609   1.080 -0.8341 -0.3976 -0.2902
 2084TIP3    H127743   6.514   2.525   1.066  0.1024  0.0283  0.0321
 2084TIP3    H227744   6.538   2.674   1.064 -1.5246  0.2999 -0.4157
 2085TIP3   OH227745   5.678   2.571  12.099 -0.0532  0.1387 -0.0156
 2085TIP3    H127746   5.706   2.661  12.113 -1.0833  0.5628 -0.5492
 2085TIP3    H227747   5.756   2.525  12.070  0.8857  0.4524  1.8703
 2086TIP3   OH227748   1.659   4.634  15.812  0.9853  0.4849  0.6030
 2086TIP3    H127749   1.691   4.704  15.869 -0.7480  0.8268  1.2537
 2086TIP3    H227750   1.693   4.655  15.726 -0.0152  2.5685  0.6454
 2087TIP3   OH227751   4.965   6.006   5.058 -0.2883 -0.1584  0.7010
 2087TIP3    H127752   4.943   6.075   4.996 -0.5218  0.4524  1.4420
 2087TIP3    H227753   4.964   6.049   5.144  2.0637 -0.5065  0.9596
 2088TIP3   OH227754   5.475   3.163   3.608 -0.0264  0.5421  0.2721
 2088TIP3    H127755   5.388   3.136   3.637 -0.0625  0.7923  0.4015
 2088TIP3    H227756   5.527   3.169   3.689  0.0515  0.6010  0.2185
 2089TIP3   OH227757   3.268   4.310   2.459 -0.3464  0.0465 -0.4081
 2089TIP3    H127758   3.268   4.323   2.554  0.1211 -0.5363 -0.3265
 2089TIP3    H227759   3.241   4.219   2.447 -0.3896  0.1145 -0.8371
 2090TIP3   OH227760   6.005   1.342  14.943 -0.2491 -0.0683  0.5314
 2090TIP3    H127761   5.937   1.369  15.005  0.5602  0.1894  1.3366
 2090TIP3    H227762   5.966   1.269  14.895 -0.8213 -0.4355  1.5156
 2091TIP3   OH227763   0.072   6.036  14.126 -0.1827  0.4025 -0.1834
 2091TIP3    H127764   0.135   6.078  14.184 -1.3353  1.2682  0.5063
 2091TIP3    H227765   0.118   5.961  14.090  1.0749  0.7420  0.6532
 2092TIP3   OH227766   2.138   2.682  11.182  0.1608  0.0639 -0.5071
 2092TIP3    H127767   2.231   2.690  11.203  0.0985  0.5719 -0.4126
 2092TIP3    H227768   2.107   2.773  11.173 -0.6054 -0.0484  0.7046
 2093TIP3   OH227769   1.678   2.032   1.138  0.1521  0.1209  0.1535
 2093TIP3    H127770   1.738   2.021   1.064  0.1195 -0.8044  0.2606
 2093TIP3    H227771   1.683   2.126   1.158  1.1803  0.1470 -0.1556
 2094TIP3   OH227772   0.726   6.198  11.808 -0.1651  0.1817 -0.1275
 2094TIP3    H127773   0.784   6.230  11.739 -0.3709 -0.0926 -0.4298
 2094TIP3    H227774   0.745   6.255  11.883 -0.6926  1.1804 -0.7210
 2095TIP3   OH227775   5.792   4.245   1.263  0.0776 -0.2372 -0.1204
 2095TIP3    H127776   5.765   4.236   1.172 -0.6482  0.7074 -0.0131
 2095TIP3    H227777   5.826   4.334   1.269  2.3487 -1.0470 -0.0069
 2096TIP3   OH227778   5.701   3.300  13.149 -0.5936  0.1520  0.8640
 2096TIP3    H127779   5.757   3.298  13.226  0.1242  0.6025  0.3591
 2096TIP3    H227780   5.759   3.324  13.077 -1.8749  3.2151  0.7108
 2097TIP3   OH227781   6.457   4.701   1.750 -0.2770  0.1877  0.1759
 2097TIP3    H127782   6.500   4.695   1.835 -1.1531  0.3116  0.6426
 2097TIP3    H227783   6.364   4.691   1.770 -0.4497 -0.3687 -0.8394
 2098TIP3   OH227784   3.755   0.482   4.525  0.0512 -0.1032  0.1081
 2098TIP3    H127785   3.678   0.492   4.468  0.7457 -3.1841 -1.6133
 2098TIP3    H227786   3.746   0.395   4.562  2.8415 -0.7580 -0.4824
 2099TIP3   OH227787   0.947   5.831   5.951 -0.2996  0.1018 -0.1203
 2099TIP3    H127788   0.869   5.886   5.948  0.0334  0.5432 -0.9619
 2099TIP3    H227789   0.926   5.756   5.895 -0.2335  0.0664 -0.0975
 2100TIP3   OH227790   0.656   3.447  14.573 -0.0383 -0.1475  0.1466
 2100TIP3    H127791   0.585   3.511  14.571  0.4649  0.4497  1.0566
 2100TIP3    H227792   0.660   3.417  14.664  0.5490 -0.5417  0.0014
 2101TIP3   OH227793   2.094   3.151   3.560 -0.0193  0.3571  0.1333
 2101TIP3    H127794   2.072   3.156   3.653 -0.0324  3.3292  0.0780
 2101TIP3    H227795   2.067   3.064   3.533  0.0616 -0.6244  2.9170
 2102TIP3   OH227796   5.421   5.192  11.759 -0.4267  0.1597 -0.0336
 2102TIP3    H127797   5.425   5.119  11.698  1.4999  0.2875 -0.1237
 2102TIP3    H227798   5.454   5.157  11.842 -1.0823  0.5164  0.3935
 2103TIP3   OH227799   3.668   3.850  15.826  0.1110  0.2689  0.0741
 2103TIP3    H127800   3.720   3.830  15.748  0.2820  0.4842  0.1318
 2103TIP3    H227801   3.578   3.858  15.794  0.0064 -0.7927  0.0817
 2104TIP3   OH227802   1.366   2.596  16.120  0.4548 -0.1088  0.1666
 2104TIP3    H127803   1.419   2.618  16.044  2.0646  1.4735  1.6353
 2104TIP3    H227804   1.295   2.660  16.120  0.1803 -0.4046 -0.2216
 2105TIP3   OH227805   6.662   1.182  14.674  0.0488  0.4669  0.1446
 2105TIP3    H127806   6.568   1.169  14.665  0.2943 -1.2914 -0.2371
 2105TIP3    H227807   6.701   1.108  14.627  1.6496  2.0214 -1.0993
 2106TIP3   OH227808   1.417   2.895   2.537  0.1221  0.2444  0.1479
 2106TIP3    H127809   1.334   2.860   2.504  0.2462 -0.5515  0.6441
 2106TIP3    H227810   1.437   2.968   2.479 -0.0691 -0.6169 -1.0305
 2107TIP3   OH227811   1.137   5.740  14.586  0.1078 -0.5556 -0.5148
 2107TIP3    H127812   1.219   5.786  14.602 -0.8346  0.9860  0.1103
 2107TIP3    H227813   1.125   5.744  14.491  1.1783 -1.6097 -0.7229
 2108TIP3   OH227814   1.198   5.721  14.058  0.2128 -0.0796 -0.3176
 2108TIP3    H127815   1.115   5.676  14.040  0.0469  1.0931 -2.8518
 2108TIP3    H227816   1.234   5.742  13.972  1.4354  2.5324  0.7120
 2109TIP3   OH227817   6.733   4.139   0.957 -0.3253 -0.0263 -0.0653
 2109TIP3    H127818   6.733   4.196   1.034  0.3619  1.0885 -0.8627
 2109TIP3    H227819   6.694   4.191   0.887 -2.0779 -1.4498 -0.2162
 2110TIP3   OH227820   1.669   0.760   1.075 -0.1404 -0.0866  0.5423
 2110TIP3    H127821   1.740   0.823   1.081  0.5413 -0.9282  1.8226
 2110TIP3    H227822   1.591   0.812   1.056 -0.0044  1.4483  3.6219
 2111TIP3   OH227823   0.796   5.032   5.016  0.1151  0.4748 -0.1213
 2111TIP3    H127824   0.787   4.969   4.944 -0.7894  0.6483 -0.1715
 2111TIP3    H227825   0.777   4.981   5.095 -0.4283  0.6271 -0.1463
 2112TIP3   OH227826   1.249   6.024   4.204 -0.0954 -0.3383 -0.4576
 2112TIP3    H127827   1.188   5.978   4.146  0.6384  0.3093 -1.7678
 2112TIP3    H227828   1.303   6.077   4.146  0.8439  0.1324  0.7981
 2113TIP3   OH227829   5.286   6.246   3.502 -0.7034  0.2506 -0.0555
 2113TIP3    H127830   5.318   6.318   3.556 -0.9734  0.2943  0.0463
 2113TIP3    H227831   5.347   6.242   3.428 -0.9028  0.8208 -0.2515
 2114TIP3   OH227832   6.506   3.783  13.431 -0.1842  0.0526 -0.1873
 2114TIP3    H127833   6.431   3.769  13.373  0.2876  0.9561 -1.0366
 2114TIP3    H227834   6.553   3.857  13.393  0.2595  0.5299  1.2361
 2115TIP3   OH227835   2.532   4.172   5.043  0.8396 -0.0202  0.0603
 2115TIP3    H127836   2.523   4.113   5.118  0.6582  1.0426  0.8918
 2115TIP3    H227837   2.576   4.249   5.078  0.9393  0.4175 -0.9802
 2116TIP3   OH227838   1.727   5.093   1.180 -0.0388 -0.3305 -0.4181
 2116TIP3    H127839   1.772   5.173   1.154  1.2458 -0.8715  0.0140
 2116TIP3    H227840   1.701   5.052   1.098  1.0305 -0.4028 -0.7398
 2117TIP3   OH227841   5.892   5.248  12.699  0.4420  0.3923  0.2197
 2117TIP3    H127842   5.823   5.186  12.673  0.6245 -0.4072  1.5558
 2117TIP3    H227843   5.851   5.303  12.765  0.9572  0.1867  0.7133
 2118TIP3   OH227844   0.229   5.183   1.774 -0.5708  0.3380  0.3118
 2118TIP3    H127845   0.203   5.106   1.824 -0.2642  0.1523  0.1819
 2118TIP3    H227846   0.163   5.190   1.705  0.2083 -0.6340 -0.5383
 2119TIP3   OH227847   0.583   3.470   1.982 -0.0806 -0.0416  0.2139
 2119TIP3    H127848   0.563   3.553   2.025 -2.7824 -0.3498 -0.2737
 2119TIP3    H227849   0.666   3.443   2.021  1.5030  3.3460 -0.3727
 2120TIP3   OH227850   4.577   4.817  14.880  0.4913 -0.1419 -0.4319
 2120TIP3    H127851   4.582   4.903  14.838  0.5200 -0.1887 -0.5259
 2120TIP3    H227852   4.658   4.773  14.855  0.0785 -0.5339 -1.1416
 2121TIP3   OH227853   2.304   2.736   2.813 -0.0845 -0.2753 -0.0961
 2121TIP3    H127854   2.315   2.662   2.752 -2.0037  0.4405 -1.3927
 2121TIP3    H227855   2.228   2.783   2.780  0.1073  1.3765  1.6684
 2122TIP3   OH227856   0.323   4.457  14.405 -0.4533  0.2675  0.2909
 2122TIP3    H127857   0.254   4.392  14.392 -0.0610 -0.4155  1.4653
 2122TIP3    H227858   0.316   4.515  14.330 -1.0311 -0.9452 -0.6285
 2123TIP3   OH227859   4.379   6.589  13.299  0.1321  0.3312  0.1577
 2123TIP3    H127860   4.307   6.624  13.351 -0.5930 -0.4012 -0.3329
 2123TIP3    H227861   4.356   6.612  13.209  0.3960 -0.1047 -0.0240
 2124TIP3   OH227862   0.579   3.507  14.853 -0.4595  0.1004 -0.8081
 2124TIP3    H127863   0.577   3.455  14.934 -1.6816  0.5407 -0.5208
 2124TIP3    H227864   0.669   3.537  14.845 -0.3031 -0.0079  0.3732
 2125TIP3   OH227865   6.776   6.104  13.086 -0.5168  0.9171 -0.0699
 2125TIP3    H127866   6.747   6.194  13.102 -0.9516  0.8822 -0.6142
 2125TIP3    H227867   6.717   6.050  13.139  1.1259  1.0453  1.9984
 2126TIP3   OH227868   0.012   2.560   1.301  0.1827  0.3321 -0.3051
 2126TIP3    H127869  -0.021   2.484   1.254  1.2374 -0.1300 -0.3325
 2126TIP3    H227870   0.062   2.609   1.235 -2.2223  2.2464 -0.8709
 2127TIP3   OH227871   1.273   1.292  11.992  0.6266  0.7722 -0.0053
 2127TIP3    H127872   1.260   1.272  12.085  0.4080 -2.0231 -0.5643
 2127TIP3    H227873   1.286   1.207  11.950  2.3327  2.0646 -2.3317
 2128TIP3   OH227874   1.647   0.972  11.429 -0.0691  0.0694  0.4483
 2128TIP3    H127875   1.736   0.938  11.441 -0.7082 -1.6814  0.4357
 2128TIP3    H227876   1.607   0.913  11.365 -1.6844 -0.0070  1.4836
 2129TIP3   OH227877   2.518   3.144   5.847 -0.2088  0.1782 -0.2445
 2129TIP3    H127878   2.455   3.081   5.883  0.8996 -0.5909  0.4121
 2129TIP3    H227879   2.596   3.092   5.829 -0.1582  0.8510 -2.2762
 2130TIP3   OH227880   5.122   6.284   2.459  0.0140  0.0790 -0.4203
 2130TIP3    H127881   5.049   6.280   2.521  0.5351 -3.7298  0.1951
 2130TIP3    H227882   5.079   6.286   2.373 -0.7795 -0.2575 -0.0421
 2131TIP3   OH227883   5.924   3.009  14.436 -0.3188  0.2408  0.3389
 2131TIP3    H127884   6.012   2.971  14.429  0.4766  2.1726 -1.1574
 2131TIP3    H227885   5.910   3.017  14.530  0.4846 -1.3972  0.6453
 2132TIP3   OH227886   1.464   4.801   6.198  0.1356  0.0213 -0.0832
 2132TIP3    H127887   1.558   4.800   6.217  0.1555 -0.7293 -0.1813
 2132TIP3    H227888   1.441   4.894   6.194  0.9648  0.2140 -0.5173
 2133TIP3   OH227889   0.991   4.421   1.193 -0.3546  0.4476 -0.0151
 2133TIP3    H127890   1.043   4.399   1.270  2.9423 -0.6914 -2.3300
 2133TIP3    H227891   0.968   4.337   1.154  0.8114  0.9394 -1.8950
 2134TIP3   OH227892   2.664   5.151  13.612  0.8066 -0.0159 -0.2232
 2134TIP3    H127893   2.617   5.182  13.689 -0.1674 -2.5832  0.3073
 2134TIP3    H227894   2.745   5.112  13.646  0.9264 -0.1151 -0.6135
 2135TIP3   OH227895   5.369   1.426   2.323 -0.3125  0.4525 -0.5496
 2135TIP3    H127896   5.355   1.474   2.404 -0.0793 -0.3102 -0.0475
 2135TIP3    H227897   5.285   1.430   2.278 -1.1000 -0.9482  0.7281
 2136TIP3   OH227898   0.498   2.902  12.863 -0.2794  0.0770 -0.0524
 2136TIP3    H127899   0.478   2.838  12.931 -0.2031 -2.0322 -1.8864
 2136TIP3    H227900   0.423   2.898  12.804  0.3047  0.7491 -0.8654
 2137TIP3   OH227901   4.743   1.886   0.596  0.4330 -0.5265  0.1993
 2137TIP3    H127902   4.660   1.923   0.565 -0.5240  2.1995  5.0201
 2137TIP3    H227903   4.717   1.823   0.664  2.2221  0.6252  2.0376
 2138TIP3   OH227904   6.484   1.083  11.243 -0.0874 -0.1069 -0.0406
 2138TIP3    H127905   6.528   1.019  11.187  2.0557  0.7487  0.5830
 2138TIP3    H227906   6.518   1.168  11.215 -0.4592  0.4962  1.2409
 2139TIP3   OH227907   5.314   5.136   4.034  0.2815  0.3232 -0.0602
 2139TIP3    H127908   5.402   5.121   4.000  0.3490  1.0234 -0.2268
 2139TIP3    H227909   5.279   5.049   4.051  0.4744 -0.0355 -1.3476
 2140TIP3   OH227910   0.648   2.350  15.367 -0.2925  0.1489 -0.1384
 2140TIP3    H127911   0.570   2.317  15.412 -0.6264  2.6723  1.3233
 2140TIP3    H227912   0.693   2.402  15.434  1.9812 -0.1729 -1.3349
 2141TIP3   OH227913   4.460   1.042  15.374 -0.5836  0.5250  0.0173
 2141TIP3    H127914   4.493   1.130  15.393  0.7711 -0.1588  0.9884
 2141TIP3    H227915   4.444   1.042  15.280  0.0161  1.6127 -0.0977
 2142TIP3   OH227916   5.658   3.743  11.622 -0.2607  0.5389  0.0281
 2142TIP3    H127917   5.737   3.779  11.661 -0.7461  0.9981  0.6035
 2142TIP3    H227918   5.689   3.689  11.550  0.7062 -1.1109  1.6209
 2143TIP3   OH227919   0.930   6.418   2.453  0.1793  0.7192  0.0596
 2143TIP3    H127920   0.982   6.489   2.490 -0.1801  0.6165  0.7874
 2143TIP3    H227921   0.994   6.363   2.407  0.6035  0.9945  0.3108
 2144TIP3   OH227922   2.954   5.542  10.123  0.5529 -0.2233 -0.0784
 2144TIP3    H127923   2.916   5.519  10.208 -0.5894 -0.6534 -0.6912
 2144TIP3    H227924   3.015   5.613  10.143 -0.5233  0.4480  0.9454
 2145TIP3   OH227925   3.138   5.390  12.874 -0.2184  0.0280 -0.3895
 2145TIP3    H127926   3.128   5.485  12.886  1.4097  0.2927 -0.8120
 2145TIP3    H227927   3.119   5.375  12.781  1.1576  0.2423 -0.7379
 2146TIP3   OH227928   2.357   1.930  15.726 -0.7778 -0.4040  0.3918
 2146TIP3    H127929   2.407   1.991  15.671 -0.1174 -2.0391 -0.9178
 2146TIP3    H227930   2.400   1.934  15.811  0.2351 -0.1847 -0.1089
 2147TIP3   OH227931   5.989   3.466  11.833  0.8349 -0.0723  0.4532
 2147TIP3    H127932   5.894   3.452  11.830  0.7730  0.4619 -0.1699
 2147TIP3    H227933   5.999   3.559  11.850  1.2254  0.5082 -2.4613
 2148TIP3   OH227934   6.697   4.111  13.289  0.1073  0.1307 -0.3202
 2148TIP3    H127935   6.783   4.127  13.249 -0.2877  0.6173 -0.9963
 2148TIP3    H227936   6.704   4.150  13.377  0.7222 -0.2377 -0.2004
 2149TIP3   OH227937   4.268   2.812  11.065  0.4902  0.1940 -0.4772
 2149TIP3    H127938   4.331   2.881  11.044  0.5057 -0.1126 -1.4714
 2149TIP3    H227939   4.227   2.841  11.146  3.2109 -0.4684  1.2670
 2150TIP3   OH227940   2.340   6.111  11.703 -0.0349 -0.9408 -0.0117
 2150TIP3    H127941   2.266   6.156  11.743 -0.6311 -0.3454 -1.6774
 2150TIP3    H227942   2.417   6.161  11.731 -0.6089  0.6728 -1.1442
 2151TIP3   OH227943   0.679   4.497   0.008 -0.1490  0.6186  0.1271
 2151TIP3    H127944   0.603   4.557   0.009 -1.8981 -1.4573 -0.8219
 2151TIP3    H227945   0.689   4.470   0.099 -0.4993  0.9811  0.2771
 2152TIP3   OH227946   0.694   4.704   1.523 -0.9070 -0.3026 -0.2636
 2152TIP3    H127947   0.617   4.713   1.580 -0.9037 -0.8274 -0.1711
 2152TIP3    H227948   0.693   4.613   1.496  0.4463 -0.6697  0.8282
 2153TIP3   OH227949   4.916   6.354  12.065 -0.2793  0.2013  0.1407
 2153TIP3    H127950   4.967   6.434  12.057  1.3499 -0.8497 -0.4711
 2153TIP3    H227951   4.860   6.368  12.141 -0.9796  2.4009 -0.7111
 2154TIP3   OH227952   1.321   3.920   2.364  0.3871  0.2218  0.0615
 2154TIP3    H127953   1.400   3.946   2.411 -0.2583  2.5172 -0.0466
 2154TIP3    H227954   1.270   4.000   2.355 -1.4040 -0.9629 -0.9647
 2155TIP3   OH227955   5.980   0.834   4.277 -0.1839  0.5502  0.1062
 2155TIP3    H127956   5.902   0.797   4.319  0.1636 -2.2260 -1.3962
 2155TIP3    H227957   5.947   0.910   4.228 -2.1622 -0.9015 -0.9834
 2156TIP3   OH227958   1.117   5.566   3.505 -0.4747  0.1853 -0.1424
 2156TIP3    H127959   1.045   5.567   3.569 -0.7184 -2.6664 -0.2751
 2156TIP3    H227960   1.196   5.574   3.559 -0.7064 -1.5633  0.5043
 2157TIP3   OH227961   4.674   4.526   3.536 -0.2384  0.3516  0.7085
 2157TIP3    H127962   4.641   4.465   3.601 -2.0786 -0.9706 -1.3208
 2157TIP3    H227963   4.759   4.490   3.510  0.1470  0.4625  1.7565
 2158TIP3   OH227964   3.768   2.100   2.675 -0.4666 -0.8140 -0.2730
 2158TIP3    H127965   3.828   2.043   2.723  0.5607 -1.0840 -1.8000
 2158TIP3    H227966   3.768   2.182   2.725  1.4280 -0.6974 -0.3813
 2159TIP3   OH227967   3.614   2.318  13.626  0.3074  0.7637 -0.6407
 2159TIP3    H127968   3.621   2.411  13.644  1.1471  0.5554  0.1555
 2159TIP3    H227969   3.520   2.304  13.610 -0.0878  1.4547  0.8947
 2160TIP3   OH227970   4.395   1.614  13.462 -0.3601 -0.4414  0.2188
 2160TIP3    H127971   4.477   1.571  13.441 -0.6354 -1.1639  0.5919
 2160TIP3    H227972   4.389   1.609  13.558 -0.3286  0.5679  0.2914
 2161TIP3   OH227973   2.225   6.644  13.242  0.3563 -0.8043 -0.1384
 2161TIP3    H127974   2.160   6.698  13.288 -0.0417 -2.2552  1.0877
 2161TIP3    H227975   2.173   6.585  13.188  0.8358  1.3559 -3.1721
 2162TIP3   OH227976   4.409   0.648   5.179  0.1928  0.1194 -0.0872
 2162TIP3    H127977   4.433   0.556   5.189  0.6733  0.3659  1.2522
 2162TIP3    H227978   4.440   0.690   5.260 -1.3530  1.1789  0.0032
 2163TIP3   OH227979   4.055   2.210   4.194  0.0009  0.2117 -0.2489
 2163TIP3    H127980   4.088   2.143   4.134 -0.3391  0.1665 -0.3859
 2163TIP3    H227981   4.036   2.164   4.275 -0.0462  0.1792 -0.2787
 2164TIP3   OH227982   5.311   1.367   4.357  0.4684 -0.1382  0.3141
 2164TIP3    H127983   5.267   1.418   4.426  1.3316 -0.0358  0.8082
 2164TIP3    H227984   5.304   1.276   4.386  0.1399 -0.1712  0.1341
 2165TIP3   OH227985   3.008   2.949   5.209 -0.3869 -0.5048  0.0089
 2165TIP3    H127986   2.917   2.977   5.196 -0.0721 -0.6791 -3.1303
 2165TIP3    H227987   3.042   3.012   5.273 -2.8657 -0.9201  1.9074
 2166TIP3   OH227988   0.164   5.767  16.783  0.7005  0.2921 -0.1870
 2166TIP3    H127989   0.216   5.719  16.719  1.0026 -1.6657  1.4074
 2166TIP3    H227990   0.074   5.760  16.751  0.9431  0.0970 -0.8408
 2167TIP3   OH227991   4.016   3.363   2.447  0.3460 -0.0892 -0.1501
 2167TIP3    H127992   4.040   3.314   2.525  1.0684 -1.4071 -1.1455
 2167TIP3    H227993   3.929   3.331   2.424  0.7881 -0.8765 -0.7599
 2168TIP3   OH227994   6.173   0.007  16.626  0.1915  0.1286 -0.6351
 2168TIP3    H127995   6.139  -0.063  16.683  1.0795 -0.0583 -0.3212
 2168TIP3    H227996   6.124   0.085  16.652 -0.5468 -0.2903 -0.7294
 2169TIP3   OH227997   4.027   1.598   4.235  0.4675  0.6372 -0.1492
 2169TIP3    H127998   4.055   1.507   4.236 -2.5740 -0.3859  0.2884
 2169TIP3    H227999   4.065   1.633   4.155  2.5190 -0.6622  0.1640
 2170TIP3   OH228000   5.238   4.654  10.160  0.4449  0.2383 -0.3987
 2170TIP3    H128001   5.281   4.577  10.196 -0.2702 -0.2802 -0.6424
 2170TIP3    H228002   5.168   4.674  10.222  2.4056  2.5168  1.3143
 2171TIP3   OH228003   5.666   3.029   4.306 -0.8156  0.1937  0.0636
 2171TIP3    H128004   5.577   3.004   4.329 -0.6641 -0.6976 -0.3053
 2171TIP3    H228005   5.677   3.001   4.215 -0.0513 -0.0133  0.2098
 2172TIP3   OH228006   0.949   1.747   5.440 -0.0343 -0.3081  0.4048
 2172TIP3    H128007   0.938   1.742   5.535 -1.0099 -0.0693  0.3218
 2172TIP3    H228008   0.985   1.662   5.416  0.9433 -0.0931  1.0673
 2173TIP3   OH228009   1.136   4.639  13.275  0.4503 -0.4027  0.0588
 2173TIP3    H128010   1.181   4.566  13.232  0.7510  0.5202 -1.2497
 2173TIP3    H228011   1.087   4.681  13.205  1.5843  1.6364  0.4209
 2174TIP3   OH228012   4.529   6.482  11.184 -0.0941  0.1290 -0.3202
 2174TIP3    H128013   4.519   6.395  11.144  1.7782 -0.4635  0.4035
 2174TIP3    H228014   4.476   6.478  11.263 -0.2456 -0.2403 -0.4363
 2175TIP3   OH228015   6.276   3.133  14.737 -0.3661  0.5150  0.0206
 2175TIP3    H128016   6.319   3.190  14.801 -1.2552  1.0682  0.1472
 2175TIP3    H228017   6.309   3.162  14.652  0.2620  0.2601  0.1661
 2176TIP3   OH228018   4.832   4.897  16.245  0.2480  0.2108  0.3556
 2176TIP3    H128019   4.841   4.908  16.151 -1.6540 -3.3572 -0.3916
 2176TIP3    H228020   4.910   4.939  16.281  1.3081  1.2387 -2.7946
 2177TIP3   OH228021   5.961   4.705  12.825  0.6354  0.0900 -0.2841
 2177TIP3    H128022   5.928   4.704  12.735 -0.1326  2.0580 -0.0885
 2177TIP3    H228023   6.052   4.675  12.818  0.4558 -0.2050 -1.6390
 2178TIP3   OH228024   2.695   3.039  15.502 -0.0327  0.1445 -0.7452
 2178TIP3    H128025   2.648   3.060  15.421 -0.1451  2.8717 -0.0511
 2178TIP3    H228026   2.772   3.095  15.501 -0.6466  1.1455  1.5574
 2179TIP3   OH228027   6.564   4.416  15.822  0.3922  0.0800  0.5356
 2179TIP3    H128028   6.521   4.360  15.757 -0.3035  0.0551  1.0079
 2179TIP3    H228029   6.587   4.495  15.774 -0.3949  0.1879  0.3210
 2180TIP3   OH228030   5.619   3.878  12.821 -0.4819  0.4860  0.3340
 2180TIP3    H128031   5.647   3.791  12.792  1.0411  1.3450 -0.8929
 2180TIP3    H228032   5.681   3.938  12.781 -3.0471  2.3999 -1.0507
 2181TIP3   OH228033   5.689   0.298  12.141  0.0540  0.1571 -0.2970
 2181TIP3    H128034   5.599   0.272  12.125  0.6810 -0.9118 -2.5507
 2181TIP3    H228035   5.719   0.241  12.212 -0.7572 -0.0852 -0.1408
 2182TIP3   OH228036   5.885   1.468  14.190  0.1503 -0.1678 -0.3565
 2182TIP3    H128037   5.796   1.502  14.200 -0.0509  0.2827 -2.9844
 2182TIP3    H228038   5.940   1.535  14.231 -0.6171  0.5376 -0.4306
 2183TIP3   OH228039   1.605   3.527   5.716 -0.1632  0.0551 -0.2375
 2183TIP3    H128040   1.672   3.595   5.706  1.5235 -1.2809  1.3855
 2183TIP3    H228041   1.619   3.491   5.803 -1.5595 -1.8067 -0.7093
 2184TIP3   OH228042   1.784   6.236  13.428 -0.0173 -0.3657  0.1707
 2184TIP3    H128043   1.758   6.175  13.497  0.2241 -1.0925 -0.3641
 2184TIP3    H228044   1.724   6.310  13.438  0.7705  0.0904  1.8897
 2185TIP3   OH228045   0.053   3.305  13.429  0.2322  0.3563  0.0394
 2185TIP3    H128046   0.140   3.345  13.427 -0.5745  2.2830  0.5533
 2185TIP3    H228047   0.006   3.353  13.498 -1.7644  0.5687 -1.3738
 2186TIP3   OH228048   0.536   5.943   5.732  0.3003 -0.3154  0.2180
 2186TIP3    H128049   0.620   5.930   5.688 -0.1939 -0.2461 -0.7683
 2186TIP3    H228050   0.518   5.858   5.773  0.9414 -0.2709  0.6136
 2187TIP3   OH228051   4.284   6.566   5.840 -0.6184 -0.3705 -0.0166
 2187TIP3    H128052   4.330   6.580   5.923 -0.9853 -0.4910  0.2105
 2187TIP3    H228053   4.291   6.471   5.824 -0.0301 -0.2616 -0.4323
 2188TIP3   OH228054   0.623   5.510   1.736 -0.5757 -0.5592 -0.1071
 2188TIP3    H128055   0.666   5.582   1.689  0.5736  0.0987  1.8306
 2188TIP3    H228056   0.625   5.537   1.827 -1.3677 -2.4693  0.5191
 2189TIP3   OH228057   3.673   6.355  10.814  0.3516  0.3556 -0.0041
 2189TIP3    H128058   3.660   6.424  10.879 -3.6816  0.3892 -0.6016
 2189TIP3    H228059   3.729   6.396  10.748 -0.3151  2.4279  0.6083
 2190TIP3   OH228060   6.716   3.077   0.624  0.1642 -0.0126 -0.0291
 2190TIP3    H128061   6.722   3.098   0.531  0.7156 -0.8311 -0.1902
 2190TIP3    H228062   6.625   3.052   0.638  0.0600  0.2014 -0.3330
 2191TIP3   OH228063   1.807   3.426  17.055 -0.1091 -0.1829  0.0099
 2191TIP3    H128064   1.831   3.447  17.146 -0.5005  1.3863 -0.2089
 2191TIP3    H228065   1.795   3.331  17.054  1.1393 -0.3872  1.2951
 2192TIP3   OH228066   1.844   2.753   5.637  0.4817  0.0672  0.1020
 2192TIP3    H128067   1.812   2.776   5.550  0.9140 -0.3333 -0.1704
 2192TIP3    H228068   1.936   2.729   5.623  0.5512 -0.0043  0.6666
 2193TIP3   OH228069   3.411   3.801   2.136  0.2321  0.2383  0.0991
 2193TIP3    H128070   3.475   3.806   2.207  1.3169  0.3505 -0.8396
 2193TIP3    H228071   3.345   3.740   2.167  1.9114 -1.5833  0.2896
 2194TIP3   OH228072   2.976   4.937  15.003 -0.0267  0.5843  0.1534
 2194TIP3    H128073   3.065   4.910  14.979 -0.5131 -1.0257  0.0517
 2194TIP3    H228074   2.947   4.871  15.066 -1.4957  0.5260 -0.5479
 2195TIP3   OH228075   4.543   1.132  16.351  0.0065  0.4037 -0.1041
 2195TIP3    H128076   4.569   1.089  16.269  0.8022 -1.2745  0.9864
 2195TIP3    H228077   4.458   1.172  16.331 -1.1319 -2.2591 -1.0001
 2196TIP3   OH228078   3.580   5.158   1.072 -0.0181  0.4850  0.9338
 2196TIP3    H128079   3.662   5.190   1.109 -0.2702  1.6670  0.5297
 2196TIP3    H228080   3.513   5.220   1.103 -0.3827  0.9219 -0.6139
 2197TIP3   OH228081   3.189   3.549  13.866 -0.3913 -0.7134  0.2404
 2197TIP3    H128082   3.173   3.643  13.855  0.0532 -0.6889 -0.2825
 2197TIP3    H228083   3.282   3.543  13.887 -0.3289 -1.0550 -0.1082
 2198TIP3   OH228084   3.957   2.980   1.822 -0.0388  0.6040  0.0541
 2198TIP3    H128085   3.998   2.936   1.747  1.8512 -0.2482  1.5025
 2198TIP3    H228086   4.029   3.022   1.867 -1.4581  3.0144  0.2255
 2199TIP3   OH228087   0.794   4.407   6.042 -0.4795  0.2208 -0.6526
 2199TIP3    H128088   0.744   4.365   6.112 -1.7984  2.3751 -0.2107
 2199TIP3    H228089   0.878   4.428   6.082 -0.5698 -0.1400 -0.2678
 2200TIP3   OH228090   2.025   2.607   0.365 -0.4178 -0.4056 -0.3505
 2200TIP3    H128091   1.932   2.612   0.343 -0.1653  0.2195 -1.3542
 2200TIP3    H228092   2.041   2.683   0.421 -0.9868 -1.8049  1.8064
 2201TIP3   OH228093   6.166   5.537  15.899 -0.1020 -0.0846  0.0588
 2201TIP3    H128094   6.238   5.564  15.957  1.5886 -0.7864 -1.6125
 2201TIP3    H228095   6.123   5.466  15.946  1.2813 -0.6983  0.4630
 2202TIP3   OH228096   4.925   0.142   1.647  0.4240 -0.2839  0.1086
 2202TIP3    H128097   4.994   0.126   1.582 -1.3186  1.3750 -2.3379
 2202TIP3    H228098   4.867   0.066   1.640  1.1613 -0.9401  1.0309
 2203TIP3   OH228099   3.394   1.667   0.534 -0.2262  0.1173  0.6057
 2203TIP3    H128100   3.391   1.682   0.628 -2.3663  0.8909  0.4485
 2203TIP3    H228101   3.332   1.729   0.496  0.0890 -0.6226 -1.2712
 2204TIP3   OH228102   3.889   2.046   3.679 -0.1396  0.2469  0.3232
 2204TIP3    H128103   3.875   1.970   3.737  1.8205  0.5301  1.2434
 2204TIP3    H228104   3.886   2.121   3.738 -0.2751  0.7491 -0.3176
 2205TIP3   OH228105   3.043   5.841  14.935 -0.1477 -0.8669  0.6877
 2205TIP3    H128106   3.054   5.906  14.865  1.1769 -0.1640  1.5027
 2205TIP3    H228107   3.005   5.890  15.008  0.1954 -1.1524  1.0672
 2206TIP3   OH228108   5.473   6.214  12.881  0.0850  0.0773 -0.0396
 2206TIP3    H128109   5.429   6.292  12.847 -0.5453 -0.0697  0.3990
 2206TIP3    H228110   5.548   6.201  12.823  0.4546  1.2591  0.1341
 2207TIP3   OH228111   6.046   1.060   3.950 -0.1952 -0.0960  0.0537
 2207TIP3    H128112   6.086   0.974   3.946 -3.1507 -1.5758 -1.1607
 2207TIP3    H228113   6.064   1.099   3.864  0.0532 -0.0481  0.1279
 2208TIP3   OH228114   0.523   6.459   4.021  0.4214 -0.3843 -0.0828
 2208TIP3    H128115   0.439   6.444   4.063  0.5673 -1.1195 -0.0343
 2208TIP3    H228116   0.534   6.384   3.961  1.8233 -1.2624  1.1951
 2209TIP3   OH228117   1.176   0.739  16.595 -0.0325 -0.1649  0.5366
 2209TIP3    H128118   1.243   0.715  16.660 -0.6318  0.3028  1.3357
 2209TIP3    H228119   1.134   0.817  16.631 -1.1326 -0.5518  0.1285
 2210TIP3   OH228120   4.377   3.437   4.650  0.3055 -0.1729  0.0034
 2210TIP3    H128121   4.310   3.373   4.626 -0.4741 -0.2231  2.1466
 2210TIP3    H228122   4.336   3.522   4.634 -0.3253 -0.2038  1.3790
 2211TIP3   OH228123   3.990   2.441  16.501  0.0776  0.3948 -0.4394
 2211TIP3    H128124   3.953   2.511  16.448  1.2953  0.8781 -0.6775
 2211TIP3    H228125   3.930   2.434  16.576 -1.2319  0.2153 -1.4668
 2212TIP3   OH228126   1.660   6.113  14.139  0.0725 -0.4676 -0.1438
 2212TIP3    H128127   1.751   6.126  14.110 -0.1576  1.0523 -0.2557
 2212TIP3    H228128   1.657   6.152  14.226 -0.6019 -0.0063 -0.3639
 2213TIP3   OH228129   1.398   0.014   4.291  0.1432 -0.2180  0.6015
 2213TIP3    H128130   1.325  -0.007   4.348  0.9705 -1.4778  1.2420
 2213TIP3    H228131   1.432  -0.070   4.261 -0.3876  0.3791 -1.9915
 2214TIP3   OH228132   2.806   6.348  16.494 -0.1845  0.2166 -0.5060
 2214TIP3    H128133   2.791   6.255  16.507  0.2822  0.1486 -0.4408
 2214TIP3    H228134   2.762   6.390  16.567  0.5215 -0.0227  0.0725
 2215TIP3   OH228135   6.781   3.787   1.569 -0.0893  0.0503 -0.2317
 2215TIP3    H128136   6.732   3.820   1.494 -0.1483 -2.1907 -1.2593
 2215TIP3    H228137   6.757   3.695   1.576  1.6249 -0.3691  1.1659
 2216TIP3   OH228138   5.402   2.110   2.626  0.2140 -0.4451  0.7783
 2216TIP3    H128139   5.475   2.169   2.644 -0.3938  0.0997  1.5474
 2216TIP3    H228140   5.400   2.102   2.531 -0.5424  1.9008  0.5520
 2217TIP3   OH228141   1.643   3.030   4.669  0.3318  0.2053  0.3157
 2217TIP3    H128142   1.568   2.974   4.652 -0.8993  2.2400 -1.4968
 2217TIP3    H228143   1.677   3.052   4.583 -0.3740  3.5856  0.7611
 2218TIP3   OH228144   0.506   3.831  15.311  0.7459 -0.3039  0.1366
 2218TIP3    H128145   0.517   3.924  15.291  0.3553  0.1368  1.7371
 2218TIP3    H228146   0.591   3.791  15.292  0.8566  0.3320 -0.7600
 2219TIP3   OH228147   2.970   6.792  12.990 -0.0645  0.3025 -0.1701
 2219TIP3    H128148   2.932   6.878  13.011 -0.5112  0.6138 -2.0520
 2219TIP3    H228149   2.999   6.758  13.074 -3.2004  0.6694  1.2065
 2220TIP3   OH228150   0.653   4.327   0.804 -0.1574 -0.0691 -0.7060
 2220TIP3    H128151   0.674   4.402   0.860 -0.6589  0.9073 -1.7655
 2220TIP3    H228152   0.578   4.357   0.752 -1.4931 -1.9330  0.0277
 2221TIP3   OH228153   5.280   6.467  16.524 -0.0265 -0.6447 -0.1514
 2221TIP3    H128154   5.262   6.555  16.491  1.0178 -0.6831 -0.8590
 2221TIP3    H228155   5.278   6.477  16.619  1.5017  0.4685 -0.2057
 2222TIP3   OH228156   5.479   1.151  16.916 -0.1209  0.2620  1.1455
 2222TIP3    H128157   5.475   1.085  16.985 -0.6827 -0.5812  0.3171
 2222TIP3    H228158   5.389   1.161  16.886  0.3211 -0.4941 -0.5000
 2223TIP3   OH228159   1.926   2.798  15.571 -0.3882 -0.6511 -0.3892
 2223TIP3    H128160   2.018   2.780  15.589 -0.4260 -1.5516 -1.0488
 2223TIP3    H228161   1.928   2.873  15.510  0.0092 -1.7843 -1.8397
 2224TIP3   OH228162   1.183   0.464   3.487 -0.5790  0.4759  0.3964
 2224TIP3    H128163   1.243   0.487   3.416  1.2388 -2.2694  0.8848
 2224TIP3    H228164   1.108   0.425   3.442  0.8837 -1.9408 -0.1243
 2225TIP3   OH228165   3.257   4.162   0.036  0.0622 -0.0733  0.1268
 2225TIP3    H128166   3.249   4.254   0.063 -0.8357 -0.1801  0.2589
 2225TIP3    H228167   3.351   4.146   0.032  0.2954  1.3929 -1.7290
 2226TIP3   OH228168   4.316   4.753   4.382 -0.1330  0.1163  0.3891
 2226TIP3    H128169   4.396   4.707   4.357  0.6676  2.0603 -0.8252
 2226TIP3    H228170   4.254   4.732   4.312 -0.2753 -0.3031  0.6332
 2227TIP3   OH228171   6.547   1.941  12.437  0.1299  0.1400 -0.2557
 2227TIP3    H128172   6.520   1.891  12.514  0.2594  1.6923  0.8271
 2227TIP3    H228173   6.621   1.892  12.401  1.4040  0.4558  1.8112
 2228TIP3   OH228174   2.947   2.088   5.653  0.1113 -0.5613  0.4542
 2228TIP3    H128175   2.940   2.178   5.623  1.1507 -0.1283  1.4228
 2228TIP3    H228176   3.019   2.090   5.716  0.4295 -2.1454  0.1821
 2229TIP3   OH228177   5.500   0.590  15.548  0.0800 -0.3993  0.0605
 2229TIP3    H128178   5.547   0.672  15.531  1.2155 -1.1198 -0.3632
 2229TIP3    H228179   5.447   0.576  15.470 -0.1758 -0.0455  0.1644
 2230TIP3   OH228180   0.254   1.293  12.804  0.1036  0.5136  0.0376
 2230TIP3    H128181   0.343   1.283  12.838  0.7265  2.7657 -0.7216
 2230TIP3    H228182   0.249   1.230  12.732  0.5090 -0.7295  1.0491
 2231TIP3   OH228183   0.242   6.209  16.870 -0.1597  0.4031  0.7531
 2231TIP3    H128184   0.162   6.156  16.865 -1.6801  2.5711  0.4404
 2231TIP3    H228185   0.309   6.149  16.903 -1.9598 -1.4645  1.2128
 2232TIP3   OH228186   2.460   2.923   2.924  0.1096  0.3732  0.6953
 2232TIP3    H128187   2.407   2.853   2.885  1.4706 -0.7287  0.7318
 2232TIP3    H228188   2.441   3.000   2.871 -0.7809 -0.2320  0.1049
 2233TIP3   OH228189   5.343   5.752   5.510 -0.0465  0.0331  0.1441
 2233TIP3    H128190   5.421   5.731   5.560 -0.8485  0.4661  1.6297
 2233TIP3    H228191   5.270   5.720   5.564 -0.9969  1.6032 -0.1442
 2234TIP3   OH228192   1.584   2.571   1.894 -0.0044  0.6129  0.4552
 2234TIP3    H128193   1.578   2.542   1.985 -1.3555  0.8473  0.4681
 2234TIP3    H228194   1.499   2.548   1.856 -0.1116  2.0613 -0.2735
 2235TIP3   OH228195   0.570   1.243   4.302  0.2793 -0.3055  0.0234
 2235TIP3    H128196   0.508   1.226   4.232 -0.3587 -0.2620  0.5709
 2235TIP3    H228197   0.542   1.325   4.340 -0.6261 -1.3066  1.6333
 2236TIP3   OH228198   0.221   0.779  16.761 -0.3689 -0.3721  0.0526
 2236TIP3    H128199   0.248   0.692  16.733 -0.2386 -0.9004  1.7116
 2236TIP3    H228200   0.274   0.797  16.839 -0.9212  0.8767  0.1674
 2237TIP3   OH228201   0.324   5.271   5.192  0.2694  0.2443 -0.1659
 2237TIP3    H128202   0.369   5.195   5.229 -0.6123  0.0664  0.5758
 2237TIP3    H228203   0.251   5.234   5.143  1.0311  0.5160 -1.5689
 2238TIP3   OH228204   1.099   4.047   2.892  0.1602 -0.8802 -0.1397
 2238TIP3    H128205   1.112   3.981   2.961 -0.9360 -0.8372  0.1247
 2238TIP3    H228206   1.007   4.072   2.900  0.6116  0.8753 -0.0862
 2239TIP3   OH228207   2.354   1.135   2.611  0.3902 -0.3365 -0.2751
 2239TIP3    H128208   2.417   1.207   2.599 -1.8629  1.9198  0.6729
 2239TIP3    H228209   2.341   1.130   2.705 -0.5044 -1.0507 -0.4279
 2240TIP3   OH228210   6.724   6.602  13.323  0.0149 -0.5369  0.0887
 2240TIP3    H128211   6.790   6.625  13.388  0.0288 -1.3378  0.3623
 2240TIP3    H228212   6.642   6.640  13.356  0.3278  0.4775 -0.2632
 2241TIP3   OH228213   0.601   2.662   1.456 -0.0606  0.2879 -0.1230
 2241TIP3    H128214   0.527   2.645   1.398 -0.6073 -0.2341  0.7209
 2241TIP3    H228215   0.677   2.657   1.398 -0.7385  1.8913 -1.2067
 2242TIP3   OH228216   0.948   4.638   0.037  0.3384 -0.2472 -0.0538
 2242TIP3    H128217   0.880   4.583  -0.003  0.2343 -1.1071  1.2509
 2242TIP3    H228218   0.925   4.639   0.130  2.1239 -0.5666  0.4168
 2243TIP3   OH228219   4.200   6.813  11.869 -0.2130 -0.0887  0.2887
 2243TIP3    H128220   4.244   6.730  11.851 -0.8294 -0.1976 -0.7774
 2243TIP3    H228221   4.123   6.788  11.921  0.5173  0.0223  1.4765
 2244TIP3   OH228222   1.845   0.715   5.313  0.1444 -0.0825  0.3424
 2244TIP3    H128223   1.773   0.772   5.286 -0.6047 -1.6599 -1.2478
 2244TIP3    H228224   1.801   0.637   5.349  0.9242 -1.6071 -1.7942
 2245TIP3   OH228225   2.331   1.069   2.011  0.2728  0.5341 -0.0912
 2245TIP3    H128226   2.286   1.107   1.935 -1.2381 -1.3879 -0.2501
 2245TIP3    H228227   2.272   1.087   2.085 -0.5408 -1.4744 -0.1930
 2246TIP3   OH228228   6.347   6.676   3.920 -0.9150  0.0780 -0.3318
 2246TIP3    H128229   6.329   6.736   3.993 -1.8448 -1.3685  0.6858
 2246TIP3    H228230   6.409   6.612   3.957  1.4647  1.3092 -1.9091
 2247TIP3   OH228231   1.841   3.513  13.564 -1.0954 -0.0296  0.3469
 2247TIP3    H128232   1.924   3.558  13.551 -0.9819  0.2887  1.9870
 2247TIP3    H228233   1.826   3.466  13.481 -0.5510  1.8930 -0.9057
 2248TIP3   OH228234   6.478   5.213  16.182 -0.5313 -0.7168  0.1235
 2248TIP3    H128235   6.455   5.275  16.113  0.0853  1.4749  1.7796
 2248TIP3    H228236   6.525   5.143  16.136 -0.4953  0.4456 -1.7370
 2249TIP3   OH228237   2.469   2.735   2.498 -1.2126 -0.2591 -0.8197
 2249TIP3    H128238   2.402   2.803   2.508 -1.1435 -0.2692 -0.2813
 2249TIP3    H228239   2.432   2.659   2.543 -0.2734  0.1233  0.6494
 2250TIP3   OH228240   4.839   3.356  12.542 -0.3776  0.4455 -0.2474
 2250TIP3    H128241   4.769   3.387  12.599 -1.5167  0.2920 -1.5223
 2250TIP3    H228242   4.801   3.282  12.495  1.5116 -1.4183  0.9687
 2251TIP3   OH228243   5.651   6.061  11.940 -0.3829 -0.2871  0.2706
 2251TIP3    H128244   5.729   6.066  11.995 -1.3807  0.6915  1.6688
 2251TIP3    H228245   5.685   6.058  11.850  1.2524  0.5810  0.8163
 2252TIP3   OH228246   2.022   5.216  15.609  0.2255 -0.0745 -0.2289
 2252TIP3    H128247   1.946   5.187  15.660 -0.5734  2.9694  0.5131
 2252TIP3    H228248   2.080   5.255  15.673  1.3279 -0.1905 -1.1258
 2253TIP3   OH228249   4.961   2.583  11.753  0.2395  0.0169  0.5704
 2253TIP3    H128250   5.055   2.568  11.758  0.2483 -0.6418 -1.1135
 2253TIP3    H228251   4.952   2.679  11.755  1.1925  0.2336 -2.1466
 2254TIP3   OH228252   1.869   2.537  12.490 -0.0187 -0.0014 -0.2793
 2254TIP3    H128253   1.934   2.590  12.446  0.3764  0.6455  1.0403
 2254TIP3    H228254   1.886   2.549  12.584 -1.1759 -0.8803  0.0812
 2255TIP3   OH228255   6.367   4.223   6.301  0.1246 -0.2912  0.1050
 2255TIP3    H128256   6.395   4.312   6.278  1.1488 -0.0846  1.9734
 2255TIP3    H228257   6.379   4.173   6.221  0.5483  1.0351 -0.6933
 2256TIP3   OH228258   6.012   0.072   2.893 -0.0885  0.2740  0.1260
 2256TIP3    H128259   6.069   0.139   2.931  0.0124  1.0126 -1.2437
 2256TIP3    H228260   5.927   0.087   2.934  0.1557  0.6455  0.5095
 2257TIP3   OH228261   6.594   5.158  10.762 -0.2580  0.5934 -0.1148
 2257TIP3    H128262   6.544   5.239  10.761 -0.4727  0.4733  0.5421
 2257TIP3    H228263   6.653   5.167  10.836  1.8629  1.4115 -1.7892
 2258TIP3   OH228264   5.287   3.290  14.922 -0.0198  0.1460 -0.1800
 2258TIP3    H128265   5.347   3.362  14.940 -0.1038 -0.1287  1.2682
 2258TIP3    H228266   5.313   3.259  14.835  0.8623  1.0739 -0.2702
 2259TIP3   OH228267   4.677   4.382   0.493 -0.1645  0.6539 -0.4856
 2259TIP3    H128268   4.672   4.442   0.419  0.0369  2.4891  0.9159
 2259TIP3    H228269   4.767   4.348   0.489 -0.3764  0.1476 -1.4648
 2260TIP3   OH228270   5.742   4.372   6.353  0.3294  0.2462 -0.0678
 2260TIP3    H128271   5.805   4.424   6.303  1.4352 -0.0958  0.9053
 2260TIP3    H228272   5.795   4.332   6.422 -0.7836 -0.9048  0.1450
 2261TIP3   OH228273   5.659   0.532  14.537 -0.2450 -0.6668 -0.1957
 2261TIP3    H128274   5.661   0.577  14.622 -2.5082 -2.3897  0.8923
 2261TIP3    H228275   5.659   0.439  14.560 -2.8540 -1.1794 -1.9231
 2262TIP3   OH228276   5.901   0.937  16.839  0.1397 -0.2070 -0.1842
 2262TIP3    H128277   5.824   0.986  16.809 -1.0419 -1.3603  0.8119
 2262TIP3    H228278   5.938   0.990  16.909  1.0033  0.9417 -1.4681
 2263TIP3   OH228279   0.992   5.820   4.214  0.3003  0.3247  0.0779
 2263TIP3    H128280   1.036   5.793   4.133  0.9336 -0.1454  0.5678
 2263TIP3    H228281   0.946   5.901   4.191 -1.5017 -1.0366 -1.3752
 2264TIP3   OH228282   4.696   5.931   3.303  0.2185 -0.4167  0.0190
 2264TIP3    H128283   4.671   5.953   3.392 -1.8007 -0.0580 -0.5878
 2264TIP3    H228284   4.723   5.839   3.307 -0.7745 -0.6786  0.8340
 2265TIP3   OH228285   3.005   6.141  12.804  0.4015  0.5295 -0.2735
 2265TIP3    H128286   2.921   6.186  12.797  0.3305  0.5211  0.5039
 2265TIP3    H228287   2.988   6.053  12.770  0.3222  0.7972 -0.9512
 2266TIP3   OH228288   4.694   0.878  13.556  0.4726 -0.2353  0.1549
 2266TIP3    H128289   4.786   0.899  13.571  0.8070 -1.4585 -0.0469
 2266TIP3    H228290   4.685   0.876  13.461  0.5854 -1.4373  0.1515
 2267TIP3   OH228291   6.658   3.976   2.294  0.4534 -0.5037 -0.0185
 2267TIP3    H128292   6.570   4.009   2.278  0.9473  1.1668  0.5189
 2267TIP3    H228293   6.692   3.957   2.206 -0.2265 -0.6010 -0.2690
 2268TIP3   OH228294   3.860   1.791  11.384 -0.1284  0.2597 -0.0248
 2268TIP3    H128295   3.887   1.810  11.294  0.7294 -2.2077 -0.3601
 2268TIP3    H228296   3.942   1.777  11.431 -0.5921 -1.5928  0.3346
 2269TIP3   OH228297   0.495   5.536   3.524  0.6934 -0.0016  0.0589
 2269TIP3    H128298   0.500   5.569   3.434  1.6020  2.0054  0.7872
 2269TIP3    H228299   0.465   5.611   3.575 -4.5381 -2.2291  0.9074
 2270TIP3   OH228300   1.785   6.629  12.090 -0.2141 -0.6007  0.3034
 2270TIP3    H128301   1.705   6.621  12.037 -0.0128  2.0689 -0.5452
 2270TIP3    H228302   1.754   6.623  12.180 -1.5601  1.1117  0.0183
 2271TIP3   OH228303   2.646   3.295   4.638  0.9615  0.0087  0.0794
 2271TIP3    H128304   2.586   3.338   4.577 -1.3070 -1.5075  1.1304
 2271TIP3    H228305   2.672   3.365   4.699 -0.1311  0.5825 -0.0982
 2272TIP3   OH228306   4.288   4.214  11.539  0.2249  0.3889  0.7031
 2272TIP3    H128307   4.338   4.276  11.592 -1.0262  2.1055 -0.0617
 2272TIP3    H228308   4.250   4.266  11.469 -1.8729 -0.9937  0.7115
 2273TIP3   OH228309   3.518   2.573   4.417  0.0167  0.1155 -0.5219
 2273TIP3    H128310   3.492   2.488   4.380 -1.0148  0.6392 -1.0457
 2273TIP3    H228311   3.532   2.628   4.340  1.6151  0.1852 -0.2162
 2274TIP3   OH228312   6.628   1.114   2.244  0.7311  0.2583  0.0093
 2274TIP3    H128313   6.663   1.055   2.310  1.0138  0.8317  0.3838
 2274TIP3    H228314   6.618   1.060   2.165  1.6828 -0.1089  0.1280
 2275TIP3   OH228315   4.551   5.192   0.413  0.1301  0.6053  0.1687
 2275TIP3    H128316   4.594   5.273   0.387  0.5467  0.7185  1.1705
 2275TIP3    H228317   4.622   5.129   0.427 -0.2803 -0.9149 -3.5347
 2276TIP3   OH228318   5.624   1.792   3.320 -0.2421  0.2838  0.1798
 2276TIP3    H128319   5.650   1.704   3.294  1.0019  0.6986 -0.0263
 2276TIP3    H228320   5.528   1.791   3.315 -0.3803 -1.5919  1.9445
 2277TIP3   OH228321   2.123   1.746   0.159  0.3148 -0.4675 -0.4785
 2277TIP3    H128322   2.106   1.819   0.099  1.2644 -0.7904 -1.1683
 2277TIP3    H228323   2.036   1.721   0.190 -0.1505  0.0999 -1.2627
 2278TIP3   OH228324   3.853   4.583  14.747  0.0926 -0.2674  0.1655
 2278TIP3    H128325   3.920   4.651  14.749 -1.4978  1.3275  1.3617
 2278TIP3    H228326   3.901   4.503  14.770  1.4975  0.9305  1.6640
 2279TIP3   OH228327   4.122   3.065  11.087  0.0274  0.4711  0.5389
 2279TIP3    H128328   4.098   3.036  10.999  1.4104 -0.2472  0.3759
 2279TIP3    H228329   4.059   3.020  11.144 -0.0464 -0.1222  0.0093
 2280TIP3   OH228330   5.817   2.539   4.812  0.1385  0.1488 -0.3605
 2280TIP3    H128331   5.751   2.605   4.794  0.8708  2.1083  3.1578
 2280TIP3    H228332   5.767   2.459   4.831 -1.0743  0.9188 -0.2266
 2281TIP3   OH228333   5.258   6.370   0.468  0.4081  0.1531 -0.1214
 2281TIP3    H128334   5.324   6.435   0.492  0.5153 -0.1439  0.3866
 2281TIP3    H228335   5.267   6.301   0.533 -0.0833 -0.1128 -0.3315
 2282TIP3   OH228336   3.438   2.480   2.076  0.2617 -0.0866 -0.0822
 2282TIP3    H128337   3.476   2.563   2.047  0.4023  0.7678  2.3166
 2282TIP3    H228338   3.349   2.503   2.104  0.1737 -0.8116  0.2537
 2283TIP3   OH228339   0.265   6.346  10.865  0.5067  0.7492 -0.1124
 2283TIP3    H128340   0.270   6.396  10.783 -1.8277 -0.8490 -1.3345
 2283TIP3    H228341   0.278   6.255  10.838  0.0975  0.2372  1.3534
 2284TIP3   OH228342   1.842   6.845   6.146  0.1758  0.3212 -1.0338
 2284TIP3    H128343   1.854   6.876   6.236 -1.1312 -0.5184 -0.5448
 2284TIP3    H228344   1.927   6.809   6.121  0.4475  0.2285  0.0057
 2285TIP3   OH228345   0.685   0.841  12.399 -0.1496  0.0606  0.1129
 2285TIP3    H128346   0.737   0.771  12.440 -0.5135  0.7752  1.9191
 2285TIP3    H228347   0.725   0.922  12.432  0.8565  0.7965 -2.6717
 2286TIP3   OH228348   4.317   0.858  11.540  0.0759 -0.0194  0.6543
 2286TIP3    H128349   4.298   0.848  11.634 -1.0113  2.0973  0.7152
 2286TIP3    H228350   4.410   0.879  11.536 -0.0217  0.5965  1.3474
 2287TIP3   OH228351   2.928   2.104   4.975 -0.0261 -0.7042 -0.0480
 2287TIP3    H128352   3.007   2.065   4.939  0.1441 -0.0034 -0.4569
 2287TIP3    H228353   2.920   2.067   5.063  0.0200 -1.7921 -0.4922
 2288TIP3   OH228354   6.585   3.512  16.759  0.0935 -0.1555 -0.0971
 2288TIP3    H128355   6.510   3.567  16.783 -0.0804 -0.3658 -0.1575
 2288TIP3    H228356   6.575   3.498  16.665 -0.4650 -1.1760  0.0925
 2289TIP3   OH228357   2.564   5.667  15.363  0.4105  0.6946  0.4806
 2289TIP3    H128358   2.599   5.611  15.432  1.5562  0.8397  0.0351
 2289TIP3    H228359   2.482   5.701  15.400 -0.3113 -1.2432  0.7490
 2290TIP3   OH228360   3.226   1.861  16.803 -0.5758  0.3353  0.0954
 2290TIP3    H128361   3.249   1.870  16.895 -0.4164  1.4997 -0.0389
 2290TIP3    H228362   3.213   1.767  16.790 -1.9975  0.2771  1.6199
 2291TIP3   OH228363   4.448   0.252   0.876  0.8572  0.2722  0.2843
 2291TIP3    H128364   4.520   0.315   0.875  1.1239 -0.0306  0.3608
 2291TIP3    H228365   4.379   0.294   0.824  1.8654 -0.3545 -1.6507
 2292TIP3   OH228366   4.008   1.552  11.001 -0.3948  0.1570  0.2844
 2292TIP3    H128367   4.063   1.515  11.071 -0.0618  0.8989  0.4224
 2292TIP3    H228368   3.929   1.498  11.002 -0.8035  0.7080  1.8700
 2293TIP3   OH228369   0.191   5.872  10.277  0.0912 -0.2306 -0.1796
 2293TIP3    H128370   0.283   5.880  10.300  0.1430  0.4765 -0.6202
 2293TIP3    H228371   0.144   5.901  10.355  0.2453 -0.0591 -0.1496
 2294TIP3   OH228372   6.669   4.025   2.631  0.2596  0.6727  0.3861
 2294TIP3    H128373   6.625   4.098   2.674  0.5555  0.5939  0.8280
 2294TIP3    H228374   6.693   4.058   2.545 -0.6531  0.7186  0.1405
 2295TIP3   OH228375   0.019   1.477   2.715  0.1991  0.1734 -0.6200
 2295TIP3    H128376  -0.040   1.515   2.650 -1.3226  0.0845  0.6449
 2295TIP3    H228377  -0.011   1.387   2.725  1.4192 -0.2831 -0.9099
 2296TIP3   OH228378   3.992   6.166   0.912  0.2541  0.1399 -0.0242
 2296TIP3    H128379   3.982   6.075   0.882  0.6230  0.2177 -0.3992
 2296TIP3    H228380   4.058   6.203   0.853 -3.6530  2.2908 -3.5115
 2297TIP3   OH228381   0.135   6.471  14.958  0.1681  0.1244  0.0355
 2297TIP3    H128382   0.093   6.390  14.928  0.3061 -0.1761  0.6599
 2297TIP3    H228383   0.062   6.533  14.965 -0.7345 -1.1182  3.7708
 2298TIP3   OH228384   5.457   6.653   1.549 -0.3253  0.0626  0.1312
 2298TIP3    H128385   5.429   6.599   1.474 -0.5828  0.3193  0.0449
 2298TIP3    H228386   5.376   6.679   1.592 -0.2884  1.5606 -0.6412
 2299TIP3   OH228387   5.223   3.007  13.534 -0.4295  0.1748 -0.1902
 2299TIP3    H128388   5.211   2.937  13.470  0.0550 -0.0289 -0.0636
 2299TIP3    H228389   5.148   2.999  13.593 -0.3024 -0.3232 -0.0948
 2300TIP3   OH228390   1.718   5.699   0.829  0.0429 -0.7809 -0.7071
 2300TIP3    H128391   1.634   5.700   0.783 -0.2340  1.3561 -0.2873
 2300TIP3    H228392   1.777   5.749   0.772  0.5281 -0.7452 -0.1874
 2301TIP3   OH228393   2.409   4.595   2.153 -0.2110 -0.0159 -0.3349
 2301TIP3    H128394   2.339   4.636   2.203  0.7307  0.4676  0.6532
 2301TIP3    H228395   2.469   4.668   2.132 -0.0430 -0.3983 -1.2280
 2302TIP3   OH228396   1.066   4.683   4.948  0.5542  0.7809 -0.1180
 2302TIP3    H128397   1.092   4.765   4.907  2.1798  0.6755  0.6117
 2302TIP3    H228398   1.126   4.618   4.912 -0.3886  0.0031 -0.3103
 2303TIP3   OH228399   4.831   3.339  12.912  0.0660  0.5251 -0.4662
 2303TIP3    H128400   4.751   3.360  12.865 -1.2491  0.7772  1.7265
 2303TIP3    H228401   4.860   3.255  12.876 -0.8623  0.6999 -1.6638
 2304TIP3   OH228402   2.214   3.333   1.722  0.5185  0.6653 -0.2148
 2304TIP3    H128403   2.210   3.429   1.724 -0.7269  0.6700 -1.4337
 2304TIP3    H228404   2.162   3.306   1.797  0.0871  0.9413 -0.4112
 2305TIP3   OH228405   0.832   6.536   4.908 -0.2497  0.4214  0.1717
 2305TIP3    H128406   0.816   6.474   4.979  0.9106  0.1981  0.2466
 2305TIP3    H228407   0.801   6.620   4.942 -0.7036  0.1186  0.5236
 2306TIP3   OH228408   4.549   0.862  12.125  0.2291  0.0594 -0.7899
 2306TIP3    H128409   4.579   0.850  12.035  0.7523  0.6517 -0.7085
 2306TIP3    H228410   4.464   0.904  12.117  0.0298 -0.3837 -1.0140
 2307TIP3   OH228411   0.212   2.938   0.527  0.1839 -0.1910  0.2129
 2307TIP3    H128412   0.147   2.916   0.593  0.2346  0.8218  0.6090
 2307TIP3    H228413   0.220   3.033   0.531 -1.2139  0.1420 -2.5534
 2308TIP3   OH228414   3.527   2.137   5.629  0.1389  0.0263  0.5192
 2308TIP3    H128415   3.500   2.189   5.553 -1.2329 -0.1673  0.8426
 2308TIP3    H228416   3.500   2.048   5.607 -3.7605  0.4699  2.6648
 2309TIP3   OH228417   2.802   5.191  14.398 -0.2696 -0.0297 -0.0090
 2309TIP3    H128418   2.803   5.132  14.323 -0.5364 -0.6563  0.4719
 2309TIP3    H228419   2.799   5.133  14.474 -3.6438  0.5325  0.4674
 2310TIP3   OH228420   4.257   3.639   5.138 -0.6709 -0.2521 -0.6908
 2310TIP3    H128421   4.270   3.733   5.143  1.0433 -0.5194  0.5054
 2310TIP3    H228422   4.329   3.607   5.085 -0.9531 -0.9583 -0.6611
 2311TIP3   OH228423   1.865   1.117   4.063  0.4520 -0.5573 -0.1997
 2311TIP3    H128424   1.803   1.184   4.036 -0.3805 -1.7005 -1.2253
 2311TIP3    H228425   1.878   1.133   4.157  0.9842  1.5577 -0.5756
 2312TIP3   OH228426   2.842   2.432   2.019  0.5021 -0.1958  0.2509
 2312TIP3    H128427   2.773   2.380   2.059 -1.4050  1.9570 -0.0735
 2312TIP3    H228428   2.873   2.379   1.946 -3.1721  0.0620 -1.7162
 2313TIP3   OH228429   0.833   5.204   3.356  0.1339 -0.1773 -0.0234
 2313TIP3    H128430   0.928   5.198   3.357  0.2165  0.9035 -0.2463
 2313TIP3    H228431   0.812   5.274   3.417 -0.1564  3.2036 -3.5724
 2314TIP3   OH228432   0.956   6.039   2.216 -0.0395 -0.0682  0.0784
 2314TIP3    H128433   1.023   6.052   2.283 -0.2532 -1.0432  0.4983
 2314TIP3    H228434   0.974   6.107   2.151  1.1422 -0.0961  0.3469
 2315TIP3   OH228435   6.127   0.233   0.419 -0.4117 -0.3542 -0.3221
 2315TIP3    H128436   6.065   0.273   0.480  0.3687 -0.0752  0.2920
 2315TIP3    H228437   6.105   0.140   0.421 -1.8194 -0.0757 -1.2792
 2316TIP3   OH228438   6.594   5.895   0.274  0.3761 -0.1720  0.4000
 2316TIP3    H128439   6.640   5.970   0.312  1.0334 -0.4436  0.1649
 2316TIP3    H228440   6.664   5.832   0.254  0.0420 -0.1043 -1.0991
 2317TIP3   OH228441   3.254   1.747  12.222 -0.0745 -0.2473  0.0612
 2317TIP3    H128442   3.232   1.757  12.130 -0.5502 -0.4925  0.1423
 2317TIP3    H228443   3.349   1.739  12.224 -0.1479 -1.7046 -0.5586
 2318TIP3   OH228444   5.054   5.835   0.642  0.2910 -0.0313  0.1098
 2318TIP3    H128445   4.984   5.899   0.632  0.2117 -0.2447 -0.7215
 2318TIP3    H228446   5.127   5.871   0.590 -0.2938 -1.3940 -1.7373
 2319TIP3   OH228447   1.569   0.876   5.379 -0.6641 -0.5012  0.4978
 2319TIP3    H128448   1.569   0.967   5.350 -0.1837 -0.2351  1.2861
 2319TIP3    H228449   1.478   0.848   5.372 -0.5987 -0.4107 -1.0755
 2320TIP3   OH228450   3.299   6.170  16.740  0.1318 -0.6376  0.3989
 2320TIP3    H128451   3.262   6.082  16.732  0.5322 -0.8843  1.2117
 2320TIP3    H228452   3.224   6.228  16.728 -0.3103 -1.1092  0.8364
 2321TIP3   OH228453   0.034   6.062   3.266 -0.8393 -0.3524 -0.0042
 2321TIP3    H128454   0.093   6.062   3.191  0.3728 -0.4250  0.9028
 2321TIP3    H228455  -0.039   6.117   3.240 -0.2218 -0.0111 -1.0716
 2322TIP3   OH228456   3.698   4.212  12.533 -0.5367 -0.7585 -0.4409
 2322TIP3    H128457   3.639   4.230  12.606  0.1575 -1.6852  0.3772
 2322TIP3    H228458   3.641   4.180  12.463 -0.9373 -2.5036  0.6322
 2323TIP3   OH228459   2.269   1.010   3.112 -0.5417 -0.2227  0.3198
 2323TIP3    H128460   2.301   1.048   3.031 -0.2050  0.1830  0.6412
 2323TIP3    H228461   2.342   0.956   3.144  0.4142  1.8232  1.7909
 2324TIP3   OH228462   4.374   4.804  16.357  0.0104 -0.1291 -0.6285
 2324TIP3    H128463   4.396   4.896  16.341 -0.5828  0.2133  0.4747
 2324TIP3    H228464   4.355   4.800  16.451 -1.3130 -1.0944 -0.9196
 2325TIP3   OH228465   6.450   2.363  13.052 -0.0693 -0.2172 -0.3028
 2325TIP3    H128466   6.483   2.329  12.969 -0.0646 -0.7292 -0.0976
 2325TIP3    H228467   6.378   2.303  13.074 -1.3111  1.0067 -0.8624
 2326TIP3   OH228468   1.657   1.167   0.462 -0.5022  0.4648 -0.0031
 2326TIP3    H128469   1.652   1.216   0.545 -0.3510  0.2732  0.1203
 2326TIP3    H228470   1.567   1.161   0.432 -0.5686  0.4572  0.1961
 2327TIP3   OH228471   3.802   6.458   5.510 -0.0822 -0.3688 -0.4675
 2327TIP3    H128472   3.749   6.427   5.437 -1.1637  1.1138 -0.3585
 2327TIP3    H228473   3.843   6.539   5.477  0.7775 -0.5969  0.0106
 2328TIP3   OH228474   0.459   4.974   6.459  0.3983  0.2585 -0.4032
 2328TIP3    H128475   0.397   5.046   6.475  2.0047  1.4027  1.1006
 2328TIP3    H228476   0.544   5.009   6.487  1.2192 -2.2960  0.6334
 2329TIP3   OH228477   1.176   1.073   2.360 -0.3155 -0.6054  0.1600
 2329TIP3    H128478   1.139   1.152   2.401 -0.1980  0.1004 -1.0520
 2329TIP3    H228479   1.150   1.002   2.419 -0.3769  0.3263  1.3181
 2330TIP3   OH228480   3.253   2.431   3.773  0.0811  0.2358 -0.0409
 2330TIP3    H128481   3.307   2.353   3.789  0.0933  0.2773  0.1228
 2330TIP3    H228482   3.228   2.424   3.681  0.6553  0.3930 -0.2179
 2331TIP3   OH228483   1.633   0.447  11.649 -0.2381 -0.0356 -0.1325
 2331TIP3    H128484   1.716   0.445  11.602  0.1544  3.6861  0.1246
 2331TIP3    H228485   1.657   0.450  11.741 -0.6290  1.0563 -0.0520
 2332TIP3   OH228486   5.869   3.370  12.940  0.4700 -0.1520  0.0779
 2332TIP3    H128487   5.932   3.426  12.985  0.3450  0.2522 -0.2411
 2332TIP3    H228488   5.918   3.290  12.919  1.0149  0.3393 -0.5714
 2333TIP3   OH228489   3.511   1.976  13.960 -0.0570 -0.2770  0.6578
 2333TIP3    H128490   3.595   2.020  13.970 -0.4024  0.0225  2.6399
 2333TIP3    H228491   3.462   2.032  13.900  1.7008 -1.3749 -1.9693
 2334TIP3   OH228492   3.541   0.985  16.299  0.1358 -0.2772  0.7782
 2334TIP3    H128493   3.591   1.005  16.379  1.3215 -0.6835  0.1746
 2334TIP3    H228494   3.574   0.899  16.272  1.2347  0.7068 -1.2371
 2335TIP3   OH228495   4.189   4.940   0.767  0.4666 -0.1641  0.0726
 2335TIP3    H128496   4.171   4.995   0.843 -0.1925 -0.7407  0.3372
 2335TIP3    H228497   4.247   4.994   0.713  1.7523 -0.1107  1.4209
 2336TIP3   OH228498   0.229   4.781  16.855 -0.2918  0.1581  0.5849
 2336TIP3    H128499   0.243   4.779  16.950  1.7382  0.1256  0.3322
 2336TIP3    H228500   0.316   4.798  16.818 -1.2748  1.6879 -1.2307
 2337TIP3   OH228501   6.242   0.776  16.279 -0.2999  0.7017 -0.4419
 2337TIP3    H128502   6.245   0.844  16.346 -0.7841  0.1327  0.1578
 2337TIP3    H228503   6.166   0.722  16.301 -0.2375  0.2764 -1.2195
 2338TIP3   OH228504   1.109   3.549  16.719 -0.2918  0.5296 -0.2897
 2338TIP3    H128505   1.037   3.608  16.741 -1.4196 -0.5024 -1.0907
 2338TIP3    H228506   1.186   3.606  16.716 -0.9172  1.5567  1.2671
 2339TIP3   OH228507   3.236   4.858   3.181  0.1420  0.2848  0.5612
 2339TIP3    H128508   3.145   4.867   3.151  0.5050  1.4464 -0.3006
 2339TIP3    H228509   3.286   4.913   3.120  1.2362  0.8547  1.9245
 2340TIP3   OH228510   4.573   4.218   1.479  0.6533  0.5301  0.3690
 2340TIP3    H128511   4.664   4.197   1.498  0.6600 -1.6132 -1.6374
 2340TIP3    H228512   4.569   4.227   1.384 -1.2288  0.4990  0.4028
 2341TIP3   OH228513   3.595   6.027  12.025 -0.1047 -0.2392  0.1234
 2341TIP3    H128514   3.561   6.103  12.073  0.4671 -0.4040  0.8057
 2341TIP3    H228515   3.650   5.981  12.089 -0.0265 -0.9420 -0.4392
 2342TIP3   OH228516   5.987   1.736   2.786  0.6682  0.2538  0.4786
 2342TIP3    H128517   5.991   1.807   2.850  1.2763  0.2089  0.4965
 2342TIP3    H228518   6.058   1.677   2.812  0.3449 -0.2244  0.3005
 2343TIP3   OH228519   0.095   1.623  11.716 -0.3859  0.7695 -0.0680
 2343TIP3    H128520   0.116   1.658  11.629 -0.7299  1.0313 -0.0458
 2343TIP3    H228521   0.086   1.700  11.771 -1.5905  0.6774 -0.1168
 2344TIP3   OH228522   6.781   0.452  12.751 -0.1418  0.1486  0.1942
 2344TIP3    H128523   6.739   0.531  12.718  1.7195  1.2767  0.3753
 2344TIP3    H228524   6.767   0.387  12.682  0.8692  1.5159 -1.3709
 2345TIP3   OH228525   0.625   2.035  15.613  0.1370  0.0609  0.4953
 2345TIP3    H128526   0.573   2.026  15.693  0.7840 -1.9304  0.7636
 2345TIP3    H228527   0.561   2.030  15.542 -0.4259  1.6900  0.8479
 2346TIP3   OH228528   6.801   5.084  14.733  0.0535 -0.2152  0.2208
 2346TIP3    H128529   6.751   5.153  14.777  1.7108  0.9314  0.3944
 2346TIP3    H228530   6.852   5.130  14.667 -0.3473 -1.5739 -1.1022
 2347TIP3   OH228531   5.620   1.469  15.630  0.0075 -0.0048  0.5050
 2347TIP3    H128532   5.704   1.508  15.604  0.7957 -0.9662  1.5221
 2347TIP3    H228533   5.572   1.459  15.548  1.6064 -1.0808 -0.3405
 2348TIP3   OH228534   4.306   4.053   6.581  0.3382  0.0325 -0.6652
 2348TIP3    H128535   4.225   4.102   6.595 -0.5902 -1.2590 -1.3177
 2348TIP3    H228536   4.365   4.116   6.541 -0.5562  0.8405 -0.7506
 2349TIP3   OH228537   1.120   4.658   2.417  0.0019 -0.2233 -0.5394
 2349TIP3    H128538   1.155   4.693   2.336 -1.5440  0.4545 -0.9661
 2349TIP3    H228539   1.031   4.695   2.422 -0.0641 -0.5326  1.2698
 2350TIP3   OH228540   4.338   4.461   3.866  0.2337 -0.1105 -0.1389
 2350TIP3    H128541   4.399   4.513   3.813  0.3692  1.5075  1.4945
 2350TIP3    H228542   4.251   4.491   3.839  0.1953 -1.1379 -1.2131
 2351TIP3   OH228543   4.994   0.336  17.056  0.4735  0.4245  0.3576
 2351TIP3    H128544   4.930   0.272  17.026  0.4962  0.1363  0.9122
 2351TIP3    H228545   4.964   0.420  17.020  0.1735  0.1826  0.0424
 2352TIP3   OH228546   1.412   2.454  14.539  0.4181  0.0621  0.0038
 2352TIP3    H128547   1.458   2.375  14.568 -0.4889 -1.5219 -2.4861
 2352TIP3    H228548   1.468   2.492  14.471  0.1924  0.7620  0.2018
 2353TIP3   OH228549   0.454   6.147  13.846 -0.1058 -0.0617 -0.1160
 2353TIP3    H128550   0.501   6.071  13.811 -0.1106  0.6329 -1.7438
 2353TIP3    H228551   0.499   6.223  13.809 -0.5183  0.7220  0.9345
 2354TIP3   OH228552   2.629   6.252  16.967 -0.2621 -0.7626  0.8210
 2354TIP3    H128553   2.598   6.257  17.057 -0.6274 -1.3602  0.7388
 2354TIP3    H228554   2.676   6.334  16.953 -1.5962  0.0715  1.0306
 2355TIP3   OH228555   2.750   5.246  14.018 -0.0203 -0.2604  0.2828
 2355TIP3    H128556   2.731   5.270  13.927 -1.7849  2.0631  1.1532
 2355TIP3    H228557   2.758   5.330  14.064 -1.4412 -1.3029  2.6726
 2356TIP3   OH228558   1.354   1.209   0.363  0.0909 -0.6014  0.3620
 2356TIP3    H128559   1.265   1.172   0.363  0.8686 -2.6590  1.1381
 2356TIP3    H228560   1.396   1.170   0.286  0.3063  0.4558 -0.0709
 2357TIP3   OH228561   5.506   1.606   1.824 -0.2795  0.6496  0.1770
 2357TIP3    H128562   5.506   1.516   1.858 -2.3611  0.8659  0.8585
 2357TIP3    H228563   5.520   1.661   1.901  1.4128  0.9321 -0.2988
 2358TIP3   OH228564   0.464   0.560   3.094 -0.2963  0.2160 -0.0431
 2358TIP3    H128565   0.540   0.618   3.097 -0.4498  0.7567 -3.1599
 2358TIP3    H228566   0.390   0.616   3.116 -0.0609  0.2829  0.5882
 2359TIP3   OH228567   3.389   5.889   1.559 -0.7312  0.3589 -0.3369
 2359TIP3    H128568   3.467   5.940   1.539 -1.3929  1.0490 -1.2150
 2359TIP3    H228569   3.421   5.818   1.615  0.4714  0.7928 -0.4438
 2360TIP3   OH228570   4.133   4.339   4.230 -0.0188  0.0177  0.6574
 2360TIP3    H128571   4.148   4.285   4.153 -0.9173  2.7679 -1.6155
 2360TIP3    H228572   4.211   4.393   4.237 -0.7735  1.1583  0.4458
 2361TIP3   OH228573   4.411   0.852   0.146 -0.2825 -0.4285 -0.0001
 2361TIP3    H128574   4.474   0.887   0.210 -1.0691  0.0801  0.5120
 2361TIP3    H228575   4.457   0.780   0.105  0.5366 -0.2551  0.5797
 2362TIP3   OH228576   2.402   1.377  11.856 -0.0661  0.0987  0.1713
 2362TIP3    H128577   2.421   1.452  11.800 -1.4536 -0.0254 -0.5120
 2362TIP3    H228578   2.308   1.365  11.850  0.0200 -1.2164  0.8977
 2363TIP3   OH228579   3.984   0.328  14.666 -0.2200 -0.6042  0.2940
 2363TIP3    H128580   3.967   0.252  14.611  0.5228  0.2622 -1.1901
 2363TIP3    H228581   4.064   0.305  14.713 -0.5538 -1.1243  0.6264
 2364TIP3   OH228582   3.438   5.294   4.613 -0.1255 -0.0057  0.5171
 2364TIP3    H128583   3.440   5.344   4.531  0.4441 -0.0662  0.4874
 2364TIP3    H228584   3.517   5.321   4.659 -0.1329 -0.4200  0.7767
 2365TIP3   OH228585   5.304   2.924   3.379 -0.2449 -0.7357  0.3594
 2365TIP3    H128586   5.291   3.018   3.366  0.5691 -0.7426 -0.5971
 2365TIP3    H228587   5.391   2.907   3.344 -0.3292 -1.8229  0.6562
 2366TIP3   OH228588   2.785   1.749   3.494 -0.2315 -0.4393  0.2382
 2366TIP3    H128589   2.713   1.788   3.445 -1.8099 -1.2324  1.8231
 2366TIP3    H228590   2.839   1.707   3.427 -1.4770 -0.1811 -0.9733
 2367TIP3   OH228591   4.225   0.272  12.163  0.0213  0.2949  0.1639
 2367TIP3    H128592   4.146   0.229  12.129 -0.1686  0.0921  0.8516
 2367TIP3    H228593   4.192   0.339  12.222  0.3803 -1.0040  1.9044
 2368TIP3   OH228594   1.293   0.736   3.060 -0.0672  0.2120 -0.4674
 2368TIP3    H128595   1.349   0.738   2.982  0.0711 -0.3466 -0.3872
 2368TIP3    H228596   1.204   0.731   3.026 -0.0526  0.7383 -0.5925
 2369TIP3   OH228597   6.061   4.891   3.966 -0.4091  0.1815  0.1957
 2369TIP3    H128598   5.994   4.879   3.899  2.9828  0.2471 -3.6505
 2369TIP3    H228599   6.071   4.986   3.973  2.1041  0.3135 -2.8080
 2370TIP3   OH228600   1.702   5.570   3.634 -0.0182 -0.2137 -0.0627
 2370TIP3    H128601   1.623   5.598   3.587 -0.4609  0.4222  1.0166
 2370TIP3    H228602   1.772   5.574   3.568 -0.5413  1.0279 -0.5728
 2371TIP3   OH228603   2.409   5.115   4.983  0.1810 -0.2925 -0.3826
 2371TIP3    H128604   2.341   5.055   5.015  2.0395 -1.1702  2.3424
 2371TIP3    H228605   2.392   5.197   5.029  0.3929 -0.2357 -0.4028
 2372TIP3   OH228606   5.949   3.308   2.075 -0.1545 -0.1208 -0.1406
 2372TIP3    H128607   5.970   3.312   1.982  1.6598 -1.6348  0.1285
 2372TIP3    H228608   5.971   3.219   2.100 -0.8234  0.1953  1.7071
 2373TIP3   OH228609   5.456   0.048   3.828 -0.1783 -0.3422  0.0556
 2373TIP3    H128610   5.509  -0.007   3.771  1.7992 -0.0088  1.4310
 2373TIP3    H228611   5.419  -0.012   3.892 -0.5448 -0.4397 -0.2463
 2374TIP3   OH228612   5.220   3.535  13.762  0.0001  0.1497  0.3836
 2374TIP3    H128613   5.215   3.553  13.668  1.0890 -0.8018  0.1151
 2374TIP3    H228614   5.296   3.477  13.771  2.6014  3.4361  2.3250
 2375TIP3   OH228615   5.860   5.794   4.725 -0.8277 -0.0695 -0.0791
 2375TIP3    H128616   5.938   5.835   4.687 -0.1438  0.1990  1.5511
 2375TIP3    H228617   5.813   5.759   4.649  0.3818  0.5952 -1.1896
 2376TIP3   OH228618   6.661   6.748   6.665 -0.1097 -0.0032 -0.0956
 2376TIP3    H128619   6.714   6.827   6.661  1.1311 -0.7963 -4.1796
 2376TIP3    H228620   6.717   6.679   6.628 -2.3193 -2.0079 -0.0114
 2377TIP3   OH228621   5.495   4.286  16.607 -0.3172 -0.1334  0.2854
 2377TIP3    H128622   5.561   4.234  16.653  0.9166  2.1901  1.3308
 2377TIP3    H228623   5.416   4.232  16.608  0.9131 -2.0076  1.1260
 2378TIP3   OH228624   1.420   3.410   0.419 -0.2959  0.5558  0.2979
 2378TIP3    H128625   1.395   3.349   0.488 -1.9393 -0.8277 -1.3819
 2378TIP3    H228626   1.515   3.407   0.416 -0.3346 -2.0727  0.2007
 2379TIP3   OH228627   5.934   3.132   6.022  1.1162  0.1174  0.1791
 2379TIP3    H128628   5.997   3.093   6.082  0.7849  2.4902  2.2310
 2379TIP3    H228629   5.849   3.121   6.064  0.5411 -0.2819 -1.0463
 2380TIP3   OH228630   1.146   6.068   3.153  0.2410  0.3256 -0.0286
 2380TIP3    H128631   1.239   6.077   3.170  0.2616 -1.7315  1.3775
 2380TIP3    H228632   1.141   6.013   3.075  0.2698 -1.2422  1.0323
 2381TIP3   OH228633   3.090   3.889  12.479 -0.3144 -0.2550 -0.1557
 2381TIP3    H128634   3.080   3.795  12.489 -1.8699 -0.1215 -0.2841
 2381TIP3    H228635   3.106   3.922  12.567 -2.5262 -0.3571  0.3318
 2382TIP3   OH228636   6.674   0.295  16.992  0.2536  0.1923  0.3666
 2382TIP3    H128637   6.599   0.280  16.934 -0.1173 -0.3480  0.9724
 2382TIP3    H228638   6.741   0.334  16.935  0.2042 -1.0964 -0.6263
 2383TIP3   OH228639   1.270   0.309  15.184  0.2169  0.2214  0.2536
 2383TIP3    H128640   1.187   0.287  15.228  0.8826 -1.0052  0.9516
 2383TIP3    H228641   1.323   0.349  15.253  0.8908 -0.7599  0.3280
 2384TIP3   OH228642   3.570   4.652  14.768  0.5951  0.0852 -0.4707
 2384TIP3    H128643   3.579   4.694  14.682  0.0520  1.6648  0.2110
 2384TIP3    H228644   3.660   4.647  14.801  0.6443  1.0714 -0.4219
 2385TIP3   OH228645   1.844   4.472  16.137  0.1388 -0.9344 -0.2736
 2385TIP3    H128646   1.858   4.401  16.201 -1.2381  0.7278  2.0166
 2385TIP3    H228647   1.932   4.506  16.120  0.4147  0.6039  3.3287
 2386TIP3   OH228648   4.673   6.684  15.775  0.6343 -0.4377  0.0910
 2386TIP3    H128649   4.695   6.771  15.740 -0.6051 -1.0132 -2.3197
 2386TIP3    H228650   4.583   6.694  15.807  1.6536  0.0172  3.2427
 2387TIP3   OH228651   2.344   1.277  13.845  0.3622  0.3915 -0.0103
 2387TIP3    H128652   2.337   1.219  13.921  0.2464 -0.0782 -0.3812
 2387TIP3    H228653   2.380   1.358  13.881 -0.3094  0.4024  0.6622
 2388TIP3   OH228654   5.496   6.321   5.051  0.3531  0.0380 -0.0376
 2388TIP3    H128655   5.428   6.387   5.035 -0.4727 -0.6948  0.4077
 2388TIP3    H228656   5.573   6.356   5.007  0.2367  1.8404  1.0819
 2389TIP3   OH228657   1.590   2.315   1.030 -0.0782  0.5673 -0.4473
 2389TIP3    H128658   1.658   2.364   0.983  0.8618  0.4101  0.7049
 2389TIP3    H228659   1.626   2.302   1.117 -1.2983 -0.1693 -0.0318
 2390TIP3   OH228660   1.707   2.458   3.011 -0.5127 -0.1346 -0.0319
 2390TIP3    H128661   1.691   2.503   2.928 -1.2945  1.3612  0.8789
 2390TIP3    H228662   1.664   2.373   3.000 -1.0452  0.2360 -0.9748
 2391TIP3   OH228663   2.907   5.242  10.691 -0.0751 -0.0237  0.0173
 2391TIP3    H128664   2.820   5.229  10.653  0.0232 -0.9091  0.0646
 2391TIP3    H228665   2.963   5.264  10.617 -0.4279  1.0110  0.0516
 2392TIP3   OH228666   3.254   2.326   5.322 -0.2360  0.2628  0.1100
 2392TIP3    H128667   3.288   2.347   5.409  0.9803 -1.6953  0.1712
 2392TIP3    H228668   3.204   2.246   5.334  0.1509 -0.1783 -1.0097
 2393TIP3   OH228669   6.004   1.292   5.689 -0.2215  0.2520 -1.4591
 2393TIP3    H128670   6.034   1.219   5.743  0.3548  0.7999 -1.0242
 2393TIP3    H228671   5.985   1.253   5.604  0.0127 -0.4179 -1.2085
 2394TIP3   OH228672   2.969   3.036  11.408 -0.1927  0.0243 -0.9961
 2394TIP3    H128673   3.007   3.034  11.320 -1.8272 -0.7527 -1.7188
 2394TIP3    H228674   2.942   2.945  11.425 -0.3650  0.2614  0.1013
 2395TIP3   OH228675   5.752   4.819   0.124 -0.2176  0.0298  0.4440
 2395TIP3    H128676   5.793   4.900   0.156  1.6529 -0.2393 -1.1428
 2395TIP3    H228677   5.714   4.844   0.040  0.5812 -0.7727 -0.1716
 2396TIP3   OH228678   0.914   0.848  15.273  0.3187  0.0333 -0.3201
 2396TIP3    H128679   0.956   0.773  15.231 -1.4140  0.1311 -2.4059
 2396TIP3    H228680   0.957   0.925  15.235  1.2912  0.1522  0.9467
 2397TIP3   OH228681   5.395   5.163  17.016  0.1603  0.0751  0.2608
 2397TIP3    H128682   5.322   5.204  16.970  0.3361  2.3568  1.8246
 2397TIP3    H228683   5.473   5.195  16.970  0.2569 -2.1761 -1.2687
 2398TIP3   OH228684   6.598   0.674   1.586  0.6584  0.2566  0.3933
 2398TIP3    H128685   6.599   0.645   1.678 -1.2974 -0.0814  0.3495
 2398TIP3    H228686   6.538   0.615   1.543  1.9922  0.0621 -1.2828
 2399TIP3   OH228687   0.691   5.901   5.449  0.3983 -0.2727  0.3477
 2399TIP3    H128688   0.652   5.988   5.446  0.4461 -0.2585 -2.0149
 2399TIP3    H228689   0.775   5.911   5.404 -0.8940 -2.0421 -2.8044
 2400TIP3   OH228690   1.635   1.111  15.699  0.2406 -0.4601 -0.2089
 2400TIP3    H128691   1.631   1.034  15.756 -1.6235 -0.3547 -0.1137
 2400TIP3    H228692   1.728   1.122  15.679  0.5661 -2.7308 -0.2191
 2401TIP3   OH228693   0.324   2.645  12.532  0.1796  0.1078  0.4753
 2401TIP3    H128694   0.301   2.737  12.543  0.8477  0.1528  1.7132
 2401TIP3    H228695   0.418   2.645  12.517  0.1156 -0.3550  0.0121
 2402TIP3   OH228696   1.648   4.869   2.803 -0.5005  0.0022 -0.8475
 2402TIP3    H128697   1.633   4.964   2.798 -3.4970 -0.4189 -1.9727
 2402TIP3    H228698   1.593   4.839   2.875  3.2491 -0.5624  2.0392
 2403TIP3   OH228699   1.118   6.583  15.720 -0.4128  0.3906  0.0511
 2403TIP3    H128700   1.050   6.629  15.670  0.0466 -0.3563 -1.3113
 2403TIP3    H228701   1.072   6.547  15.795 -1.5867 -0.2442 -0.9346
 2404TIP3   OH228702   0.742   0.385   5.045 -0.4350  0.2823 -0.0437
 2404TIP3    H128703   0.803   0.412   5.113  0.5908 -2.9377  0.4923
 2404TIP3    H228704   0.765   0.438   4.969  2.1385  0.1440  0.5572
 2405TIP3   OH228705   3.787   2.878  10.527 -0.2312 -0.2564 -0.0312
 2405TIP3    H128706   3.713   2.823  10.503  1.9660 -3.7920  0.5527
 2405TIP3    H228707   3.750   2.944  10.586 -3.0588 -1.0423 -0.7693
 2406TIP3   OH228708   0.801   4.187   2.718 -0.5808 -0.0322  0.6055
 2406TIP3    H128709   0.819   4.166   2.627  2.2481 -0.5955  1.2023
 2406TIP3    H228710   0.749   4.267   2.715 -0.3036  0.1131 -1.4808
 2407TIP3   OH228711   3.161   1.517  10.533  0.1834  0.0241 -0.0535
 2407TIP3    H128712   3.209   1.450  10.582 -0.2567  0.0864  0.4774
 2407TIP3    H228713   3.118   1.569  10.600 -0.0514  0.4026 -0.4951
 2408TIP3   OH228714   3.917   1.593  13.684 -0.4891 -0.3091  0.0270
 2408TIP3    H128715   3.912   1.509  13.639 -1.5098  0.3194 -1.1189
 2408TIP3    H228716   3.970   1.647  13.625 -0.2441 -0.0187  0.5148
 2409TIP3   OH228717   6.758   3.590  13.164  0.0069 -0.2179  0.3611
 2409TIP3    H128718   6.737   3.525  13.231 -1.8343  0.0949  0.1420
 2409TIP3    H228719   6.763   3.673  13.212 -3.2993  0.3505 -0.0137
 2410TIP3   OH228720   4.492   2.479  17.100  0.1716  0.3780  0.4629
 2410TIP3    H128721   4.484   2.435  17.184 -0.8161  1.0333  0.7189
 2410TIP3    H228722   4.431   2.552  17.104  2.3205  2.3129  0.3751
 2411TIP3   OH228723   5.208   6.243  11.482 -0.2489 -0.0937 -0.1538
 2411TIP3    H128724   5.207   6.260  11.576  1.6562 -0.6353  0.0048
 2411TIP3    H228725   5.160   6.160  11.473 -1.4101  0.5100  0.1685
 2412TIP3   OH228726   6.401   1.780   6.286 -0.7717 -0.0509 -0.1432
 2412TIP3    H128727   6.449   1.845   6.234  2.9579 -0.8931  1.9514
 2412TIP3    H228728   6.359   1.832   6.355  0.5422  0.3452  0.3718
 2413TIP3   OH228729   1.282   0.237  14.182 -0.2807 -0.3408  0.0844
 2413TIP3    H128730   1.350   0.213  14.244  0.9025  1.0957 -0.5693
 2413TIP3    H228731   1.329   0.254  14.100 -1.4657  0.3254 -0.4935
 2414TIP3   OH228732   3.728   5.844   1.883  0.1531  0.8689 -0.3398
 2414TIP3    H128733   3.785   5.915   1.852  0.8219  0.8003  0.6614
 2414TIP3    H228734   3.721   5.859   1.978  0.8869 -0.7737  0.0199
 2415TIP3   OH228735   1.124   3.718  14.985 -0.0794  0.2022  0.0342
 2415TIP3    H128736   1.209   3.735  14.945 -0.1658  0.0239 -0.2314
 2415TIP3    H228737   1.062   3.768  14.933 -0.1922 -0.0226 -0.0514
 2416TIP3   OH228738   4.521   5.249  11.437  0.2903 -0.2536 -0.0961
 2416TIP3    H128739   4.585   5.295  11.382  0.3579  0.1280  0.3032
 2416TIP3    H228740   4.457   5.317  11.462 -1.9247 -1.1250 -2.8187
 2417TIP3   OH228741   6.360   6.099   5.724  0.0010  0.2997  0.4880
 2417TIP3    H128742   6.434   6.158   5.713 -0.2081  0.5385  0.3469
 2417TIP3    H228743   6.287   6.144   5.681  0.0713 -0.5165 -0.5294
 2418TIP3   OH228744   4.105   2.623   1.921 -0.1603 -0.1295  0.6318
 2418TIP3    H128745   4.152   2.596   1.842 -0.6040  1.1728 -0.1100
 2418TIP3    H228746   4.171   2.663   1.976  0.4893 -2.4662  1.7028
 2419TIP3   OH228747   6.575   0.808  14.772  0.5268 -0.2735 -0.1611
 2419TIP3    H128748   6.504   0.816  14.709 -1.5573 -0.0460  2.0902
 2419TIP3    H228749   6.638   0.749  14.730 -0.3284  0.5260 -2.7479
 2420TIP3   OH228750   0.712   4.094  17.014  0.0200  0.3177 -0.7133
 2420TIP3    H128751   0.780   4.117  16.951  0.4272 -0.2421 -0.4858
 2420TIP3    H228752   0.647   4.164  17.006  1.0962  1.3943 -0.2049
 2421TIP3   OH228753   6.842   6.111  13.875  0.0935 -0.6929  0.3404
 2421TIP3    H128754   6.930   6.143  13.858 -0.0037 -0.5718  0.0621
 2421TIP3    H228755   6.840   6.095  13.970  0.1650  0.0702  0.4803
 2422TIP3   OH228756   3.525   4.876   3.547  0.1383  0.0570 -0.0258
 2422TIP3    H128757   3.471   4.930   3.489  1.3085  1.7394  0.3608
 2422TIP3    H228758   3.614   4.909   3.533  0.6520 -0.5925  1.5423
 2423TIP3   OH228759   1.471   1.161  16.107 -0.1749  0.3651  0.5606
 2423TIP3    H128760   1.475   1.175  16.013  2.4613 -0.2596  0.5166
 2423TIP3    H228761   1.522   1.232  16.145  2.2347 -1.5465  1.1677
 2424TIP3   OH228762   2.353   6.090  17.138  0.1953  0.2127  0.2257
 2424TIP3    H128763   2.314   6.126  17.218 -0.4213  1.3361 -0.5524
 2424TIP3    H228764   2.445   6.075  17.160 -0.2964 -0.9188  1.5976
 2425TIP3   OH228765   1.026   6.087  15.468  0.3903 -0.4606 -0.0139
 2425TIP3    H128766   1.035   6.013  15.407  0.6773  0.2455 -0.8474
 2425TIP3    H228767   1.039   6.165  15.414 -2.3041  0.3438  0.3514
 2426TIP3   OH228768   2.833   0.207  15.648  0.4043  0.5106  0.2492
 2426TIP3    H128769   2.817   0.203  15.743 -1.8964 -0.6242 -0.1271
 2426TIP3    H228770   2.787   0.286  15.620 -0.3760 -0.0669 -0.1367
 2427TIP3   OH228771   1.170   4.321  15.260 -0.3741 -0.1086  0.4878
 2427TIP3    H128772   1.152   4.359  15.174 -0.2948 -0.3422  0.3677
 2427TIP3    H228773   1.205   4.393  15.311 -0.9621  0.1767  0.5002
 2428TIP3   OH228774   3.958   0.214   6.575  0.3760  0.3041 -0.0412
 2428TIP3    H128775   4.007   0.161   6.513 -0.8711  0.3107 -1.0783
 2428TIP3    H228776   3.996   0.192   6.661  0.9365 -1.0498 -0.6042
 2429TIP3   OH228777   1.175   5.755  11.406  0.6738 -0.1060 -0.4668
 2429TIP3    H128778   1.124   5.687  11.362 -0.0965 -1.0526  1.7490
 2429TIP3    H228779   1.120   5.833  11.402 -0.0506 -0.5781  0.0921
 2430TIP3   OH228780   4.392   2.534  16.212  0.2296  0.1999 -0.2824
 2430TIP3    H128781   4.410   2.558  16.303 -2.0569 -0.4772  0.4221
 2430TIP3    H228782   4.460   2.470  16.191  0.7971  0.3538  0.9578
 2431TIP3   OH228783   1.722   0.212   4.072  1.0117 -0.5904 -0.0504
 2431TIP3    H128784   1.657   0.141   4.073 -0.8259  0.9436 -1.5157
 2431TIP3    H228785   1.799   0.172   4.032  0.7367 -2.2737  0.9989
 2432TIP3   OH228786   1.351   1.818  11.509  0.0406 -0.0708  0.1805
 2432TIP3    H128787   1.310   1.863  11.583 -0.3969  2.5371 -1.4946
 2432TIP3    H228788   1.280   1.768  11.469 -0.4438  0.7501 -0.0340
 2433TIP3   OH228789   1.504   5.132   3.436  0.5423 -0.3636 -0.0419
 2433TIP3    H128790   1.537   5.222   3.429 -1.0236  0.2782  0.2692
 2433TIP3    H228791   1.489   5.120   3.530  1.7020 -1.3473  0.0407
 2434TIP3   OH228792   2.459   5.460   4.373 -0.2306 -0.5082  0.0332
 2434TIP3    H128793   2.451   5.365   4.386 -1.8553 -0.2382  1.3511
 2434TIP3    H228794   2.369   5.491   4.369  0.1551  1.4099  3.2042
 2435TIP3   OH228795   0.831   3.506  11.365  0.3999  0.1086  0.3465
 2435TIP3    H128796   0.747   3.549  11.351  0.0078 -0.5808  0.5040
 2435TIP3    H228797   0.827   3.475  11.456  1.0728  0.6034  0.5485
 2436TIP3   OH228798   4.068   4.689  17.007  0.0115  0.5991 -0.0368
 2436TIP3    H128799   4.059   4.606  16.960  2.7495 -0.1907  0.6805
 2436TIP3    H228800   4.001   4.684  17.076  0.1200 -1.0342  0.0005
 2437TIP3   OH228801   2.801   1.332  12.003  0.3965  0.8500 -0.0394
 2437TIP3    H128802   2.823   1.421  11.978  0.8410  0.2417 -1.9993
 2437TIP3    H228803   2.881   1.298  12.044  0.4043  1.1757  0.2167
 2438TIP3   OH228804   3.526   2.729  11.522 -0.3305 -0.3433  0.4644
 2438TIP3    H128805   3.505   2.798  11.585  1.7447  0.1588  0.6942
 2438TIP3    H228806   3.560   2.776  11.446  0.0702 -1.0766  0.1825
 2439TIP3   OH228807   6.272   6.752   1.248  0.3160  0.2034  0.2084
 2439TIP3    H128808   6.307   6.838   1.225  3.2713 -0.9749 -0.1952
 2439TIP3    H228809   6.347   6.693   1.241 -1.0592 -2.0574  2.7373
 2440TIP3   OH228810   4.831   0.078   5.317  0.3298  0.4141  0.0057
 2440TIP3    H128811   4.749   0.081   5.367 -0.6498  0.5310 -1.5377
 2440TIP3    H228812   4.834   0.161   5.271  1.1712  0.2810 -0.1934
 2441TIP3   OH228813   4.325   4.282   1.599  0.4988 -0.2733 -0.5378
 2441TIP3    H128814   4.354   4.367   1.631 -1.3568  1.0073 -2.0405
 2441TIP3    H228815   4.397   4.251   1.543  1.6562 -0.2578  0.8917
 2442TIP3   OH228816   0.475   2.260  16.413 -0.8443 -0.2062  0.5057
 2442TIP3    H128817   0.407   2.302  16.467 -1.1104  0.3293 -0.2261
 2442TIP3    H228818   0.550   2.319  16.420 -0.6901 -0.4243  0.7267
 2443TIP3   OH228819   0.851   5.243  13.842 -0.1391  0.7708  0.1592
 2443TIP3    H128820   0.923   5.306  13.838  0.0567  0.5871  0.6955
 2443TIP3    H228821   0.782   5.282  13.789  0.7640  0.4133 -1.3590
 2444TIP3   OH228822   3.666   2.168   4.795 -0.2693  0.0576  0.1680
 2444TIP3    H128823   3.747   2.119   4.810 -0.5629 -0.1488  1.2349
 2444TIP3    H228824   3.599   2.115   4.840 -0.2482  2.5973  3.5846
 2445TIP3   OH228825   0.734   1.530   4.464 -0.4427 -0.4836 -0.4818
 2445TIP3    H128826   0.729   1.460   4.530 -1.0297 -1.1805 -1.2475
 2445TIP3    H228827   0.656   1.518   4.410  0.9950 -1.1549 -2.5177
 2446TIP3   OH228828   0.489   6.419  15.222 -0.1767 -1.0412  0.1123
 2446TIP3    H128829   0.546   6.434  15.298 -1.0815 -0.2599  0.6517
 2446TIP3    H228830   0.404   6.397  15.260 -1.5834  2.5796 -0.5227
 2447TIP3   OH228831   4.882   4.231  16.244  0.4627  0.8151  0.2866
 2447TIP3    H128832   4.857   4.152  16.292  1.0706  1.3851  1.6193
 2447TIP3    H228833   4.914   4.200  16.160 -0.0571 -0.2878  0.4824
 2448TIP3   OH228834   2.146   0.979   0.172 -0.1478 -0.2176 -0.3742
 2448TIP3    H128835   2.161   0.978   0.267 -0.1627  0.4639 -0.3584
 2448TIP3    H228836   2.215   0.924   0.136 -0.1857 -0.5415  0.0408
 2449TIP3   OH228837   3.762   0.698   1.635  0.2428 -0.4148  0.8217
 2449TIP3    H128838   3.839   0.732   1.589 -0.8914  2.3797  0.7795
 2449TIP3    H228839   3.693   0.696   1.568  0.2619 -3.2140  0.7653
 2450TIP3   OH228840   3.325   6.534   5.263 -0.4478 -0.3718  0.1457
 2450TIP3    H128841   3.386   6.499   5.199 -1.0719 -0.4959 -0.3956
 2450TIP3    H228842   3.269   6.460   5.286  0.4557 -0.6277  1.6891
 2451TIP3   OH228843   4.672   3.509  12.676 -0.2790  0.0668 -0.0666
 2451TIP3    H128844   4.623   3.502  12.758 -0.9169  1.8440 -0.2607
 2451TIP3    H228845   4.698   3.601  12.671 -0.8861  0.1734 -2.2063
 2452TIP3   OH228846   1.839   6.727   1.088  0.6130 -0.1459 -0.1901
 2452TIP3    H128847   1.858   6.778   1.010  2.9467 -1.6443 -0.7001
 2452TIP3    H228848   1.783   6.656   1.057  0.6898 -0.1619 -0.2915
 2453TIP3   OH228849   0.888   2.293   1.349  0.4873 -0.2300  0.3941
 2453TIP3    H128850   0.977   2.257   1.344  1.8347  2.7360  0.8587
 2453TIP3    H228851   0.885   2.359   1.280 -1.1134  0.2651  0.9000
 2454TIP3   OH228852   2.590   6.249  14.972  0.2934 -0.2056 -0.3825
 2454TIP3    H128853   2.650   6.195  15.022  0.9854  1.4342  0.6332
 2454TIP3    H228854   2.553   6.310  15.036 -0.8207  0.2357 -1.3942
 2455TIP3   OH228855   0.327   0.823   3.162 -0.4160 -0.2548 -0.4296
 2455TIP3    H128856   0.373   0.838   3.244 -0.1223  0.1613 -0.6618
 2455TIP3    H228857   0.296   0.910   3.136  0.6534 -0.1443 -1.4277
 2456TIP3   OH228858   0.148   1.914   2.813  0.0067  0.2669 -0.4677
 2456TIP3    H128859   0.072   1.958   2.851 -1.7120 -2.6398 -0.2719
 2456TIP3    H228860   0.143   1.933   2.719  1.0055  2.7367 -0.1153
 2457TIP3   OH228861   4.641   4.752  14.460 -0.2269  0.0341 -0.1255
 2457TIP3    H128862   4.639   4.817  14.531  0.3477 -2.1081  2.0000
 2457TIP3    H228863   4.554   4.755  14.422 -1.7049 -0.9513  2.8886
 2458TIP3   OH228864   5.891   1.968   2.548  0.0012 -0.4135 -0.1128
 2458TIP3    H128865   5.834   1.998   2.477 -0.7914 -0.3226  0.5554
 2458TIP3    H228866   5.832   1.931   2.613  0.5193  1.1572  1.3288
 2459TIP3   OH228867   3.707   2.714  13.959  0.0029 -0.5955  0.2177
 2459TIP3    H128868   3.738   2.677  14.042  0.9518  0.4002  0.3306
 2459TIP3    H228869   3.640   2.777  13.985  2.5424  2.1794  0.6131
 2460TIP3   OH228870   0.268   5.062  14.378 -0.7809 -0.4437 -0.3798
 2460TIP3    H128871   0.196   5.096  14.325  0.0434  3.6607  0.7910
 2460TIP3    H228872   0.237   5.068  14.468 -0.1599 -1.9577 -0.0368
 2461TIP3   OH228873   0.236   1.079  11.769 -0.7933  0.5298  0.1983
 2461TIP3    H128874   0.184   1.025  11.710  1.0783  0.5478 -1.5884
 2461TIP3    H228875   0.217   1.169  11.743 -0.3493  0.5525 -0.0697
 2462TIP3   OH228876   5.777   1.711   0.116  0.1400 -0.2766  0.1366
 2462TIP3    H128877   5.693   1.700   0.071 -0.6120 -1.8623  1.7870
 2462TIP3    H228878   5.843   1.709   0.047 -1.1732  1.3170 -1.2251
 2463TIP3   OH228879   1.197   3.203   3.361 -0.0300 -0.1885 -0.0568
 2463TIP3    H128880   1.283   3.163   3.371  0.1561  0.4213  0.9283
 2463TIP3    H228881   1.142   3.155   3.424 -0.5630 -0.9504 -1.0715
 2464TIP3   OH228882   1.767   3.690   5.377  0.4792 -0.1067  0.2119
 2464TIP3    H128883   1.859   3.712   5.368  0.5749 -0.3811  0.5039
 2464TIP3    H228884   1.736   3.677   5.287  0.6823  0.1479  0.1051
 2465TIP3   OH228885   6.494   6.615  15.773 -0.1825 -0.2502 -0.4352
 2465TIP3    H128886   6.558   6.670  15.728  2.4793 -1.9069  1.1029
 2465TIP3    H228887   6.484   6.656  15.859 -1.6013  0.2311 -0.7978
 2466TIP3   OH228888   4.558   3.841   4.792  0.2007  0.0562  0.0902
 2466TIP3    H128889   4.507   3.877   4.719 -0.4502 -0.6640  0.1754
 2466TIP3    H228890   4.635   3.897   4.797  0.0056  0.4284 -0.8225
 2467TIP3   OH228891   2.927   4.286   3.124 -0.2856  0.0984  0.7987
 2467TIP3    H128892   2.953   4.321   3.209 -1.0208 -0.8952  1.4579
 2467TIP3    H228893   2.882   4.204   3.145 -1.3083  0.3026 -0.4827
 2468TIP3   OH228894   6.640   0.407   5.978 -0.3368  0.0845  0.2125
 2468TIP3    H128895   6.731   0.407   5.949 -0.7782  0.3216 -1.2816
 2468TIP3    H228896   6.613   0.315   5.969 -1.4937  0.6383 -3.7999
 2469TIP3   OH228897   5.214   5.418   1.058 -0.0068 -1.0064 -0.5354
 2469TIP3    H128898   5.274   5.449   1.126  0.5623 -0.2790 -1.3401
 2469TIP3    H228899   5.171   5.342   1.097 -1.0847  0.4658  1.3525
 2470TIP3   OH228900   6.714   6.368  13.167 -0.2394  0.1960  0.2670
 2470TIP3    H128901   6.642   6.409  13.121 -1.3012 -0.3756  1.3441
 2470TIP3    H228902   6.712   6.407  13.255  1.6318  1.1589 -0.0648
 2471TIP3   OH228903   4.775   3.633  13.764  0.2974 -0.3439 -0.4031
 2471TIP3    H128904   4.692   3.634  13.811  0.9652 -1.0737  0.8513
 2471TIP3    H228905   4.751   3.608  13.674 -0.7761 -1.1973  0.0847
 2472TIP3   OH228906   4.574   1.626  15.425  0.3374 -0.9293 -0.2265
 2472TIP3    H128907   4.633   1.619  15.351  1.9664  0.3355  0.8753
 2472TIP3    H228908   4.621   1.585  15.498 -0.3013 -0.2612  0.5920
 2473TIP3   OH228909   4.994   3.015  15.353 -0.2529  0.2143  0.0278
 2473TIP3    H128910   5.063   2.995  15.417 -0.9820  0.7642  1.0106
 2473TIP3    H228911   4.941   2.935  15.349  1.0547 -0.6268 -1.5826
 2474TIP3   OH228912   1.949   5.543   3.520  0.0985  0.4520  0.3701
 2474TIP3    H128913   1.923   5.453   3.499 -2.1986  0.6730  1.8268
 2474TIP3    H228914   2.044   5.539   3.529  0.4930 -1.0279 -2.9460
 2475TIP3   OH228915   4.868   3.869   0.817 -0.9650 -0.2931  0.2285
 2475TIP3    H128916   4.932   3.938   0.833 -2.7430  1.1451  1.6296
 2475TIP3    H228917   4.899   3.825   0.738  1.4811  0.5941  0.6077
 2476TIP3   OH228918   4.505   4.126  16.241  1.1426  0.1146 -0.3334
 2476TIP3    H128919   4.483   4.116  16.148  0.8894 -0.0368 -0.2543
 2476TIP3    H228920   4.458   4.205  16.268  0.5556 -0.3001 -0.1238
 2477TIP3   OH228921   2.215   4.977  15.473  0.5905  0.3257  0.0356
 2477TIP3    H128922   2.186   5.067  15.487  1.4194  0.8526 -1.4978
 2477TIP3    H228923   2.165   4.926  15.538  0.9810  2.0102  1.7557
 2478TIP3   OH228924   3.891   2.289   1.620 -0.2991 -0.4501 -0.0362
 2478TIP3    H128925   3.903   2.365   1.676 -0.5137  1.2346 -2.1407
 2478TIP3    H228926   3.800   2.295   1.591  0.4115  0.0830 -2.3330
 2479TIP3   OH228927   3.591   3.550   5.118 -0.5646 -0.0622 -0.1441
 2479TIP3    H128928   3.589   3.517   5.208  0.0950 -2.8101 -1.0229
 2479TIP3    H228929   3.499   3.570   5.098 -0.5572  1.8612  1.4991
 2480TIP3   OH228930   5.209   1.262   2.781 -0.0111 -0.6579  0.3310
 2480TIP3    H128931   5.178   1.171   2.783  0.4537 -0.8154  0.4417
 2480TIP3    H228932   5.295   1.257   2.741 -0.2640 -0.1742 -0.2981
 2481TIP3   OH228933   2.095   2.424  11.081 -0.0240  0.2066  0.0580
 2481TIP3    H128934   2.111   2.503  11.133 -0.3750 -0.3535  1.0423
 2481TIP3    H228935   2.182   2.393  11.056  0.1010  1.0941 -0.6375
 2482TIP3   OH228936   6.671   6.826  16.245  0.2514 -0.8012  0.0498
 2482TIP3    H128937   6.597   6.830  16.306 -1.0816  3.4253 -1.4470
 2482TIP3    H228938   6.747   6.808  16.300 -1.0484  1.5223  2.8860
 2483TIP3   OH228939   4.143   2.601  10.703  0.3067  0.0726 -0.0974
 2483TIP3    H128940   4.096   2.599  10.787  0.6790 -0.2110  0.1094
 2483TIP3    H228941   4.213   2.536  10.714  0.6374  0.3647 -0.4628
 2484TIP3   OH228942   6.187   3.297   0.999 -0.2691 -0.0620  0.7231
 2484TIP3    H128943   6.125   3.368   0.981  0.3693  0.4680  0.5744
 2484TIP3    H228944   6.154   3.223   0.950 -0.0157  0.6143 -0.5072
 2485TIP3   OH228945   4.587   3.086   4.168  0.0976 -0.2396 -0.3969
 2485TIP3    H128946   4.639   3.119   4.241 -2.0155 -0.6068  1.3851
 2485TIP3    H228947   4.557   2.999   4.196 -2.0826  0.2598 -0.9499
 2486TIP3   OH228948   6.450   3.750   0.274  0.3694  0.6463 -0.3879
 2486TIP3    H128949   6.389   3.716   0.340  1.1775  0.4616  0.2835
 2486TIP3    H228950   6.462   3.678   0.213  1.3978 -0.0094  0.5510
 2487TIP3   OH228951   0.026   6.295   6.431  0.5726 -0.3952  0.6974
 2487TIP3    H128952   0.107   6.274   6.478  0.7027 -0.9826  0.2224
 2487TIP3    H228953  -0.023   6.213   6.432 -1.1136  0.5325  3.0901
 2488TIP3   OH228954   4.159   0.978   2.954 -0.4993 -0.2534 -0.4529
 2488TIP3    H128955   4.110   0.944   2.880 -0.6021  0.7007 -0.8388
 2488TIP3    H228956   4.237   1.018   2.915  0.7674 -1.9919  0.1707
 2489TIP3   OH228957   4.698   3.588  16.566  0.1208 -0.4125 -0.2719
 2489TIP3    H128958   4.734   3.500  16.574  0.7802 -0.1831 -0.6562
 2489TIP3    H228959   4.707   3.609  16.473 -1.1246 -0.3980 -0.4076
 2490TIP3   OH228960   0.918   6.565   0.777 -0.1176  0.0594 -0.1806
 2490TIP3    H128961   0.999   6.613   0.792 -0.0436  0.0938 -0.6685
 2490TIP3    H228962   0.894   6.530   0.863 -0.1104  0.8663  0.1510
 2491TIP3   OH228963   4.858   4.957   5.874 -0.0846  0.1409 -0.0378
 2491TIP3    H128964   4.810   5.036   5.848 -2.3169 -0.5036  1.7826
 2491TIP3    H228965   4.905   4.983   5.954  1.5251  0.3566 -1.0092
 2492TIP3   OH228966   1.304   2.597   5.238  0.3640  0.3634  0.3725
 2492TIP3    H128967   1.300   2.557   5.151  0.2861 -1.6425  1.2632
 2492TIP3    H228968   1.224   2.649   5.244  0.4958  0.7398 -0.8422
 2493TIP3   OH228969   1.918   6.609  14.767 -0.1871  0.2654  0.2245
 2493TIP3    H128970   1.948   6.555  14.694  1.9328  1.3681  0.2047
 2493TIP3    H228971   1.836   6.648  14.736 -0.0182 -0.3269 -1.0249
 2494TIP3   OH228972   4.111   6.639   0.238 -0.3703 -0.2587  0.4490
 2494TIP3    H128973   4.102   6.570   0.173 -0.0766 -0.2208  0.3658
 2494TIP3    H228974   4.205   6.655   0.243 -0.3051 -0.8850  1.5390
 2495TIP3   OH228975   2.342   4.499   0.525 -0.1913  1.1104 -0.1450
 2495TIP3    H128976   2.403   4.552   0.576  1.5094  0.8247 -1.7787
 2495TIP3    H228977   2.390   4.418   0.506 -0.9016  1.0472 -1.8324
 2496TIP3   OH228978   0.041   6.659  15.270 -0.2357  0.0824 -0.0075
 2496TIP3    H128979   0.037   6.754  15.259  2.1788  0.1273 -1.0854
 2496TIP3    H228980   0.134   6.641  15.285 -0.6740 -2.1126  0.3422
 2497TIP3   OH228981   1.829   0.329  12.735 -0.1648 -0.2311  0.1183
 2497TIP3    H128982   1.788   0.406  12.695 -2.0950 -0.7889  0.8827
 2497TIP3    H228983   1.881   0.363  12.807 -2.6550  0.2978  1.7885
 2498TIP3   OH228984   3.031   6.360  16.336 -0.0002  0.1779  0.6027
 2498TIP3    H128985   2.960   6.337  16.395  0.8386 -0.3956  1.4177
 2498TIP3    H228986   2.995   6.430  16.281 -1.4092 -0.5631  0.5272
 2499TIP3   OH228987   6.813   0.899   5.626 -0.4672 -0.0907  0.3404
 2499TIP3    H128988   6.831   0.853   5.708  0.6197 -1.6253 -0.7005
 2499TIP3    H228989   6.728   0.941   5.641 -0.3224 -0.3445  2.2257
 2500TIP3   OH228990   3.376   1.516  16.375 -0.0922  0.0387  0.1839
 2500TIP3    H128991   3.368   1.548  16.465 -0.7428 -0.0970  0.1822
 2500TIP3    H228992   3.304   1.558  16.328 -1.2429 -1.7209  0.2754
 2501TIP3   OH228993   5.056   1.710   4.065  0.0752 -0.0554  0.0621
 2501TIP3    H128994   5.042   1.615   4.073 -0.1003  0.0494  1.1275
 2501TIP3    H228995   4.973   1.749   4.093 -0.6551  0.4015 -2.4625
 2502TIP3   OH228996   1.391   6.366  12.883  0.6772 -0.1444  0.4081
 2502TIP3    H128997   1.480   6.382  12.915  0.6880 -0.0323  0.3250
 2502TIP3    H228998   1.403   6.326  12.797  0.6755 -2.2980  1.3433
 2503TIP3   OH228999   4.435   5.785   5.608 -0.1941  0.6615  0.4148
 2503TIP3    H129000   4.462   5.765   5.698 -1.3471 -1.8312  0.2626
 2503TIP3    H229001   4.402   5.875   5.613  3.2436  2.0248  1.6261
 2504TIP3   OH229002   6.735   0.610  10.930  0.7177 -0.0862  0.5821
 2504TIP3    H129003   6.761   0.701  10.921  0.8750 -0.0890  0.9989
 2504TIP3    H229004   6.682   0.592  10.852  1.8466 -0.0435 -0.2147
 2505TIP3   OH229005   6.832   5.967   6.398  0.1372  0.2497 -0.4320
 2505TIP3    H129006   6.785   5.936   6.320  0.5840 -2.8277  0.3722
 2505TIP3    H229007   6.920   5.988   6.367 -0.1124  0.4770 -0.9894
 2506TIP3   OH229008   0.452   2.388   0.280  0.2646  0.2799 -0.1133
 2506TIP3    H129009   0.386   2.454   0.256 -0.5511  0.2928  1.9604
 2506TIP3    H229010   0.402   2.321   0.328  1.8556  0.7387  2.3366
 2507TIP3   OH229011   3.054   3.601   0.963 -0.5241  0.2926 -0.2892
 2507TIP3    H129012   3.007   3.542   0.904  0.1383 -2.3226  1.6003
 2507TIP3    H229013   2.997   3.677   0.971 -2.1406 -0.6853 -1.7344
 2508TIP3   OH229014   4.805   5.785  15.350 -0.0415  0.6175 -0.1093
 2508TIP3    H129015   4.746   5.711  15.358 -1.2552  1.3692 -1.5926
 2508TIP3    H229016   4.791   5.836  15.429 -1.0121  0.5232 -0.2147
 2509TIP3   OH229017   1.181   5.842   2.929 -0.4222  0.7711 -0.1675
 2509TIP3    H129018   1.218   5.864   2.843  2.0286 -1.2993  0.2152
 2509TIP3    H229019   1.131   5.763   2.914  1.4132 -0.5961  0.4794
 2510TIP3   OH229020   1.198   5.184  13.296 -0.3372  0.6450  0.5854
 2510TIP3    H129021   1.245   5.112  13.338 -0.6110  1.4048  2.2693
 2510TIP3    H229022   1.210   5.259  13.354  0.8287  2.3089 -1.6336
 2511TIP3   OH229023   3.393   4.067   1.189  0.0641 -0.1462  0.5353
 2511TIP3    H129024   3.450   4.141   1.170  0.1738 -0.4373 -0.3170
 2511TIP3    H229025   3.323   4.072   1.123 -1.3771  0.6796  2.0641
 2512TIP3   OH229026   1.953   1.766  11.828  0.2906  0.2806 -0.2204
 2512TIP3    H129027   1.864   1.740  11.853  0.1882  1.7055  1.1004
 2512TIP3    H229028   1.940   1.838  11.766  0.4759  1.4092  1.0111
 2513TIP3   OH229029   2.104   1.547  12.017  0.5994 -0.0100 -0.4097
 2513TIP3    H129030   2.065   1.469  11.978  1.1992 -0.1891 -0.6629
 2513TIP3    H229031   2.071   1.619  11.964  0.1145 -0.0946 -0.2323
 2514TIP3   OH229032   2.089   6.706  15.822 -1.0012  0.5574 -0.0577
 2514TIP3    H129033   2.000   6.698  15.856 -1.7094 -0.3913 -2.0165
 2514TIP3    H229034   2.082   6.684  15.729  1.0105  2.0904 -0.6464
 2515TIP3   OH229035   1.592   3.731  14.056  0.7044  0.3163 -0.3500
 2515TIP3    H129036   1.670   3.716  14.110  0.7469 -0.4435 -0.6058
 2515TIP3    H229037   1.541   3.650  14.065  0.7906  0.1072 -1.5809
 2516TIP3   OH229038   2.977   6.826  11.201  0.1974  0.0872 -0.3776
 2516TIP3    H129039   2.984   6.855  11.111  0.3437 -0.1871 -0.4568
 2516TIP3    H229040   3.003   6.902  11.253 -0.8722  0.5721 -0.5259
 2517TIP3   OH229041   0.219   6.474  12.887  0.2684 -0.0784  0.1282
 2517TIP3    H129042   0.210   6.435  12.974  0.8410  1.9970  1.1788
 2517TIP3    H229043   0.133   6.511  12.867  0.0496 -0.8210 -0.3539
 2518TIP3   OH229044   3.670   2.058   0.586 -0.3647 -0.7744 -0.1466
 2518TIP3    H129045   3.671   1.964   0.604  0.4877 -1.0378 -1.3764
 2518TIP3    H229046   3.596   2.070   0.526 -1.1116 -0.4758  0.8205
 2519TIP3   OH229047   3.796   2.826  15.426 -0.1090 -0.4444 -0.0321
 2519TIP3    H129048   3.718   2.793  15.380  1.0324 -1.6078 -1.2124
 2519TIP3    H229049   3.778   2.810  15.518 -1.0868 -1.0681 -0.3142
 2520TIP3   OH229050   2.076   5.749   0.405 -1.2879 -0.1755 -0.0644
 2520TIP3    H129051   2.148   5.707   0.359  0.1481  1.1613  0.8589
 2520TIP3    H229052   2.006   5.758   0.340 -1.7080 -3.8509 -0.3390
 2521TIP3   OH229053   5.146   1.533   4.994  0.3813  0.0346 -0.1842
 2521TIP3    H129054   5.103   1.619   4.999  0.6182  0.1176  0.4076
 2521TIP3    H229055   5.107   1.483   5.065 -0.9040 -0.8826 -1.4642
 2522TIP3   OH229056   5.158   5.693  14.504 -0.5581  0.0355 -0.4683
 2522TIP3    H129057   5.179   5.623  14.566 -1.1401  0.4794  0.2377
 2522TIP3    H229058   5.244   5.729  14.480 -0.2696 -0.7150 -0.6232
 2523TIP3   OH229059   4.695   6.238  15.370 -0.0912  0.5866  0.6435
 2523TIP3    H129060   4.670   6.260  15.280  2.2921 -1.0891 -0.5043
 2523TIP3    H229061   4.668   6.315  15.420  0.6012  2.6448 -1.8705
 2524TIP3   OH229062   5.154   6.094   1.410 -0.2360  0.1583  0.5243
 2524TIP3    H129063   5.088   6.032   1.441 -0.7929 -0.4834 -1.7611
 2524TIP3    H229064   5.234   6.043   1.403  0.6826  0.9762  3.4618
 2525TIP3   OH229065   3.262   5.412  14.542 -0.1197 -0.2263 -0.1257
 2525TIP3    H129066   3.265   5.381  14.451  1.7160  1.5060 -0.7232
 2525TIP3    H229067   3.332   5.365  14.586  0.3424  0.4191 -0.1501
 2526TIP3   OH229068   1.065   6.296  15.918 -0.1664  0.0486  0.2589
 2526TIP3    H129069   1.117   6.300  15.998 -0.7643  0.4885  0.6304
 2526TIP3    H229070   1.011   6.375  15.920 -0.0047  0.1993 -0.7071
 2527TIP3   OH229071   4.178   0.232   5.318 -0.6793 -0.2905  0.2538
 2527TIP3    H129072   4.193   0.187   5.400 -0.1721 -1.7120 -0.5923
 2527TIP3    H229073   4.264   0.263   5.291 -0.6398 -0.8787 -0.3216
 2528TIP3   OH229074   5.160   2.446  14.203 -0.0082  0.0784  0.6674
 2528TIP3    H129075   5.240   2.470  14.158 -0.9972  0.6995 -0.8412
 2528TIP3    H229076   5.098   2.424  14.133 -0.9531 -1.1003  1.8023
 2529TIP3   OH229077   5.783   6.538  16.680  0.0100 -0.6347  0.6493
 2529TIP3    H129078   5.843   6.605  16.714 -1.3031  0.6434  0.5632
 2529TIP3    H229079   5.839   6.477  16.632  1.0965  1.2350 -0.5694
 2530TIP3   OH229080   4.270   1.964  11.813 -0.3033  0.8146 -0.0655
 2530TIP3    H129081   4.347   2.013  11.783 -0.8927  0.3993 -2.4364
 2530TIP3    H229082   4.202   1.985  11.749 -1.9219  0.4502  1.4635
 2531TIP3   OH229083   3.829   0.407  11.433 -0.3499 -0.4170 -0.4690
 2531TIP3    H129084   3.863   0.331  11.481  0.1362  0.5876  0.8473
 2531TIP3    H229085   3.831   0.381  11.341  2.7499 -0.9329 -0.3667
 2532TIP3   OH229086   3.048   5.863  12.710  0.1663 -0.1538 -0.4142
 2532TIP3    H129087   3.060   5.909  12.627  0.5557 -0.5299 -0.5695
 2532TIP3    H229088   2.991   5.789  12.689 -0.7012  0.4183 -0.1056
 2533TIP3   OH229089   2.271   1.678  11.269 -0.5226 -0.1572 -0.6801
 2533TIP3    H129090   2.204   1.729  11.315  0.9156  0.0405  1.3277
 2533TIP3    H229091   2.281   1.599  11.322  0.1838 -0.6121 -1.4763
 2534TIP3   OH229092   5.886   4.747  16.512  0.1279  0.0899 -0.1707
 2534TIP3    H129093   5.857   4.829  16.552  0.6045  0.9182 -1.4532
 2534TIP3    H229094   5.971   4.729  16.553 -0.3768 -0.2507  0.7523
 2535TIP3   OH229095   1.168   5.904   0.750  0.0587 -0.2040  0.0351
 2535TIP3    H129096   1.237   5.971   0.757 -0.9619  0.7496  1.2378
 2535TIP3    H229097   1.142   5.907   0.657  0.6956  0.3742 -0.1334
 2536TIP3   OH229098   6.415   4.303   1.114  0.0591 -0.5138  0.6630
 2536TIP3    H129099   6.480   4.291   1.183 -0.1505 -0.7371  0.8212
 2536TIP3    H229100   6.391   4.214   1.088  0.2156 -0.4363  0.2246
 2537TIP3   OH229101   1.881   4.978   4.322  0.2873 -0.4644  0.1194
 2537TIP3    H129102   1.787   4.984   4.338  0.6380  1.8613  1.8721
 2537TIP3    H229103   1.918   4.951   4.406  1.3136  0.8816  0.1419
 2538TIP3   OH229104   4.481   0.875  12.747 -0.6560 -0.1506  0.0478
 2538TIP3    H129105   4.436   0.821  12.813 -0.0967 -3.1794 -1.8235
 2538TIP3    H229106   4.574   0.863  12.766 -0.5292  0.6191 -0.0770
 2539TIP3   OH229107   6.614   2.972  11.128 -0.0951  0.3607  0.5336
 2539TIP3    H129108   6.537   3.019  11.095 -0.7113 -0.1992  1.1411
 2539TIP3    H229109   6.670   2.960  11.051 -2.2162 -2.3969 -0.7675
 2540TIP3   OH229110   3.281   0.849  16.965 -0.6335  0.1781 -0.3907
 2540TIP3    H129111   3.347   0.884  16.905 -0.8901  0.8853 -0.2684
 2540TIP3    H229112   3.332   0.809  17.035 -0.3334 -0.4324 -0.9437
 2541TIP3   OH229113   4.695   5.175  16.421 -0.0337  0.5291  0.4376
 2541TIP3    H129114   4.701   5.173  16.326  1.9616  2.9258  0.4044
 2541TIP3    H229115   4.674   5.085  16.446  1.0313 -0.5318 -2.1769
 2542TIP3   OH229116   4.523   1.667   0.138 -0.3006  0.1035  0.2275
 2542TIP3    H129117   4.430   1.658   0.119 -0.3458  1.2677 -0.1791
 2542TIP3    H229118   4.527   1.706   0.225 -0.2466  1.8279 -0.5249
 2543TIP3   OH229119   0.119   3.197  12.058  0.3183  0.3144  0.0451
 2543TIP3    H129120   0.180   3.223  11.989 -0.5383 -2.6135 -2.0196
 2543TIP3    H229121   0.056   3.269  12.062  2.2350  2.0744  0.2270
 2544TIP3   OH229122   0.931   1.470  15.253  0.2700  0.2566 -0.1509
 2544TIP3    H129123   0.925   1.377  15.230 -1.1464  0.5633 -1.1733
 2544TIP3    H229124   0.930   1.471  15.348  2.0343 -0.8523 -0.0806
 2545TIP3   OH229125   2.269   0.336   2.025  0.8010  0.1755 -0.1807
 2545TIP3    H129126   2.201   0.361   1.961 -1.5409 -1.2376  1.5905
 2545TIP3    H229127   2.239   0.252   2.060  3.0760 -0.0952  1.3127
 2546TIP3   OH229128   1.207   1.892  12.577  0.5111  0.5664 -0.4078
 2546TIP3    H129129   1.178   1.975  12.540 -1.3614  1.1494  2.1111
 2546TIP3    H229130   1.250   1.846  12.504  1.8525  3.7939 -1.8223
 2547TIP3   OH229131   0.612   4.867   2.316 -0.0669 -0.4352  0.3860
 2547TIP3    H129132   0.652   4.945   2.277 -1.2699  0.3415  0.6412
 2547TIP3    H229133   0.605   4.805   2.244  0.8922 -0.3205  0.1756
 2548TIP3   OH229134   6.425   1.593  16.654 -0.3485  0.0825  0.1668
 2548TIP3    H129135   6.398   1.554  16.571  0.7069 -2.3351  0.8672
 2548TIP3    H229136   6.411   1.524  16.718 -1.3630  1.9742  2.0964
 2549TIP3   OH229137   3.043   0.857   1.878  0.3129  0.5086 -0.0041
 2549TIP3    H129138   3.081   0.769   1.881 -1.0507 -0.1382 -0.7016
 2549TIP3    H229139   3.084   0.898   1.802  1.0297  0.5328  0.3836
 2550TIP3   OH229140   3.473   2.955  17.111  0.1959 -0.0315 -0.0390
 2550TIP3    H129141   3.563   2.969  17.081 -0.0096  1.0229 -0.2030
 2550TIP3    H229142   3.452   2.867  17.080  0.8748  0.0429 -0.7585
 2551TIP3   OH229143   3.806   2.647  13.423 -0.1647  0.6337 -0.2127
 2551TIP3    H129144   3.831   2.658  13.515 -0.6580  0.8318 -0.0981
 2551TIP3    H229145   3.711   2.663  13.422 -0.1843  0.5010 -0.7341
 2552TIP3   OH229146   2.838   1.688  11.318 -0.5317  0.5844 -0.5934
 2552TIP3    H129147   2.879   1.772  11.339  0.1934  0.4282 -1.3597
 2552TIP3    H229148   2.906   1.637  11.275 -0.4080 -1.0898  1.4386
 2553TIP3   OH229149   2.874   2.697  15.964 -0.4565 -0.5658 -0.4135
 2553TIP3    H129150   2.848   2.613  16.002 -0.4324  0.3094  1.6366
 2553TIP3    H229151   2.818   2.762  16.007  0.4912  0.6361 -0.9165
 2554TIP3   OH229152   0.168   1.336  11.716 -0.0161 -0.0406 -0.7403
 2554TIP3    H129153   0.151   1.345  11.809 -2.9377  0.5698 -1.2562
 2554TIP3    H229154   0.172   1.427  11.683 -2.0553 -0.2342 -1.6422
 2555TIP3   OH229155   0.563   1.130  10.803  0.2678  0.0854 -0.1372
 2555TIP3    H129156   0.550   1.072  10.727  0.9652  1.5108 -1.3851
 2555TIP3    H229157   0.500   1.201  10.790  0.0952  0.1300  0.8643
 2556TIP3   OH229158   2.217   5.697   0.868  0.0853  0.0272  0.0679
 2556TIP3    H129159   2.260   5.615   0.845 -0.6587 -0.6730  1.0507
 2556TIP3    H229160   2.277   5.739   0.930  0.9389  0.7346 -1.2043
 2557TIP3   OH229161   4.195   0.064   6.456  0.0662  0.2712 -0.1742
 2557TIP3    H129162   4.192   0.050   6.361  1.5408 -0.4706 -0.1304
 2557TIP3    H229163   4.185  -0.023   6.494  1.1871  0.3350  0.3011
 2558TIP3   OH229164   2.566   5.673  12.172 -0.0650 -0.6670 -0.2630
 2558TIP3    H129165   2.575   5.734  12.098  1.1335 -0.6968 -0.1464
 2558TIP3    H229166   2.483   5.628  12.155 -0.2282 -0.0691 -1.1402
 2559TIP3   OH229167   4.826   0.982   1.324  0.0569  0.4578 -0.1911
 2559TIP3    H129168   4.767   0.906   1.322  1.1011 -0.3675 -2.0273
 2559TIP3    H229169   4.814   1.024   1.239  0.0050  1.9913  0.5419
 2560TIP3   OH229170   1.327   2.369  12.538  0.4272 -0.4799  0.5010
 2560TIP3    H129171   1.311   2.462  12.525  1.1554 -0.0455  2.4269
 2560TIP3    H229172   1.267   2.326  12.477 -0.6538  1.2088  0.3012
 2561TIP3   OH229173   3.525   3.434  13.178 -0.1798  0.0286 -0.2042
 2561TIP3    H129174   3.431   3.435  13.195 -0.0005  1.4637  0.8917
 2561TIP3    H229175   3.562   3.386  13.252 -0.2584 -3.7695 -2.3957
 2562TIP3   OH229176   6.240   6.142  10.239 -0.1712 -0.1993  0.0041
 2562TIP3    H129177   6.273   6.138  10.149  0.9205  1.2319  0.3084
 2562TIP3    H229178   6.176   6.071  10.244  0.0670 -0.5879 -1.7663
 2563TIP3   OH229179   2.740   4.065   3.168 -1.1204 -0.1343 -0.4311
 2563TIP3    H129180   2.672   4.132   3.172 -1.2594 -0.2996  0.1289
 2563TIP3    H229181   2.695   3.985   3.143 -1.1925 -0.3096  0.2314
 2564TIP3   OH229182   5.801   4.675   3.000 -0.7263  0.2293  0.6831
 2564TIP3    H129183   5.772   4.750   3.051  0.8231  0.6229  1.0361
 2564TIP3    H229184   5.885   4.651   3.038 -1.9002 -2.7598  1.6992
 2565TIP3   OH229185   3.764   5.059  16.722  0.0414 -0.0770  0.1920
 2565TIP3    H129186   3.718   5.003  16.784  2.1631  0.0312  1.9767
 2565TIP3    H229187   3.739   5.148  16.746  0.0437 -0.0776  0.1975
 2566TIP3   OH229188   3.571   5.084   3.832 -0.1930 -0.4286 -0.4355
 2566TIP3    H129189   3.586   5.089   3.737 -0.2449 -1.7403 -0.5394
 2566TIP3    H229190   3.554   4.991   3.848 -1.5248 -0.0294  0.6746
 2567TIP3   OH229191   0.370   5.832  12.997  0.1923 -0.1051  0.1453
 2567TIP3    H129192   0.396   5.755  13.048 -2.6308 -0.8318  0.6254
 2567TIP3    H229193   0.286   5.808  12.958 -0.6786  2.6478  0.1183
 2568TIP3   OH229194   5.523   0.212  12.820 -0.3851 -0.1806  0.3312
 2568TIP3    H129195   5.599   0.189  12.768  0.9475  0.3009  1.9807
 2568TIP3    H229196   5.470   0.133  12.822  1.5060 -1.4998  1.5050
 2569TIP3   OH229197   6.553   0.495   6.669  0.1915  0.0500  0.3376
 2569TIP3    H129198   6.479   0.479   6.727  0.2436 -0.0664  0.3717
 2569TIP3    H229199   6.530   0.451   6.587 -0.7061  1.7288 -0.3569
 2570TIP3   OH229200   6.026   6.823   5.498  0.3500 -0.0018  0.0201
 2570TIP3    H129201   6.018   6.774   5.416 -0.9798  1.5252 -0.8429
 2570TIP3    H229202   6.090   6.891   5.479  0.7510 -0.2139  0.5823
 2571TIP3   OH229203   4.995   3.614   3.210  0.1797 -0.3161  0.0473
 2571TIP3    H129204   4.928   3.576   3.154  0.7365 -0.0666 -0.8259
 2571TIP3    H229205   5.068   3.552   3.205  0.7941  0.4381 -0.7430
 2572TIP3   OH229206   3.102   1.985  12.172 -0.0546  0.3738 -0.4515
 2572TIP3    H129207   3.150   1.936  12.239 -0.8526  1.9059  1.3287
 2572TIP3    H229208   3.012   1.988  12.205 -0.2292  2.1166 -1.0257
 2573TIP3   OH229209   3.809   6.055   0.241 -0.2528 -0.2135  0.3193
 2573TIP3    H129210   3.770   6.053   0.329 -0.8920 -0.7953  0.0366
 2573TIP3    H229211   3.757   6.120   0.194 -0.6229 -0.6839  0.0651
 2574TIP3   OH229212   1.000   5.761   0.915  0.0502 -0.0599 -0.2691
 2574TIP3    H129213   1.042   5.798   0.838 -1.0187  0.8989 -0.4061
 2574TIP3    H229214   0.919   5.723   0.883 -0.1290 -0.1629  0.2975
 2575TIP3   OH229215   6.841   1.934   3.155  0.1090 -0.4737  0.2319
 2575TIP3    H129216   6.776   1.989   3.199  1.7649  1.7815  0.0516
 2575TIP3    H229217   6.841   1.966   3.065  3.2274  1.5207  0.7846
 2576TIP3   OH229218   0.086   1.708   1.631  0.2098  0.1860  0.1428
 2576TIP3    H129219   0.156   1.734   1.690 -0.7782  4.3514 -0.2158
 2576TIP3    H229220   0.013   1.684   1.688  0.7004 -0.4729  0.5114
 2577TIP3   OH229221   1.151   4.904   2.770 -0.1165 -0.3790  0.0811
 2577TIP3    H129222   1.121   4.942   2.853  2.2166  0.6246  0.5323
 2577TIP3    H229223   1.202   4.973   2.728 -1.2660 -0.8440 -2.2838
 2578TIP3   OH229224   3.889   5.417   1.650 -0.3844 -0.2465  0.2862
 2578TIP3    H129225   3.917   5.475   1.720  1.1428  0.5125 -0.8755
 2578TIP3    H229226   3.812   5.372   1.685  1.1969 -1.0561  3.0127
 2579TIP3   OH229227   1.760   6.626   3.138 -0.0479  0.3451  0.2751
 2579TIP3    H129228   1.812   6.587   3.068  1.4624  1.4665  0.7051
 2579TIP3    H229229   1.775   6.720   3.129 -1.3010  0.6316  0.9820
 2580TIP3   OH229230   5.539   6.599   3.272 -0.3261  0.1755  0.3460
 2580TIP3    H129231   5.492   6.535   3.218  1.8279 -1.9211  0.7941
 2580TIP3    H229232   5.570   6.664   3.209 -4.0072  1.9523  0.0749
 2581TIP3   OH229233   5.513   1.474  12.450  0.2222 -0.0254 -1.0903
 2581TIP3    H129234   5.446   1.419  12.410 -0.9833  1.1869 -0.8285
 2581TIP3    H229235   5.595   1.427  12.435 -0.6512 -1.4546 -1.5955
 2582TIP3   OH229236   3.900   5.366  14.144  0.1968  0.0032  0.1088
 2582TIP3    H129237   3.914   5.380  14.051  0.4822 -0.9345  0.0004
 2582TIP3    H229238   3.815   5.323  14.150  0.6905 -1.0116  0.1650
 2583TIP3   OH229239   2.368   5.805  14.662 -0.1679 -0.2474 -0.2008
 2583TIP3    H129240   2.330   5.779  14.578  0.0846 -1.4940  0.0594
 2583TIP3    H229241   2.305   5.868  14.698 -1.5101 -1.5309 -0.2360
 2584TIP3   OH229242   0.306   4.244   4.282 -0.8644 -0.5578  0.1287
 2584TIP3    H129243   0.359   4.213   4.209 -0.3240  0.2669  0.1587
 2584TIP3    H229244   0.226   4.192   4.278 -0.9844 -0.3065 -1.2478
 2585TIP3   OH229245   0.609   3.635   7.016  0.3971 -0.2244 -0.5587
 2585TIP3    H129246   0.676   3.696   7.047 -0.2603  0.6825 -0.8664
 2585TIP3    H229247   0.655   3.579   6.953  0.9286  0.1977 -0.5513
 2586TIP3   OH229248   2.849   6.346   0.260  0.6460  0.2592  0.1777
 2586TIP3    H129249   2.906   6.384   0.193 -1.0415  0.5910 -1.1361
 2586TIP3    H229250   2.786   6.416   0.279 -0.8740 -0.9370 -0.3004
 2587TIP3   OH229251   1.941   1.290  12.168 -0.4254  0.1772  0.3308
 2587TIP3    H129252   1.918   1.333  12.085 -0.7945  1.0087  0.8526
 2587TIP3    H229253   1.919   1.354  12.235  0.6997 -0.1456  1.0328
 2588TIP3   OH229254   3.873   0.280   4.959 -0.0829  0.3181 -0.2326
 2588TIP3    H129255   3.799   0.290   5.019  0.8871 -1.1036  1.2527
 2588TIP3    H229256   3.854   0.342   4.888 -1.4117  1.8469  1.3624
 2589TIP3   OH229257   5.175   0.506   1.491  0.7009  0.2787 -0.6187
 2589TIP3    H129258   5.241   0.546   1.436  2.0254 -1.4057 -0.3465
 2589TIP3    H229259   5.185   0.412   1.475 -1.2593 -0.0564 -0.1446
 2590TIP3   OH229260   3.918   4.072   2.589 -0.4677  0.4870 -0.0944
 2590TIP3    H129261   3.912   4.040   2.679 -0.8840 -1.1273 -0.6500
 2590TIP3    H229262   4.000   4.120   2.585  0.9892 -1.7924  0.4886
 2591TIP3   OH229263   5.587   5.412  11.301 -0.0073 -0.2108  0.0856
 2591TIP3    H129264   5.665   5.418  11.246 -0.7449  0.1405 -0.9428
 2591TIP3    H229265   5.614   5.355  11.373  1.7399  1.2457  0.6773
 2592TIP3   OH229266   3.491   3.494   0.970 -0.5135  0.4337 -0.5231
 2592TIP3    H129267   3.521   3.415   1.014 -0.0081  0.7611 -0.2705
 2592TIP3    H229268   3.455   3.463   0.886 -0.9979 -0.1327 -0.1113
 2593TIP3   OH229269   3.431   1.511   4.261 -0.3251 -0.3792 -0.0320
 2593TIP3    H129270   3.445   1.602   4.286 -1.0472 -0.5760  1.1643
 2593TIP3    H229271   3.477   1.460   4.328  0.0611 -0.8967 -0.6811
 2594TIP3   OH229272   3.298   6.825   3.837 -0.3027  0.5931 -0.1067
 2594TIP3    H129273   3.303   6.732   3.861 -0.7533  0.4324 -0.5862
 2594TIP3    H229274   3.239   6.863   3.902  0.1971  0.6349  0.3307
 2595TIP3   OH229275   4.195   2.669  14.594  0.3898 -0.6475  0.6898
 2595TIP3    H129276   4.219   2.702  14.681  1.1411 -0.6261  0.4865
 2595TIP3    H229277   4.240   2.584  14.587  0.3986 -0.6140  0.2953
 2596TIP3   OH229278   2.544   1.825   2.972  0.2535  0.0503  0.2128
 2596TIP3    H129279   2.564   1.840   2.879  1.5718 -0.7680  0.3394
 2596TIP3    H229280   2.541   1.730   2.981 -4.0807  0.0058  0.2092
 2597TIP3   OH229281   4.288   5.055  15.800  0.1435  0.2800  0.3687
 2597TIP3    H129282   4.349   4.998  15.754 -0.4135  0.1166 -0.1682
 2597TIP3    H229283   4.224   5.081  15.734  1.4798  3.1446  0.0495
 2598TIP3   OH229284   4.543   6.391   5.569 -0.4221  0.4427 -0.2895
 2598TIP3    H129285   4.563   6.467   5.514 -2.2201  0.4298 -1.0383
 2598TIP3    H229286   4.473   6.345   5.522 -0.8397 -0.5116  1.1947
 2599TIP3   OH229287   3.394   4.328   5.336 -0.7106  0.1185 -0.1522
 2599TIP3    H129288   3.404   4.393   5.266  1.5155  0.3246  0.3025
 2599TIP3    H229289   3.410   4.377   5.416 -0.3546 -0.7159  0.2953
 2600TIP3   OH229290   0.827   4.184   5.766  0.1443 -0.3203 -0.1347
 2600TIP3    H129291   0.738   4.170   5.734  0.0573 -0.0073 -0.0277
 2600TIP3    H229292   0.830   4.138   5.850  0.0125 -0.1276 -0.0245
 2601TIP3   OH229293   1.862   4.783   1.030 -0.0680 -0.0002  0.6689
 2601TIP3    H129294   1.799   4.834   0.979  1.2555  0.0877 -0.9726
 2601TIP3    H229295   1.811   4.747   1.103 -1.8795  0.4849 -0.3012
 2602TIP3   OH229296   1.130   0.768  12.032 -0.1437  0.2120 -0.4893
 2602TIP3    H129297   1.103   0.800  12.118 -0.7851 -0.2297 -0.5217
 2602TIP3    H229298   1.166   0.681  12.049 -0.9928 -0.2053 -0.7561
 2603TIP3   OH229299   0.303   1.517   1.722  0.2814  0.2483  0.0597
 2603TIP3    H129300   0.322   1.610   1.720 -0.5145  0.4110 -0.2572
 2603TIP3    H229301   0.382   1.477   1.758  0.5533  1.0587  0.3760
 2604TIP3   OH229302   2.494   4.295   2.514  0.0433 -0.6417 -0.1658
 2604TIP3    H129303   2.500   4.204   2.485  1.8668  0.1474 -2.5342
 2604TIP3    H229304   2.415   4.328   2.471  0.1677 -0.7305 -0.4659
 2605TIP3   OH229305   1.125   2.130  13.958  0.5846  0.4732  0.1800
 2605TIP3    H129306   1.043   2.099  13.996  1.3595 -0.4607  1.1540
 2605TIP3    H229307   1.192   2.107  14.022  1.7804 -0.0131 -1.1649
 2606TIP3   OH229308   1.306   0.891   1.340 -0.3803  0.0941 -0.6626
 2606TIP3    H129309   1.250   0.818   1.313  2.3964 -2.5527  0.0433
 2606TIP3    H229310   1.359   0.910   1.263  0.3040 -0.1096 -0.2533
 2607TIP3   OH229311   3.839   3.533  15.185  0.3049 -0.5700  0.5445
 2607TIP3    H129312   3.826   3.518  15.092  1.0817  0.4889  0.2541
 2607TIP3    H229313   3.810   3.451  15.226  0.3191 -1.1977 -0.6433
 2608TIP3   OH229314   6.002   1.927  13.339 -0.4674  0.0211 -0.1704
 2608TIP3    H129315   6.016   2.021  13.354 -2.0444 -0.2059  3.8283
 2608TIP3    H229316   5.925   1.923  13.283 -0.8153  1.1473  0.1962
 2609TIP3   OH229317   2.686   6.488   1.797 -0.8135 -0.3420  0.7442
 2609TIP3    H129318   2.629   6.465   1.871 -0.5661  2.0579  1.7960
 2609TIP3    H229319   2.755   6.423   1.798 -0.3043  0.1416  3.2936
 2610TIP3   OH229320   1.200   5.010  15.840 -0.1608 -0.3425  0.0151
 2610TIP3    H129321   1.205   5.030  15.933  0.7647  3.3321 -0.6452
 2610TIP3    H229322   1.264   4.940  15.826 -0.9364 -1.5700  2.1785
 2611TIP3   OH229323   6.596   2.204   5.922  0.6319 -0.3082  0.2326
 2611TIP3    H129324   6.666   2.206   5.986  0.9077  1.0402 -0.0701
 2611TIP3    H229325   6.517   2.224   5.972  0.6457 -0.5680  0.3608
 2612TIP3   OH229326   2.980   1.925   1.101  0.1316  0.1052  0.0828
 2612TIP3    H129327   3.051   1.982   1.130 -0.7417  1.4373 -0.3073
 2612TIP3    H229328   2.990   1.922   1.005 -0.0879 -0.0604  0.0641
 2613TIP3   OH229329   2.675   1.776   1.525 -0.1146 -0.1734  0.2385
 2613TIP3    H129330   2.741   1.802   1.589 -0.9595 -0.3619  1.2268
 2613TIP3    H229331   2.723   1.727   1.458  1.2501  2.3434 -0.7698
 2614TIP3   OH229332   6.746   0.952  14.547 -0.3272  0.4770 -0.2155
 2614TIP3    H129333   6.788   0.900  14.479  1.6817  0.7177  0.7679
 2614TIP3    H229334   6.739   0.893  14.622 -0.2751  0.9024  0.1337
 2615TIP3   OH229335   1.745   4.216   4.025  0.3657  0.3470 -0.0567
 2615TIP3    H129336   1.718   4.156   3.955  1.6502  0.9349 -1.1107
 2615TIP3    H229337   1.663   4.251   4.060 -0.3153 -0.0233 -1.2282
 2616TIP3   OH229338   6.273   1.102   2.937 -0.2073 -0.2397  0.3113
 2616TIP3    H129339   6.264   1.192   2.968  0.2765  0.2576 -0.9353
 2616TIP3    H229340   6.349   1.104   2.879  0.0266 -1.5385  0.5436
 2617TIP3   OH229341   0.212   5.206   4.809 -0.6696  0.1757 -0.1612
 2617TIP3    H129342   0.174   5.209   4.897  2.4605 -1.5391  1.4504
 2617TIP3    H229343   0.299   5.245   4.820 -0.7418  1.3329 -2.9365
 2618TIP3   OH229344   5.150   4.220  17.083 -0.7559 -0.0718  0.6901
 2618TIP3    H129345   5.142   4.228  17.178  0.8910 -1.9489  1.0506
 2618TIP3    H229346   5.239   4.249  17.064 -0.9938  0.0650 -0.2653
 2619TIP3   OH229347   5.512   3.674   2.164  0.4491 -0.1728  0.3761
 2619TIP3    H129348   5.491   3.630   2.246 -0.2216 -1.6267 -0.5402
 2619TIP3    H229349   5.441   3.738   2.152 -0.0748 -0.7428  0.3829
 2620TIP3   OH229350   5.424   2.077   0.870 -0.1861  0.4856 -0.3277
 2620TIP3    H129351   5.494   2.132   0.834  1.2840 -0.7338  0.5359
 2620TIP3    H229352   5.451   2.061   0.961 -0.2653 -2.0445 -0.6755
 2621TIP3   OH229353   5.663   5.914  13.631 -0.1554 -0.0731 -0.1607
 2621TIP3    H129354   5.575   5.916  13.670 -0.6320 -1.2937 -1.0994
 2621TIP3    H229355   5.684   6.006  13.616 -0.7274  0.3179  1.2404
 2622TIP3   OH229356   1.641   4.468  16.438 -0.0523  0.4197  0.0073
 2622TIP3    H129357   1.601   4.381  16.435 -0.1060  0.3368  1.9439
 2622TIP3    H229358   1.735   4.451  16.437  0.0070  0.1056  2.9778
 2623TIP3   OH229359   3.606   3.317  11.106  0.5362 -0.0708 -0.0049
 2623TIP3    H129360   3.546   3.246  11.081  0.7439  0.8010 -3.4838
 2623TIP3    H229361   3.678   3.272  11.151 -0.6960 -1.6601  0.5042
 2624TIP3   OH229362   3.472   1.028  14.723 -0.7678 -0.2671  0.2991
 2624TIP3    H129363   3.401   1.091  14.709 -0.7524 -0.7810 -2.8073
 2624TIP3    H229364   3.434   0.961  14.780 -3.0283 -0.8220 -1.7158
 2625TIP3   OH229365   5.378   6.101   2.125  0.0333 -0.2988 -0.1320
 2625TIP3    H129366   5.329   6.100   2.043  0.9485 -1.7422 -0.6921
 2625TIP3    H229367   5.414   6.189   2.131 -0.5186 -0.0078 -0.9809
 2626TIP3   OH229368   2.197   0.921   1.557 -0.7392 -0.2383 -0.7032
 2626TIP3    H129369   2.153   0.966   1.630  1.1703 -0.2277  0.4931
 2626TIP3    H229370   2.190   0.983   1.484  0.6275  1.4812  0.5262
 2627TIP3   OH229371   1.001   1.138   2.654  0.2215 -0.6385  0.2642
 2627TIP3    H129372   0.946   1.140   2.732  0.8073 -0.9773  0.6939
 2627TIP3    H229373   1.090   1.129   2.688  0.7042  1.3321 -0.3574
 2628TIP3   OH229374   6.322   3.580  13.571  0.2161 -0.6372  0.4518
 2628TIP3    H129375   6.300   3.672  13.558  0.6533 -0.4124  1.2758
 2628TIP3    H229376   6.305   3.564  13.664  0.1330 -1.3927  0.3111
 2629TIP3   OH229377   1.478   5.830   6.044  0.2839  0.0661 -0.0526
 2629TIP3    H129378   1.512   5.846   6.132  0.7872 -0.7400 -0.0988
 2629TIP3    H229379   1.551   5.792   5.996  0.4312  1.7053 -1.2211
 2630TIP3   OH229380   4.377   0.542  16.488 -0.0151  0.2340 -0.0415
 2630TIP3    H129381   4.384   0.494  16.570 -1.0202 -0.7931 -0.5092
 2630TIP3    H229382   4.294   0.511  16.450  0.4894  0.5746 -1.4909
 2631TIP3   OH229383   1.964   2.966   1.023  0.5423 -0.0910  0.2222
 2631TIP3    H129384   1.930   2.909   0.954 -0.2945  0.7188 -0.0709
 2631TIP3    H229385   1.986   2.907   1.095  1.7547 -0.9879 -0.8510
 2632TIP3   OH229386   6.779   5.581  15.608 -0.6048  0.5776  0.0909
 2632TIP3    H129387   6.835   5.516  15.565 -0.8000 -0.0297  0.7387
 2632TIP3    H229388   6.833   5.616  15.679 -0.1748  1.8006 -0.8006
 2633TIP3   OH229389   4.772   5.360  16.588  0.2564  0.0227  0.2798
 2633TIP3    H129390   4.731   5.290  16.537  0.0720 -0.6858  1.3702
 2633TIP3    H229391   4.837   5.316  16.641 -0.1743  0.6018  1.3241
 2634TIP3   OH229392   0.128   6.524  11.677 -0.0912 -0.6009 -0.1484
 2634TIP3    H129393   0.221   6.541  11.693  0.0869 -1.9968  0.4242
 2634TIP3    H229394   0.126   6.435  11.643 -1.1523 -0.2574 -1.0236
 2635TIP3   OH229395   5.686   5.765   0.548  0.3522 -0.8031 -0.0194
 2635TIP3    H129396   5.727   5.842   0.588  2.7547 -1.1677 -1.5556
 2635TIP3    H229397   5.747   5.693   0.566 -0.5357 -1.7973 -0.8367
 2636TIP3   OH229398   4.457   6.589  16.326 -0.5297 -0.1292  0.5115
 2636TIP3    H129399   4.514   6.657  16.360 -1.2913  1.3122 -0.9520
 2636TIP3    H229400   4.501   6.557  16.247 -0.6167 -0.6993  0.6846
 2637TIP3   OH229401   3.676   1.044   0.801 -0.1443  0.0597 -0.0497
 2637TIP3    H129402   3.605   1.064   0.862  0.5492  1.9157  0.2092
 2637TIP3    H229403   3.755   1.068   0.849  0.6364 -1.2527 -0.6236
 2638TIP3   OH229404   4.658   2.356   1.767 -0.6424  0.0632  0.6039
 2638TIP3    H129405   4.683   2.445   1.789 -2.1530  0.1276  2.2762
 2638TIP3    H229406   4.683   2.304   1.843 -0.4748 -0.8290 -0.0396
 2639TIP3   OH229407   5.358   0.655   4.964 -0.0913 -0.1393 -0.6440
 2639TIP3    H129408   5.401   0.594   5.023 -2.7602 -1.7068 -0.1387
 2639TIP3    H229409   5.380   0.625   4.877  2.1092  0.8718 -0.4899
 2640TIP3   OH229410   6.161   4.827   1.770 -0.4141  0.0548 -0.5944
 2640TIP3    H129411   6.189   4.758   1.830  2.0769  1.2482 -0.2283
 2640TIP3    H229412   6.108   4.885   1.824 -0.6793 -0.4344 -0.3259
 2641TIP3   OH229413   0.188   2.841   0.257 -0.4214  0.7742 -0.2872
 2641TIP3    H129414   0.141   2.919   0.227 -0.6926  0.9961  0.6951
 2641TIP3    H229415   0.192   2.851   0.352  0.1669 -0.0641 -0.2215
 2642TIP3   OH229416   4.379   2.704   6.361  0.0405 -0.6235 -0.4333
 2642TIP3    H129417   4.345   2.687   6.448 -2.3715  0.8142 -1.0038
 2642TIP3    H229418   4.410   2.619   6.330 -1.1206 -1.6049  0.9880
 2643TIP3   OH229419   1.858   1.187   5.617 -0.2103  0.1465 -0.4736
 2643TIP3    H129420   1.808   1.110   5.589 -0.3165 -0.4477  1.2330
 2643TIP3    H229421   1.946   1.154   5.634 -0.5891  0.0782  1.5582
 2644TIP3   OH229422   2.723   2.274  11.285 -0.4717 -0.1006  0.9565
 2644TIP3    H129423   2.692   2.186  11.308  0.2167 -1.1496 -1.7692
 2644TIP3    H229424   2.804   2.285  11.336 -1.1091 -0.5742  2.1106
 2645TIP3   OH229425   4.496   0.832   0.960 -0.5501 -0.2892  0.8401
 2645TIP3    H129426   4.527   0.827   0.869  0.2780  0.3172  1.0740
 2645TIP3    H229427   4.505   0.924   0.983 -0.2544 -0.5191  1.6990
 2646TIP3   OH229428   2.586   6.274   1.623  1.3528  0.1203  0.0294
 2646TIP3    H129429   2.665   6.221   1.635  1.2341 -0.3970 -1.3073
 2646TIP3    H229430   2.533   6.225   1.560  1.5146  2.0911 -1.7628
 2647TIP3   OH229431   2.505   2.137  12.416  0.2401 -0.3635 -0.6273
 2647TIP3    H129432   2.478   2.056  12.373 -0.9106  0.1425 -0.9005
 2647TIP3    H229433   2.529   2.196  12.345 -0.2600 -0.0071 -0.5048
 2648TIP3   OH229434   0.306   4.725   0.808  0.5331 -0.2359  0.4153
 2648TIP3    H129435   0.254   4.805   0.803  1.3705  0.2405 -1.1843
 2648TIP3    H229436   0.396   4.754   0.795  0.8753 -1.3995  0.1031
 2649TIP3   OH229437   2.397   6.247   2.673  0.0364 -0.3155 -0.1364
 2649TIP3    H129438   2.322   6.195   2.703 -0.6841 -0.7131 -2.4058
 2649TIP3    H229439   2.473   6.193   2.694 -0.4942 -0.9941  0.1025
 2650TIP3   OH229440   2.518   4.047   2.454  0.1179  0.4441  1.0788
 2650TIP3    H129441   2.548   3.957   2.437 -1.2421 -0.0140  1.0311
 2650TIP3    H229442   2.466   4.070   2.378 -1.5543  0.3647  2.1554
 2651TIP3   OH229443   2.365   0.352   1.229  0.2729 -0.1943  0.2405
 2651TIP3    H129444   2.360   0.407   1.151 -1.4982 -0.2548  0.2728
 2651TIP3    H229445   2.347   0.412   1.302  0.6617 -0.3870  0.5001
 2652TIP3   OH229446   0.823   1.534   5.886  0.5137 -0.3090 -0.1246
 2652TIP3    H129447   0.806   1.448   5.925 -1.3985  0.1876  0.2443
 2652TIP3    H229448   0.845   1.590   5.960  0.2917 -0.1469 -0.1798
 2653TIP3   OH229449   3.933   3.595   0.976 -0.4715  0.3252 -0.5842
 2653TIP3    H129450   3.980   3.512   0.964  0.7911  0.6821  1.4069
 2653TIP3    H229451   4.000   3.662   0.965 -1.4755  1.1371 -2.1239
 2654TIP3   OH229452   3.033   1.718   1.531  0.6947 -0.2315 -0.0838
 2654TIP3    H129453   3.116   1.762   1.515 -0.3444  1.2496 -1.9863
 2654TIP3    H229454   3.018   1.665   1.452  0.4863 -1.6312  0.8612
 2655TIP3   OH229455   1.126   1.049  11.575 -0.2205 -0.5204 -0.9311
 2655TIP3    H129456   1.069   1.018  11.645  0.6175  0.7882  0.3691
 2655TIP3    H229457   1.184   0.975  11.557 -1.7877 -1.6074 -1.7586
 2656TIP3   OH229458   3.654   5.109   5.702  0.0083 -0.5876  0.6251
 2656TIP3    H129459   3.709   5.039   5.737  3.4047  0.1434 -2.5912
 2656TIP3    H229460   3.711   5.186   5.700 -2.5010  1.4013  0.8036
 2657TIP3   OH229461   5.825   1.604   3.261 -0.2217  0.3266 -0.1265
 2657TIP3    H129462   5.791   1.515   3.263 -1.5087  0.6461 -2.6246
 2657TIP3    H229463   5.889   1.608   3.331 -2.0982 -1.7217  1.8542
 2658TIP3   OH229464   3.038   4.271   1.177 -0.4368 -0.0334  0.2362
 2658TIP3    H129465   2.981   4.348   1.181 -0.8256 -0.3618  3.1435
 2658TIP3    H229466   3.021   4.224   1.259  2.4729 -1.2940  0.2267
 2659TIP3   OH229467   1.637   3.275  16.213  0.2206  0.4735 -0.8286
 2659TIP3    H129468   1.676   3.269  16.126  0.0788 -2.2847 -0.7904
 2659TIP3    H229469   1.546   3.249  16.200  0.4764 -1.0684  0.2914
 2660TIP3   OH229470   4.709   2.834  14.015 -0.5359  0.2761 -0.1224
 2660TIP3    H129471   4.650   2.909  14.001 -1.2238 -0.0102  1.1032
 2660TIP3    H229472   4.725   2.834  14.109  2.6136  1.2094 -0.5464
 2661TIP3   OH229473   0.459   4.613  16.064  0.5098 -0.3137  0.3552
 2661TIP3    H129474   0.549   4.644  16.059 -0.1984  2.2514  1.5803
 2661TIP3    H229475   0.434   4.594  15.974  1.1092  2.8114 -0.5975
 2662TIP3   OH229476   0.910   4.570  15.384  0.6088 -0.1260  0.3586
 2662TIP3    H129477   0.941   4.546  15.297  0.2745 -2.8622  0.9073
 2662TIP3    H229478   0.820   4.600  15.371 -0.3850 -2.9999 -0.0538
 2663TIP3   OH229479   4.258   4.500  16.703  0.4221  0.6548  0.1794
 2663TIP3    H129480   4.219   4.436  16.762  1.5028  0.1985  0.4371
 2663TIP3    H229481   4.188   4.525  16.644  0.0882 -1.1568 -0.2528
 2664TIP3   OH229482   2.920   1.368  14.588 -0.3091  0.2124 -0.7993
 2664TIP3    H129483   2.863   1.291  14.576  0.6122 -0.8772  1.2969
 2664TIP3    H229484   2.861   1.443  14.576 -1.4206 -0.7992 -2.0737
 2665TIP3   OH229485   2.370   4.357   4.299  0.3034  0.4280 -0.0572
 2665TIP3    H129486   2.383   4.266   4.325 -2.9230  0.8130  3.6714
 2665TIP3    H229487   2.456   4.384   4.264  2.0742 -3.2801  0.9171
 2666TIP3   OH229488   2.484   2.022   2.695 -0.5844  0.4147 -0.0093
 2666TIP3    H129489   2.484   2.075   2.615  1.0378  0.6182  0.0840
 2666TIP3    H229490   2.393   2.020   2.723 -0.7939  2.6790 -0.3507
 2667TIP3   OH229491   6.559   5.915  10.723  0.0177  0.2213  0.4387
 2667TIP3    H129492   6.510   5.839  10.754 -0.6521  0.9410  1.1893
 2667TIP3    H229493   6.552   5.910  10.627 -2.1952  0.6992  0.5229
 2668TIP3   OH229494   5.136   5.726   1.791  0.1365  0.6954  0.4533
 2668TIP3    H129495   5.168   5.815   1.776 -0.9794  0.8876 -1.0012
 2668TIP3    H229496   5.205   5.669   1.755  1.2121  0.9057  2.0833
 2669TIP3   OH229497   4.559   4.725   5.523  0.1817 -0.0690  0.1624
 2669TIP3    H129498   4.530   4.639   5.551  0.8599 -1.3274 -2.6220
 2669TIP3    H229499   4.650   4.731   5.551  1.4408 -2.0686 -2.9071
 2670TIP3   OH229500   5.451   6.282  12.037 -0.1385  0.2982 -0.9230
 2670TIP3    H129501   5.497   6.200  12.056  0.5967  0.2119 -2.8449
 2670TIP3    H229502   5.448   6.286  11.941 -1.3183  1.8966 -0.8636
 2671TIP3   OH229503   6.595   5.439  15.838 -0.3324  0.5619  0.9881
 2671TIP3    H129504   6.672   5.383  15.852 -0.1812  1.0782  2.3432
 2671TIP3    H229505   6.595   5.455  15.744  2.0155  1.6401  1.0942
 2672TIP3   OH229506   0.469   5.185  14.227  0.1953  0.1418  0.4784
 2672TIP3    H129507   0.390   5.137  14.254  1.5867 -1.6367  1.6127
 2672TIP3    H229508   0.474   5.170  14.133  1.5686 -3.7631  0.9905
 2673TIP3   OH229509   3.527   6.179  16.854 -0.4769  0.4145 -0.3817
 2673TIP3    H129510   3.497   6.141  16.937 -0.3135  1.7210  0.3022
 2673TIP3    H229511   3.450   6.175  16.798 -0.5710 -0.5530 -0.2145
 2674TIP3   OH229512   1.795   3.414  12.187  0.2918  0.2415 -0.0177
 2674TIP3    H129513   1.888   3.406  12.165  0.2716  2.8848 -1.4896
 2674TIP3    H229514   1.751   3.351  12.130  1.1164 -0.4519  0.0985
 2675TIP3   OH229515   4.616   1.592   4.041 -0.0932 -0.5150 -0.5420
 2675TIP3    H129516   4.694   1.636   4.077 -0.3890  1.0145 -1.6841
 2675TIP3    H229517   4.594   1.527   4.107  0.8703  0.4918  0.8475
 2676TIP3   OH229518   1.757   0.514   3.565  0.4474  0.0119  0.4285
 2676TIP3    H129519   1.843   0.473   3.555 -0.0061 -1.5184  2.3563
 2676TIP3    H229520   1.776   0.602   3.599  1.2417 -0.4308  1.1527
 2677TIP3   OH229521   6.545   5.323   0.336  0.1660 -0.0572 -0.3975
 2677TIP3    H129522   6.485   5.253   0.362  1.2852 -0.4673  1.2679
 2677TIP3    H229523   6.632   5.284   0.348  0.7929  1.2999 -0.4235
 2678TIP3   OH229524   0.946   6.255   3.298  0.3340  0.6706  0.2379
 2678TIP3    H129525   0.955   6.279   3.206 -1.7926  0.6124 -0.0332
 2678TIP3    H229526   0.951   6.338   3.345  1.0084  0.7456  0.0458
 2679TIP3   OH229527   5.488   3.257   5.458  0.3981 -0.1093 -0.0478
 2679TIP3    H129528   5.562   3.314   5.442  0.4243  0.0227  0.5335
 2679TIP3    H229529   5.462   3.274   5.548  0.1109 -0.6714 -0.0130
 2680TIP3   OH229530   5.344   4.728  12.963  0.1344  0.5883 -0.2309
 2680TIP3    H129531   5.275   4.681  13.009  0.1989  0.3451 -0.3850
 2680TIP3    H229532   5.353   4.810  13.012  0.6392  0.0682  0.5714
 2681TIP3   OH229533   0.754   2.820  12.334  0.1336 -0.0101 -0.0804
 2681TIP3    H129534   0.804   2.877  12.393 -1.5190  1.5866 -0.0990
 2681TIP3    H229535   0.818   2.788  12.271  1.7378 -0.8420  1.8616
 2682TIP3   OH229536   1.973   2.569   4.002 -0.1472 -0.5068 -0.2735
 2682TIP3    H129537   1.885   2.602   4.022 -1.0116 -2.2265 -1.0239
 2682TIP3    H229538   2.011   2.636   3.945 -0.7741  0.4934  0.4453
 2683TIP3   OH229539   0.082   3.288   2.339 -0.4513  0.8084 -0.0559
 2683TIP3    H129540   0.017   3.359   2.342  0.4855  1.7847 -1.4473
 2683TIP3    H229541   0.165   3.333   2.325  0.3762 -0.5007  0.5371
 2684TIP3   OH229542   1.683   4.830   0.381  0.8169 -0.5856 -0.6979
 2684TIP3    H129543   1.737   4.904   0.408  1.1085 -0.9074 -0.3765
 2684TIP3    H229544   1.600   4.842   0.428  0.7024 -0.2244 -0.9964
 2685TIP3   OH229545   1.955   0.695  15.491  0.1585 -0.2483 -0.3524
 2685TIP3    H129546   1.925   0.780  15.524 -0.7064 -0.6276 -0.1558
 2685TIP3    H229547   1.876   0.651  15.462  0.5911 -1.0458 -0.3347
 2686TIP3   OH229548   3.527   5.499   0.946 -0.4361  0.4658 -0.1069
 2686TIP3    H129549   3.555   5.459   1.029  0.6296 -0.3102 -0.8213
 2686TIP3    H229550   3.451   5.448   0.919  0.4346 -0.5930 -0.6124
 2687TIP3   OH229551   5.841   5.455   2.906 -0.4726  0.3226 -0.3223
 2687TIP3    H129552   5.916   5.426   2.957 -1.5257 -1.1821  0.4552
 2687TIP3    H229553   5.815   5.378   2.855 -1.2975  0.9042 -0.8195
 2688TIP3   OH229554   1.976   1.610  11.606  0.1318 -0.2537  0.1226
 2688TIP3    H129555   1.934   1.599  11.691  0.4185 -1.8843  0.0889
 2688TIP3    H229556   1.952   1.531  11.557 -1.9414  1.6176 -2.1735
 2689TIP3   OH229557   4.019   0.794  14.412  0.0866  0.5068  0.0984
 2689TIP3    H129558   4.087   0.728  14.400  1.3977  2.1073 -2.1197
 2689TIP3    H229559   4.067   0.873  14.437 -0.8488  1.7074 -1.6288
 2690TIP3   OH229560   0.896   1.785   4.471  0.0471  0.4256  0.0079
 2690TIP3    H129561   0.898   1.689   4.475 -0.6796  0.4280  0.8482
 2690TIP3    H229562   0.980   1.809   4.435  0.1952 -0.5429 -0.3261
 2691TIP3   OH229563   6.487   5.783  13.273  0.3949  0.0928 -0.3790
 2691TIP3    H129564   6.573   5.766  13.312 -0.3995 -1.8988  0.6654
 2691TIP3    H229565   6.430   5.715  13.310 -1.5276  1.0542 -1.4149
 2692TIP3   OH229566   2.155   5.947  14.345 -0.3687 -0.5788 -0.7943
 2692TIP3    H129567   2.161   5.957  14.440 -0.5901 -1.3854 -0.6901
 2692TIP3    H229568   2.182   5.857  14.328 -1.4041 -0.7994 -1.3747
 2693TIP3   OH229569   3.095   1.152   3.324 -0.6789  0.5981  1.0846
 2693TIP3    H129570   3.162   1.218   3.304 -0.1846 -0.1700  0.0837
 2693TIP3    H229571   3.124   1.113   3.406 -1.0622  1.7212  1.7654
 2694TIP3   OH229572   0.160   2.681   1.112  0.1378 -0.1416 -0.9314
 2694TIP3    H129573   0.218   2.749   1.145  0.0590 -0.4665 -0.0850
 2694TIP3    H229574   0.219   2.613   1.080  0.2151  0.1071 -1.3300
 2695TIP3   OH229575   4.021   3.873  11.402  0.1723  0.0349 -0.3652
 2695TIP3    H129576   4.037   3.925  11.481  2.2765  0.5095 -1.0417
 2695TIP3    H229577   4.056   3.786  11.423  1.0403  0.2528 -0.8594
 2696TIP3   OH229578   1.319   6.704  15.977  0.1141 -0.6839  0.1328
 2696TIP3    H129579   1.265   6.632  16.009 -0.7167 -0.0472  0.1736
 2696TIP3    H229580   1.259   6.762  15.931  0.6853  0.2140  0.4747
 2697TIP3   OH229581   4.613   5.897  12.715 -0.3327  0.1554 -0.2884
 2697TIP3    H129582   4.587   5.886  12.624 -0.2221 -1.4297 -0.1468
 2697TIP3    H229583   4.707   5.917  12.711 -0.1089 -0.8918 -0.4902
 2698TIP3   OH229584   6.614   4.717  14.192 -0.2816  0.1332 -0.3689
 2698TIP3    H129585   6.667   4.791  14.221  0.2804  0.1445 -1.3684
 2698TIP3    H229586   6.541   4.713  14.255  0.7378  0.2952  0.8528
 2699TIP3   OH229587   2.067   1.192   5.877  0.1058  0.0167 -0.2119
 2699TIP3    H129588   2.017   1.114   5.902  1.1519 -0.2956  1.0721
 2699TIP3    H229589   2.152   1.180   5.921  0.2978  1.8596 -0.0204
 2700TIP3   OH229590   5.475   4.689   5.148 -0.0452  0.1818  0.2388
 2700TIP3    H129591   5.434   4.675   5.233 -0.4958 -0.5368 -0.0897
 2700TIP3    H229592   5.499   4.782   5.148 -1.1791  0.4899  0.6553
 2701TIP3   OH229593   6.271   2.582   0.530 -0.5088 -0.2141  0.1165
 2701TIP3    H129594   6.344   2.533   0.566 -1.2345 -1.1328  0.3801
 2701TIP3    H229595   6.204   2.581   0.599 -2.8710 -4.0174 -1.8770
 2702TIP3   OH229596   2.101   1.204   0.017  0.5314 -0.0342 -0.2355
 2702TIP3    H129597   2.130   1.127   0.067  1.2234  0.3617 -0.0177
 2702TIP3    H229598   2.151   1.277   0.054 -0.2711  0.5619 -0.2978
 2703TIP3   OH229599   5.072   4.424  15.666  0.0468  0.2812 -0.0795
 2703TIP3    H129600   5.077   4.441  15.573  1.1586  1.9260  0.2501
 2703TIP3    H229601   5.121   4.342  15.678  2.3109  1.4835 -0.6236
 2704TIP3   OH229602   5.762   1.683   5.263 -0.6703  0.6007 -0.0487
 2704TIP3    H129603   5.716   1.634   5.195 -0.2823  1.3347 -0.8649
 2704TIP3    H229604   5.705   1.759   5.279 -1.2172 -0.0271  1.1266
 2705TIP3   OH229605   5.685   4.598  11.403  0.3763  0.1900 -0.0834
 2705TIP3    H129606   5.651   4.682  11.371 -3.7372 -1.3926 -0.4803
 2705TIP3    H229607   5.729   4.560  11.327 -0.6203  0.6630 -0.9316
 2706TIP3   OH229608   5.887   3.101  16.834 -0.0526 -0.6297 -0.3606
 2706TIP3    H129609   5.930   3.032  16.885  0.0635 -0.9988 -0.9469
 2706TIP3    H229610   5.895   3.072  16.743 -0.3235 -0.0180 -0.5849
 2707TIP3   OH229611   3.656   6.449  17.102  0.2898 -0.5352 -0.3022
 2707TIP3    H129612   3.564   6.475  17.090  0.4878 -0.8871 -3.6543
 2707TIP3    H229613   3.705   6.531  17.092  0.4150 -0.0119  3.2544
 2708TIP3   OH229614   0.857   6.240  15.700  0.1399  0.3966 -0.5906
 2708TIP3    H129615   0.877   6.302  15.770  0.0739  0.6216 -0.7729
 2708TIP3    H229616   0.803   6.289  15.638 -1.3338 -0.3001  0.0839
 2709TIP3   OH229617   1.192   0.577   0.538 -0.4315  0.2043 -1.0130
 2709TIP3    H129618   1.122   0.569   0.473 -2.2351  1.3308  0.6831
 2709TIP3    H229619   1.186   0.496   0.589 -0.9242  0.5607 -0.4939
 2710TIP3   OH229620   4.865   6.316   2.592  0.2245  0.3752  0.5957
 2710TIP3    H129621   4.795   6.354   2.539  0.3717  1.3114  1.0440
 2710TIP3    H229622   4.824   6.244   2.639 -0.2219  0.3651  0.1891
 2711TIP3   OH229623   3.264   6.106  15.557  0.2345  0.3060 -0.0717
 2711TIP3    H129624   3.192   6.068  15.507  1.2229 -0.4399 -0.9678
 2711TIP3    H229625   3.241   6.089  15.648 -0.6022 -0.1371 -0.3484
 2712TIP3   OH229626   0.433   1.048  14.233  0.2669  1.0333  0.3418
 2712TIP3    H129627   0.514   1.037  14.284  0.4391 -1.8741 -0.3911
 2712TIP3    H229628   0.374   0.981  14.267  0.1394 -0.5303 -2.7184
 2713TIP3   OH229629   4.813   3.841  13.942 -0.2389  0.3199 -0.1195
 2713TIP3    H129630   4.831   3.757  13.900 -1.1490  0.8568 -1.6428
 2713TIP3    H229631   4.718   3.845  13.949 -0.1881  1.0742  0.2831
 2714TIP3   OH229632   2.703   3.536  13.831 -0.1317  0.3860  0.3007
 2714TIP3    H129633   2.670   3.529  13.741  0.7259 -4.5018  0.0882
 2714TIP3    H229634   2.796   3.557  13.821  0.1248 -0.8521 -0.0467
 2715TIP3   OH229635   0.402   6.422  14.770 -0.3538  0.6791  0.8284
 2715TIP3    H129636   0.355   6.438  14.852 -1.1434  0.4779  0.4227
 2715TIP3    H229637   0.488   6.389  14.797 -1.4535 -1.7476  1.5740
 2716TIP3   OH229638   3.196   3.312  14.853  0.0975 -0.4414 -0.0280
 2716TIP3    H129639   3.174   3.346  14.766 -0.5564 -0.9997 -0.0941
 2716TIP3    H229640   3.289   3.291  14.848  0.0101 -0.6990 -0.6802
 2717TIP3   OH229641   3.678   0.027  16.549  0.1475  0.0892  0.1192
 2717TIP3    H129642   3.660  -0.024  16.627 -0.0674 -0.7015 -0.4357
 2717TIP3    H229643   3.656  -0.031  16.476  0.8058  0.6402 -0.5353
 2718TIP3   OH229644   5.518   6.168   0.450 -0.5790 -0.2268 -0.0600
 2718TIP3    H129645   5.485   6.128   0.530 -1.6256  1.8001  0.6012
 2718TIP3    H229646   5.589   6.225   0.480  0.8380 -1.4321 -0.9629
 2719TIP3   OH229647   6.765   0.642  14.642 -0.5224 -0.0407  0.2304
 2719TIP3    H129648   6.832   0.623  14.708  1.5400  0.1728 -1.6565
 2719TIP3    H229649   6.792   0.591  14.566 -1.8783  0.9351 -0.9625
 2720TIP3   OH229650   0.242   2.483   4.496 -0.1605 -0.1401  0.4085
 2720TIP3    H129651   0.227   2.398   4.453  0.2328 -0.4211  0.8167
 2720TIP3    H229652   0.337   2.490   4.502 -0.1588  0.7358 -0.4081
 2721TIP3   OH229653   4.034   4.526   3.799 -0.2165  0.1662 -0.1796
 2721TIP3    H129654   4.050   4.552   3.890  0.0281 -0.2491 -0.0984
 2721TIP3    H229655   3.978   4.595   3.764 -0.3858  0.2879  0.3131
 2722TIP3   OH229656   0.987   5.036  12.676 -0.0636 -0.1900  0.1307
 2722TIP3    H129657   0.953   5.063  12.590 -0.3711 -0.8388  0.0384
 2722TIP3    H229658   1.079   5.015  12.659  0.8192  2.8528  0.6528
 2723TIP3   OH229659   4.678   2.265   0.313  0.5842 -0.1941 -0.2639
 2723TIP3    H129660   4.639   2.251   0.399  2.1989 -0.1970  0.5072
 2723TIP3    H229661   4.603   2.274   0.253 -0.5679  0.0813  1.1741
 2724TIP3   OH229662   6.506   1.078   0.190 -0.4837  0.0556  0.7288
 2724TIP3    H129663   6.475   0.989   0.205  1.4467 -0.6734  0.7024
 2724TIP3    H229664   6.563   1.097   0.264 -0.8379  1.2667  0.7122
 2725TIP3   OH229665   3.707   2.558   4.935 -0.2846 -0.2697 -0.1681
 2725TIP3    H129666   3.746   2.495   4.996  1.9823  0.9842 -0.2052
 2725TIP3    H229667   3.739   2.530   4.849 -0.3929  0.1406 -0.3432
 2726TIP3   OH229668   4.303   1.180  14.570 -0.1228  0.5027  0.4132
 2726TIP3    H129669   4.370   1.202  14.506  0.0191  0.4297  0.5372
 2726TIP3    H229670   4.312   1.246  14.638 -1.0207  1.2751 -0.1817
 2727TIP3   OH229671   0.718   2.010   1.329  0.3912 -0.2310 -0.5528
 2727TIP3    H129672   0.634   2.048   1.307 -0.0968 -0.0873  1.3397
 2727TIP3    H229673   0.781   2.057   1.275 -0.3058  2.5572  0.8403
 2728TIP3   OH229674   2.796   3.504   4.750  0.1680  0.2073 -0.5255
 2728TIP3    H129675   2.785   3.589   4.708 -1.2645 -1.1304 -3.1078
 2728TIP3    H229676   2.882   3.473   4.719 -0.7102 -0.6005 -2.3140
 2729TIP3   OH229677   4.382   4.552  14.756 -0.1206 -0.6289  0.0467
 2729TIP3    H129678   4.345   4.636  14.785  1.7375  0.9247 -1.7361
 2729TIP3    H229679   4.321   4.520  14.690 -0.0863  0.1430 -0.3747
 2730TIP3   OH229680   5.994   5.863  16.394 -0.4683 -0.0391  0.1239
 2730TIP3    H129681   6.044   5.943  16.413 -0.2447 -0.2873  0.5817
 2730TIP3    H229682   5.919   5.894  16.343  0.6903  0.2206 -1.5033
 2731TIP3   OH229683   0.215   1.571   3.803 -0.5026 -0.6246 -0.4495
 2731TIP3    H129684   0.265   1.513   3.862  0.6689  0.0024 -0.8078
 2731TIP3    H229685   0.146   1.608   3.859 -0.2880 -1.1391  0.1699
 2732TIP3   OH229686   1.135   2.836   3.175 -0.2191  0.0357 -0.1342
 2732TIP3    H129687   1.159   2.757   3.128  3.1099 -0.3778  1.9518
 2732TIP3    H229688   1.072   2.806   3.241  0.1255 -0.6554 -0.1134
 2733TIP3   OH229689   3.463   0.860  12.460 -0.0143 -0.3702  0.5369
 2733TIP3    H129690   3.541   0.831  12.411 -0.5836  0.0444 -0.6351
 2733TIP3    H229691   3.499   0.903  12.537  0.8932 -2.2736  1.2551
 2734TIP3   OH229692   0.786   0.420   4.785 -0.3216 -0.5267  0.1947
 2734TIP3    H129693   0.738   0.489   4.740  0.9580  1.8176  2.2187
 2734TIP3    H229694   0.841   0.380   4.717 -0.2886  1.1832 -0.8233
 2735TIP3   OH229695   3.633   4.377   0.240 -0.5005 -0.3280  0.1966
 2735TIP3    H129696   3.615   4.435   0.166 -0.2608  0.8606  1.0545
 2735TIP3    H229697   3.587   4.416   0.314 -0.6834 -1.4660  0.7069
 2736TIP3   OH229698   4.666   6.692  13.972 -0.3475  0.1107  0.0820
 2736TIP3    H129699   4.603   6.654  13.911 -0.7801 -0.0361  0.6161
 2736TIP3    H229700   4.674   6.783  13.945 -0.8305  0.1440  0.0540
 2737TIP3   OH229701   2.264   6.537   4.758 -0.0030  0.1707 -0.5166
 2737TIP3    H129702   2.201   6.609   4.766  0.1885  0.5823 -2.3741
 2737TIP3    H229703   2.346   6.573   4.792 -0.6598 -0.3090  1.7414
 2738TIP3   OH229704   4.388   6.079   0.187 -0.1554 -0.1233 -1.0917
 2738TIP3    H129705   4.407   6.170   0.211  0.5713 -0.5376 -0.0530
 2738TIP3    H229706   4.335   6.087   0.108 -1.6145  1.2585 -0.0416
 2739TIP3   OH229707   4.493   1.315  16.907 -0.0679  0.1863  0.6236
 2739TIP3    H129708   4.542   1.244  16.948  1.6827  1.1629  0.2876
 2739TIP3    H229709   4.552   1.351  16.841 -1.1567  1.5513  0.3449
 2740TIP3   OH229710   3.894   0.548   0.088 -0.2497  0.2949 -0.3063
 2740TIP3    H129711   3.934   0.485   0.148  2.1197 -1.5004 -3.5030
 2740TIP3    H229712   3.809   0.509   0.066 -0.4981  0.2411  0.6861
 2741TIP3   OH229713   3.828   6.708  13.076  0.8392 -0.0292  0.4187
 2741TIP3    H129714   3.869   6.645  13.017  0.4439 -1.1873  1.3451
 2741TIP3    H229715   3.756   6.660  13.116  0.1756  1.1869  0.7471
 2742TIP3   OH229716   6.729   2.478   5.057  0.4973 -0.2532  0.5455
 2742TIP3    H129717   6.793   2.461   4.989  0.0777 -0.2220  0.1396
 2742TIP3    H229718   6.688   2.561   5.032 -0.2643 -0.6760  0.3677
 2743TIP3   OH229719   3.008   0.672   0.008 -0.1736 -0.1435  0.5487
 2743TIP3    H129720   3.034   0.613  -0.062 -0.4360  0.4767 -0.0745
 2743TIP3    H229721   2.914   0.684  -0.003 -0.0937  0.5272  0.5666
 2744TIP3   OH229722   5.845   5.412   0.633 -0.1821 -0.0285  0.1847
 2744TIP3    H129723   5.806   5.366   0.559 -0.8983  1.6563 -0.5188
 2744TIP3    H229724   5.904   5.347   0.673 -1.4517 -1.6698 -0.4967
 2745TIP3   OH229725   3.692   2.225   6.010 -0.4942 -1.0901  0.4822
 2745TIP3    H129726   3.743   2.259   6.084 -2.0032 -0.0450  1.1082
 2745TIP3    H229727   3.607   2.203   6.049 -1.6957  0.4729 -1.0766
 2746TIP3   OH229728   3.171   0.746   4.709 -0.2709 -0.0563  0.0252
 2746TIP3    H129729   3.108   0.817   4.699  0.5842  0.5401 -1.5145
 2746TIP3    H229730   3.136   0.692   4.779 -1.4812  1.3158  0.5159
 2747TIP3   OH229731   3.141   1.078   6.690  0.1887 -0.1064 -0.4451
 2747TIP3    H129732   3.084   1.119   6.625  1.1090  1.0838 -0.5330
 2747TIP3    H229733   3.120   1.123   6.772  2.4805  1.9853 -0.8667
 2748TIP3   OH229734   2.875   0.782  14.117 -0.1563  0.0233  0.5969
 2748TIP3    H129735   2.806   0.801  14.181 -1.2141 -0.8835 -0.2374
 2748TIP3    H229736   2.854   0.839  14.042  1.3152  1.3926  1.1679
 2749TIP3   OH229737   2.375   2.836  13.602  0.6651 -0.5005  0.7346
 2749TIP3    H129738   2.370   2.922  13.643  0.6349 -0.7308  1.2181
 2749TIP3    H229739   2.322   2.845  13.523  0.3245 -0.1913  0.9915
 2750TIP3   OH229740   6.092   1.044  13.745  0.0115  0.4790 -0.5150
 2750TIP3    H129741   6.115   1.089  13.827 -0.5863  0.5172 -0.3573
 2750TIP3    H229742   6.062   0.957  13.774  2.3549 -0.5213 -0.9125
 2751TIP3   OH229743   1.469   4.997   1.924 -0.0909 -0.7547  0.1815
 2751TIP3    H129744   1.429   5.046   1.852  1.2908  0.4526  0.1989
 2751TIP3    H229745   1.427   5.033   2.003  0.3972 -0.1052  0.1478
 2752TIP3   OH229746   5.191   3.623   2.083  0.2547  0.2460  0.4277
 2752TIP3    H129747   5.173   3.683   2.156 -0.2584  1.0680 -0.3553
 2752TIP3    H229748   5.246   3.674   2.024 -0.5272  0.1078 -0.4453
 2753TIP3   OH229749   4.108   0.768   4.673 -0.2177  0.1187  0.8062
 2753TIP3    H129750   4.098   0.819   4.593  2.3828  0.4232  0.5951
 2753TIP3    H229751   4.083   0.827   4.744  0.7527  1.0124  0.4217
 2754TIP3   OH229752   0.082   6.029  15.188 -0.0535  0.2450  0.4354
 2754TIP3    H129753   0.084   6.124  15.185  1.7729  0.2683 -3.4903
 2754TIP3    H229754   0.166   6.004  15.226  0.3678  0.2438 -0.4779
 2755TIP3   OH229755   3.919   2.343   3.812  0.1440  0.0614 -0.8393
 2755TIP3    H129756   3.964   2.426   3.796  0.8914 -0.2746 -0.5682
 2755TIP3    H229757   3.917   2.336   3.907  0.4775 -0.4324 -0.8664
 2756TIP3   OH229758   1.234   2.466  17.078  0.3219  0.4140  0.0897
 2756TIP3    H129759   1.166   2.533  17.087 -0.3681 -0.4202  1.6877
 2756TIP3    H229760   1.303   2.507  17.027 -1.1730  1.4640 -1.1548
 2757TIP3   OH229761   5.232   0.814   1.151  0.1127  0.5026  0.0224
 2757TIP3    H129762   5.149   0.822   1.104 -0.5296 -1.3475  0.7200
 2757TIP3    H229763   5.207   0.803   1.242  1.1941  1.0861  0.4098
 2758TIP3   OH229764   2.995   3.929   4.553 -0.4989  0.4627  0.4640
 2758TIP3    H129765   3.004   3.973   4.637  0.8312 -0.0360  0.6008
 2758TIP3    H229766   3.011   3.837   4.572  0.6415  0.4503 -0.4532
 2759TIP3   OH229767   6.441   3.052   0.578 -0.4531 -0.0529  0.3127
 2759TIP3    H129768   6.384   2.982   0.611 -0.7343 -0.0198 -0.0987
 2759TIP3    H229769   6.413   3.066   0.487  0.0061  0.1776  0.2034
 2760TIP3   OH229770   0.304   4.538  11.329 -0.4093 -0.1910  0.0668
 2760TIP3    H129771   0.399   4.528  11.336 -0.2035  1.0158 -0.6626
 2760TIP3    H229772   0.270   4.451  11.348  0.8368 -0.6282  0.4313
 2761TIP3   OH229773   5.939   3.658   5.844  0.4187 -0.0718  0.0010
 2761TIP3    H129774   5.887   3.715   5.900 -1.0718  0.1312 -1.5325
 2761TIP3    H229775   5.931   3.571   5.883  1.2520  0.4146  1.3349
 2762TIP3   OH229776   3.011   2.547  15.754 -0.1502  0.3914 -1.0561
 2762TIP3    H129777   2.991   2.620  15.814 -0.5177 -0.6813  0.1775
 2762TIP3    H229778   2.985   2.579  15.668 -2.2972  0.9643 -0.2457
 2763TIP3   OH229779   4.911   0.624  16.635 -0.0000 -0.3598  0.2945
 2763TIP3    H129780   4.836   0.681  16.615 -0.9448 -1.6781 -0.0980
 2763TIP3    H229781   4.988   0.675  16.608 -0.7851  0.7928  0.1440
 2764TIP3   OH229782   3.822   0.080  13.687 -0.0519 -0.3628 -0.4134
 2764TIP3    H129783   3.800   0.173  13.679  1.9960  0.3371  1.1549
 2764TIP3    H229784   3.768   0.036  13.621 -1.5303  1.8469 -0.7662
 2765TIP3   OH229785   3.442   3.299   3.413  1.0283 -0.2376  0.5569
 2765TIP3    H129786   3.489   3.381   3.396  0.6317  0.1623  1.3091
 2765TIP3    H229787   3.485   3.262   3.490  0.0882  0.1808  1.3171
 2766TIP3   OH229788   3.007   2.365   2.335  0.1099  0.5612  0.0262
 2766TIP3    H129789   3.042   2.365   2.246 -0.2129 -0.9204 -0.1260
 2766TIP3    H229790   2.931   2.306   2.330  0.0196  0.5660  1.2543
 2767TIP3   OH229791   1.986   1.966   3.066  0.1971  0.3049  0.1637
 2767TIP3    H129792   2.018   2.008   3.146  2.2279  0.0915 -0.4676
 2767TIP3    H229793   2.057   1.909   3.039 -0.4687  0.3003 -1.7436
 2768TIP3   OH229794   0.597   4.323  14.363 -0.3403 -0.3649 -0.1458
 2768TIP3    H129795   0.587   4.267  14.286  0.0170  1.0028 -1.2170
 2768TIP3    H229796   0.520   4.380  14.361  1.0795  1.6451 -1.2064
 2769TIP3   OH229797   2.804   1.491  13.823  0.0106 -0.0890 -0.4062
 2769TIP3    H129798   2.839   1.544  13.894  0.2666  1.0767 -1.3667
 2769TIP3    H229799   2.730   1.542  13.789  1.3681  0.6177 -2.5223
 2770TIP3   OH229800   5.196   0.643   2.202 -0.4171 -0.1983 -0.0433
 2770TIP3    H129801   5.279   0.683   2.228 -0.1842 -0.2382 -0.7113
 2770TIP3    H229802   5.162   0.701   2.133 -1.2207  0.1299  0.6095
 2771TIP3   OH229803   2.961   2.602  16.658 -0.2502  0.1934 -0.3254
 2771TIP3    H129804   2.873   2.640  16.669 -0.6274 -0.7038 -0.1753
 2771TIP3    H229805   2.949   2.532  16.594  0.2122 -0.4308  0.2622
 2772TIP3   OH229806   3.075   3.960   0.419 -1.1274  0.3388 -0.3636
 2772TIP3    H129807   3.118   3.969   0.335  1.7786  0.5591  1.0437
 2772TIP3    H229808   3.074   3.865   0.435  1.9979  0.4145  0.9922
 2773TIP3   OH229809   0.611   0.220   2.970  0.5086 -0.0580  0.1403
 2773TIP3    H129810   0.635   0.132   2.998  0.8684  0.3415  1.1705
 2773TIP3    H229811   0.516   0.224   2.982  0.4767 -0.3375 -0.0114
 2774TIP3   OH229812   2.527   6.219   4.519 -0.1158 -0.4784  0.5900
 2774TIP3    H129813   2.433   6.239   4.521 -0.1419 -0.6275  1.2125
 2774TIP3    H229814   2.531   6.125   4.499 -0.0171 -0.0476 -1.6113
 2775TIP3   OH229815   1.869   2.229   2.454 -0.7881 -0.1323 -0.4303
 2775TIP3    H129816   1.951   2.271   2.428  0.0921 -0.0430  2.2057
 2775TIP3    H229817   1.871   2.143   2.411  0.3935  0.0880 -0.8442
 2776TIP3   OH229818   6.458   1.302  16.711 -0.0829  0.1008 -0.6036
 2776TIP3    H129819   6.375   1.266  16.743 -1.1491  1.7448 -1.3674
 2776TIP3    H229820   6.450   1.300  16.616 -0.9885  3.7863 -0.7675
 2777TIP3   OH229821   6.796   1.328  11.427  0.3476 -0.2376  0.1863
 2777TIP3    H129822   6.789   1.271  11.351  0.6208 -0.4322  0.3030
 2777TIP3    H229823   6.771   1.273  11.501 -0.2861  0.0592  0.1942
 2778TIP3   OH229824   4.724   5.199   6.259  0.3021 -0.1725 -0.0242
 2778TIP3    H129825   4.641   5.236   6.230  1.5525  1.1538 -2.2480
 2778TIP3    H229826   4.779   5.275   6.278  1.1055 -1.0117  1.2205
 2779TIP3   OH229827   0.635   6.482   6.071 -0.0257 -0.0986  0.0033
 2779TIP3    H129828   0.619   6.536   5.993  0.6203 -2.0128 -1.5299
 2779TIP3    H229829   0.547   6.463   6.104 -0.2731  1.9765  0.7159
 2780TIP3   OH229830   0.932   2.994   6.787 -0.3027  0.0092 -0.4663
 2780TIP3    H129831   0.895   3.078   6.758  1.7776  1.2254  0.1965
 2780TIP3    H229832   1.010   2.984   6.733  0.7929 -0.2745  1.1329
 2781TIP3   OH229833   1.604   6.335   5.785  0.2542  0.1071 -0.0544
 2781TIP3    H129834   1.647   6.417   5.809 -0.0899  0.3623 -0.2851
 2781TIP3    H229835   1.554   6.310   5.863  2.0025 -0.9981  0.7487
 2782TIP3   OH229836   2.589   6.183   3.696 -0.5324 -0.0966  0.3086
 2782TIP3    H129837   2.621   6.186   3.786 -0.3337 -0.6112  0.2572
 2782TIP3    H229838   2.609   6.270   3.661  2.4092 -0.8896 -0.2541
 2783TIP3   OH229839   5.624   6.839   3.125 -0.2298  0.5055  0.1211
 2783TIP3    H129840   5.691   6.900   3.095 -0.9741  2.3337  1.8958
 2783TIP3    H229841   5.552   6.850   3.063  0.7772 -0.9998 -1.4167
 2784TIP3   OH229842   2.854   0.961  15.008 -0.2558  0.4953  0.6882
 2784TIP3    H129843   2.938   0.917  14.993 -0.7577 -0.5632  0.9101
 2784TIP3    H229844   2.788   0.892  14.995 -1.0490  1.1246  1.3041
 2785TIP3   OH229845   3.487   3.809   0.792 -0.6919  0.0828 -0.1052
 2785TIP3    H129846   3.566   3.759   0.817 -0.2844 -0.1533 -1.7565
 2785TIP3    H229847   3.521   3.892   0.760 -1.0847 -0.0846 -0.9819
 2786TIP3   OH229848   0.611   1.658  13.675  0.1919 -0.0443  0.3523
 2786TIP3    H129849   0.554   1.687  13.746  0.6649  0.4937  0.5204
 2786TIP3    H229850   0.685   1.720  13.676  0.3500 -0.2001 -0.4167
 2787TIP3   OH229851   1.164   2.768  15.796  0.1659  0.3113 -0.2537
 2787TIP3    H129852   1.134   2.780  15.886  0.0447  2.2968 -0.5005
 2787TIP3    H229853   1.216   2.688  15.798  1.9287  1.3947  2.0830
 2788TIP3   OH229854   4.079   1.205   2.334 -0.1545  0.3541 -0.0042
 2788TIP3    H129855   4.052   1.206   2.242 -1.0939  1.0847  0.2683
 2788TIP3    H229856   4.066   1.295   2.364  0.3555  0.1710  0.7896
 2789TIP3   OH229857   0.073   4.804  14.041 -0.7910  0.1963 -0.1436
 2789TIP3    H129858   0.059   4.741  13.970 -0.7766  0.3066 -0.2438
 2789TIP3    H229859  -0.009   4.853  14.046 -1.6335 -1.2492  1.3523
 2790TIP3   OH229860   2.641   3.789   1.743  0.0202 -0.5193 -0.1935
 2790TIP3    H129861   2.656   3.705   1.700 -0.0232 -0.6583  0.0586
 2790TIP3    H229862   2.608   3.765   1.830 -1.7882 -0.2310 -0.7579
 2791TIP3   OH229863   6.610   5.240  11.978  0.7512  0.0269 -0.1523
 2791TIP3    H129864   6.677   5.304  11.955  0.5434 -0.2389 -1.5300
 2791TIP3    H229865   6.542   5.251  11.912  2.1127 -3.7609 -2.5250
 2792TIP3   OH229866   6.030   5.461  12.584 -0.0944 -0.2996  0.6555
 2792TIP3    H129867   5.951   5.470  12.530  1.0544  0.4142 -0.9708
 2792TIP3    H229868   6.033   5.368  12.605 -0.6233 -0.6000 -0.4703
 2793TIP3   OH229869   4.539   3.619   2.348 -0.1827  0.4085  0.3783
 2793TIP3    H129870   4.507   3.556   2.412  1.5334 -1.9562 -0.9396
 2793TIP3    H229871   4.594   3.679   2.399  0.9781 -1.2876  1.2213
 2794TIP3   OH229872   3.636   1.483  14.161 -0.3659 -0.1864  0.6255
 2794TIP3    H129873   3.615   1.573  14.139 -0.5564 -0.5233 -0.6742
 2794TIP3    H229874   3.552   1.443  14.181 -0.2568 -0.0290  1.4240
 2795TIP3   OH229875   1.109   4.009   4.994 -0.1665  0.1636 -0.2703
 2795TIP3    H129876   1.174   3.996   5.063  0.6806  0.9559 -0.8974
 2795TIP3    H229877   1.088   3.920   4.965  0.1388 -0.1351  0.4043
 2796TIP3   OH229878   4.163   2.243   1.762  0.3792 -0.7871 -0.0618
 2796TIP3    H129879   4.157   2.335   1.735 -0.8107 -0.8723 -0.1447
 2796TIP3    H229880   4.256   2.221   1.751  0.4722  0.0526 -1.2068
 2797TIP3   OH229881   5.218   6.154  16.020  0.3427 -0.2822 -0.2866
 2797TIP3    H129882   5.287   6.087  16.012 -0.1894 -0.5820 -3.2279
 2797TIP3    H229883   5.150   6.125  15.960 -1.0439  1.5986  0.3140
 2798TIP3   OH229884   2.209   5.247  15.823  0.3731 -0.3170 -0.3379
 2798TIP3    H129885   2.170   5.187  15.887 -0.4603  0.8742  0.3152
 2798TIP3    H229886   2.272   5.193  15.775  1.3907 -1.1691  1.7910
 2799TIP3   OH229887   1.638   2.095  15.455 -0.4642  0.1302  0.1146
 2799TIP3    H129888   1.732   2.105  15.471 -0.4172 -0.5781  0.3161
 2799TIP3    H229889   1.603   2.184  15.461  0.2135  0.4211 -0.1148
 2800TIP3   OH229890   1.530   6.045  13.096  0.1610  0.1447 -0.3138
 2800TIP3    H129891   1.568   6.067  13.011  0.8978  1.4547  0.3318
 2800TIP3    H229892   1.605   6.039  13.155 -0.2923 -1.2260  0.1710
 2801TIP3   OH229893   1.331   1.971   3.993 -0.1870  0.0846 -0.4038
 2801TIP3    H129894   1.426   1.969   3.985  0.1223 -1.2068  2.4819
 2801TIP3    H229895   1.314   2.028   4.068 -1.8064  0.9739 -1.3636
 2802TIP3   OH229896   3.063   0.237   2.428 -0.0568  0.5247 -0.2542
 2802TIP3    H129897   2.995   0.300   2.404 -0.0542  1.0984  1.1843
 2802TIP3    H229898   3.031   0.153   2.395 -0.7991  1.0087 -0.8020
 2803TIP3   OH229899   4.617   3.513   5.786 -0.1725 -0.3367  0.4367
 2803TIP3    H129900   4.560   3.590   5.783 -0.6911 -0.7188  0.2444
 2803TIP3    H229901   4.659   3.516   5.872  0.1618  0.4081  0.2507
 2804TIP3   OH229902   2.547   5.005  10.478  0.1300  0.3646 -0.0801
 2804TIP3    H129903   2.626   4.985  10.429  1.7694 -0.5663  2.7236
 2804TIP3    H229904   2.548   4.944  10.552 -1.2953  2.6467  1.9981
 2805TIP3   OH229905   0.132   6.373   6.168 -0.1801  0.2031 -0.2808
 2805TIP3    H129906   0.120   6.467   6.156  0.2314  0.2359 -0.4759
 2805TIP3    H229907   0.098   6.356   6.255 -1.7862  0.2341 -0.8710
 2806TIP3   OH229908   2.539   5.539  11.095  0.1078 -0.2707 -0.3402
 2806TIP3    H129909   2.576   5.626  11.110 -1.4524  0.0655  2.3654
 2806TIP3    H229910   2.549   5.524  11.001  1.9113  2.0976 -0.6266
 2807TIP3   OH229911   3.253   4.879   5.400  0.2111 -0.2859 -0.3720
 2807TIP3    H129912   3.341   4.870   5.363  0.4809  0.5181  0.0601
 2807TIP3    H229913   3.230   4.971   5.385 -0.0827 -0.2005  0.5608
 2808TIP3   OH229914   5.280   0.342   4.030 -0.1781  0.0231 -0.5563
 2808TIP3    H129915   5.207   0.402   4.042 -0.0416 -0.1065  1.1632
 2808TIP3    H229916   5.252   0.261   4.073  0.7117 -0.2260 -0.4183
 2809TIP3   OH229917   2.366   5.687  16.535  0.2101  0.3011 -0.3959
 2809TIP3    H129918   2.456   5.720  16.529 -0.1531  1.8848  1.7800
 2809TIP3    H229919   2.356   5.632  16.458  1.9762  2.6659 -2.4808
 2810TIP3   OH229920   5.939   0.741  14.784 -0.5125  0.4084  0.6789
 2810TIP3    H129921   6.007   0.716  14.847 -1.2917 -0.1672  1.3208
 2810TIP3    H229922   5.987   0.764  14.705  0.4223 -0.1452  1.0618
 2811TIP3   OH229923   6.670   2.176   5.647 -0.3636  0.1442 -0.0431
 2811TIP3    H129924   6.686   2.213   5.734 -0.6887  0.4217 -0.0967
 2811TIP3    H229925   6.613   2.240   5.605 -0.8616 -0.3797 -0.1730
 2812TIP3   OH229926   1.151   4.249  11.810  0.3684 -0.4861  0.0604
 2812TIP3    H129927   1.109   4.265  11.725 -0.0329 -2.1808 -0.0813
 2812TIP3    H229928   1.114   4.316  11.867  1.5771  1.5218 -1.3503
 2813TIP3   OH229929   0.186   5.457   1.353 -0.1290 -0.2653 -0.0875
 2813TIP3    H129930   0.234   5.390   1.402  2.1584  0.3205 -1.3772
 2813TIP3    H229931   0.231   5.539   1.375 -0.6914  0.3555 -1.1883
 2814TIP3   OH229932   6.538   3.803  12.173 -0.2154 -0.1147  0.0680
 2814TIP3    H129933   6.592   3.749  12.116  0.4779 -0.6474  1.1852
 2814TIP3    H229934   6.521   3.747  12.249 -0.2326  0.9236  0.8561
 2815TIP3   OH229935   6.219   1.223   0.063  0.1423  0.0556 -0.4377
 2815TIP3    H129936   6.306   1.237   0.099  0.8867  0.6403 -2.3637
 2815TIP3    H229937   6.179   1.310   0.063 -0.2958 -0.1423  0.0621
 2816TIP3   OH229938   0.961   4.847   0.552  0.0865  0.0197  0.5160
 2816TIP3    H129939   0.986   4.899   0.629  0.4620  0.9818 -0.2294
 2816TIP3    H229940   0.878   4.886   0.523  0.6075  0.5472 -0.3261
 2817TIP3   OH229941   3.812   4.053  12.129 -0.0786  0.0007  0.0339
 2817TIP3    H129942   3.850   4.039  12.042 -3.4332 -1.4575 -1.3388
 2817TIP3    H229943   3.855   3.988  12.185 -0.8616 -1.9958 -1.5786
 2818TIP3   OH229944   6.438   0.606  13.957  0.1773 -0.2452 -0.0809
 2818TIP3    H129945   6.530   0.608  13.930 -0.2198  1.3999 -1.4323
 2818TIP3    H229946   6.425   0.688  14.005 -0.8940  0.1706 -1.0447
 2819TIP3   OH229947   1.441   1.521   2.385  0.5180 -0.4617  0.5662
 2819TIP3    H129948   1.381   1.492   2.317  0.6433 -1.4063  0.8521
 2819TIP3    H229949   1.490   1.592   2.344  0.5665 -0.9872 -0.3171
 2820TIP3   OH229950   5.187   0.689  16.544  0.0498 -0.6953  0.4160
 2820TIP3    H129951   5.181   0.696  16.449 -0.0129  0.8829  0.5033
 2820TIP3    H229952   5.275   0.655  16.560  1.2726  1.9315 -0.1740
 2821TIP3   OH229953   0.053   3.731  13.902  0.3354  0.4190 -0.0075
 2821TIP3    H129954  -0.013   3.708  13.837  1.1259  1.6979 -1.3255
 2821TIP3    H229955   0.002   3.757  13.979 -0.6900  0.7732 -0.7765
 2822TIP3   OH229956   2.539   2.522  11.864 -0.0312  0.0795  0.1161
 2822TIP3    H129957   2.478   2.460  11.822 -0.4498  0.1397  0.6225
 2822TIP3    H229958   2.624   2.478  11.862 -0.0502  0.0746 -0.7751
 2823TIP3   OH229959   3.733   0.130  16.209 -0.1913  0.1599  0.1359
 2823TIP3    H129960   3.711   0.183  16.132 -1.4773 -0.4267  0.0746
 2823TIP3    H229961   3.824   0.151  16.227 -0.4621  1.8581 -0.3053
 2824TIP3   OH229962   1.035   3.190  14.299  0.0839  0.2843  0.3206
 2824TIP3    H129963   1.086   3.206  14.379 -2.0292  0.4789  1.7347
 2824TIP3    H229964   1.075   3.113  14.260  1.0048 -0.0008  1.7446
 2825TIP3   OH229965   4.126   3.217   0.077  0.1266  0.6198  0.5400
 2825TIP3    H129966   4.191   3.287   0.067  2.9181 -1.8343  0.2038
 2825TIP3    H229967   4.144   3.180   0.163  2.1318 -2.6980 -1.0977
 2826TIP3   OH229968   3.908   2.837  12.045 -0.5470 -0.2774  0.0421
 2826TIP3    H129969   3.945   2.908  12.099 -2.0886  0.9750 -0.4918
 2826TIP3    H229970   3.984   2.782  12.025  0.6217  0.9266  0.8930
 2827TIP3   OH229971   6.537   0.840   2.886  0.0102  0.0761  0.7057
 2827TIP3    H129972   6.549   0.749   2.857  1.7992  0.7207 -0.7375
 2827TIP3    H229973   6.540   0.835   2.982  1.0479 -1.2946  0.6369
 2828TIP3   OH229974   4.068   4.637  16.516 -0.0441 -0.4046  0.2484
 2828TIP3    H129975   3.987   4.674  16.551  0.3985  1.6976 -0.7749
 2828TIP3    H229976   4.118   4.713  16.486  0.0886 -1.8496 -3.8200
 2829TIP3   OH229977   5.939   5.092   0.500  0.2737 -0.5539 -0.4849
 2829TIP3    H129978   5.942   5.049   0.586  1.4522  2.0619  0.8937
 2829TIP3    H229979   6.028   5.085   0.466 -0.1649 -1.4916 -1.5094
 2830TIP3   OH229980   3.755   5.582  11.688  0.0735 -0.1115 -0.1872
 2830TIP3    H129981   3.696   5.606  11.759 -0.6935 -1.4249 -0.3334
 2830TIP3    H229982   3.737   5.489  11.672  0.9930 -0.1205 -1.3740
 2831TIP3   OH229983   1.709   5.449   3.090 -0.1012  0.5382 -0.7001
 2831TIP3    H129984   1.735   5.393   3.017 -1.6758 -0.1518 -0.7766
 2831TIP3    H229985   1.731   5.538   3.062 -3.0235  0.6187 -3.2185
 2832TIP3   OH229986   5.826   3.334   5.394 -0.1035  0.6971  0.3791
 2832TIP3    H129987   5.773   3.263   5.359 -0.7065  0.7811  1.1002
 2832TIP3    H229988   5.781   3.361   5.474  1.0384  0.7451  1.0334
 2833TIP3   OH229989   6.842   1.946  13.416 -0.1298 -0.4552  0.3117
 2833TIP3    H129990   6.802   1.862  13.438 -1.3572  0.7723  3.4682
 2833TIP3    H229991   6.925   1.947  13.463 -0.3288  0.2502  0.6651
 2834TIP3   OH229992   3.368   0.737  15.664 -0.1707 -0.3409 -0.6222
 2834TIP3    H129993   3.332   0.824  15.686 -2.5024 -1.2207 -0.6302
 2834TIP3    H229994   3.460   0.753  15.643 -0.6526  2.1899 -1.0739
 2835TIP3   OH229995   1.400   4.740   4.579 -0.0839  0.4940  0.2188
 2835TIP3    H129996   1.366   4.650   4.579  0.2702  0.3194  1.8481
 2835TIP3    H229997   1.476   4.736   4.637 -0.5921  2.0444  1.0396
 2836TIP3   OH229998   5.179   1.441   6.173 -0.4599 -0.3633 -0.0013
 2836TIP3    H129999   5.178   1.358   6.221 -1.2139 -0.8076 -0.7577
 2836TIP3    H230000   5.259   1.484   6.202 -0.7561 -0.7242  1.4639
 2837TIP3   OH230001   4.816   1.827  15.291  0.1253  0.5859 -0.3304
 2837TIP3    H130002   4.782   1.738  15.282  2.3949 -0.3857 -0.0180
 2837TIP3    H230003   4.853   1.847  15.205  2.0213  0.0955  0.3187
 2838TIP3   OH230004   5.487   5.644   3.262  0.0864  0.6188  0.4931
 2838TIP3    H130005   5.458   5.730   3.292  0.3099  0.9434 -0.2081
 2838TIP3    H230006   5.473   5.587   3.337 -0.4137  1.1911  0.8473
 2839TIP3   OH230007   5.000   5.266  15.622 -0.0182 -0.1520  0.2594
 2839TIP3    H130008   5.076   5.277  15.679 -0.3739  0.2106  0.6750
 2839TIP3    H230009   5.037   5.263  15.533  0.4480  0.4234  0.4257
 2840TIP3   OH230010   6.482   0.134   3.861  0.0236 -0.2754  0.5603
 2840TIP3    H130011   6.441   0.062   3.814 -0.0578 -0.2104  0.5311
 2840TIP3    H230012   6.558   0.095   3.904 -0.3948 -0.5192  1.0913
 2841TIP3   OH230013   3.521   2.670  14.534 -0.0047  0.9402  0.3631
 2841TIP3    H130014   3.480   2.587  14.511  1.3182  0.0318  1.1303
 2841TIP3    H230015   3.601   2.672  14.482  0.8863  0.8401  1.6772
 2842TIP3   OH230016   1.908   2.044   0.971 -0.0684  0.1739  0.3520
 2842TIP3    H130017   1.975   1.987   1.007 -0.0844 -0.2765 -0.3301
 2842TIP3    H230018   1.956   2.121   0.941  0.1099 -0.0416  0.0861
 2843TIP3   OH230019   1.619   2.832  12.090 -0.1979  0.0846 -0.0626
 2843TIP3    H130020   1.616   2.802  12.181  0.2448  0.0356 -0.0645
 2843TIP3    H230021   1.551   2.781  12.046  0.6207 -1.0150 -0.0918
 2844TIP3   OH230022   3.675   5.935  16.731 -0.0171  0.2915  0.0962
 2844TIP3    H130023   3.654   5.847  16.760 -1.0812  0.5099  0.0284
 2844TIP3    H230024   3.648   5.991  16.804  2.4886  0.4610  1.0103
 2845TIP3   OH230025   4.889   2.972   1.593  0.1618  0.9230 -0.0780
 2845TIP3    H130026   4.931   2.913   1.655 -0.6452  0.6861  0.2638
 2845TIP3    H230027   4.815   2.922   1.559  0.6011  1.0512 -1.2543
 2846TIP3   OH230028   6.344   0.241   6.169 -0.1403 -0.0825 -0.6020
 2846TIP3    H130029   6.340   0.157   6.125 -0.3490 -0.2731 -0.2206
 2846TIP3    H230030   6.269   0.241   6.228 -1.0571  0.9885 -1.6947
 2847TIP3   OH230031   5.284   5.704   2.100  0.5574 -0.0749  0.3181
 2847TIP3    H130032   5.361   5.740   2.143  1.4044  1.0378 -1.9729
 2847TIP3    H230033   5.257   5.771   2.037  1.0773 -2.5725 -2.8134
 2848TIP3   OH230034   4.081   3.720   1.805 -0.7809  0.2829 -0.0259
 2848TIP3    H130035   4.140   3.771   1.860  1.4698 -2.9931  0.8874
 2848TIP3    H230036   4.114   3.733   1.716  0.3249 -0.2050  0.2940
 2849TIP3   OH230037   4.154   5.906  14.357 -0.4196 -0.0833 -0.0142
 2849TIP3    H130038   4.064   5.874  14.357 -1.4895  2.6400 -0.0497
 2849TIP3    H230039   4.195   5.864  14.433 -1.5423 -1.7676 -0.3067
 2850TIP3   OH230040   3.139   2.636  14.157 -0.2665  0.1131 -0.3575
 2850TIP3    H130041   3.146   2.660  14.064  0.4473 -0.8690 -0.5655
 2850TIP3    H230042   3.126   2.542  14.157  2.1202 -0.2853  0.5957
 2851TIP3   OH230043   5.576   3.885  16.157  0.8640  0.2703  0.3662
 2851TIP3    H130044   5.496   3.866  16.107  0.8891 -2.4194  1.1565
 2851TIP3    H230045   5.634   3.927  16.094 -1.2306  2.6230 -0.1565
 2852TIP3   OH230046   1.243   1.585   1.055 -0.5104 -0.6463  0.4053
 2852TIP3    H130047   1.204   1.671   1.071 -0.6767 -0.7335  0.4708
 2852TIP3    H230048   1.231   1.538   1.138 -0.4850 -0.7581  0.3451
 2853TIP3   OH230049   4.993   3.860  13.635  0.2962 -0.3921  0.7306
 2853TIP3    H130050   4.901   3.887  13.632  0.3858 -0.1605 -0.8005
 2853TIP3    H230051   5.004   3.821  13.721 -0.9391  0.6250  1.3795
 2854TIP3   OH230052   3.246   5.126  14.902 -0.5015  0.1455 -0.1190
 2854TIP3    H130053   3.180   5.147  14.968 -0.2182 -1.6766  0.8227
 2854TIP3    H230054   3.244   5.200  14.841 -1.0257  1.7328  1.7134
 2855TIP3   OH230055   3.103   3.315   2.119  0.0129  0.5114 -0.2028
 2855TIP3    H130056   3.083   3.231   2.161  1.0231 -0.4552 -1.5505
 2855TIP3    H230057   3.081   3.301   2.027 -0.1799  1.8772 -0.3791
 2856TIP3   OH230058   6.606   1.757  15.793 -0.0615  0.0708  0.1690
 2856TIP3    H130059   6.631   1.731  15.704 -0.4264  1.0728 -0.2387
 2856TIP3    H230060   6.689   1.780  15.835  0.3558 -2.2801  0.7531
 2857TIP3   OH230061   4.755   0.310  12.462  0.1134  0.2601 -0.0698
 2857TIP3    H130062   4.698   0.371  12.415 -1.5996  0.6169  2.2800
 2857TIP3    H230063   4.761   0.346  12.551  3.2691 -0.3181  0.0533
 2858TIP3   OH230064   4.728   0.800   3.013 -0.3413  0.5756  0.1340
 2858TIP3    H130065   4.678   0.880   3.001  0.0396  0.6334 -1.3037
 2858TIP3    H230066   4.754   0.774   2.924 -0.0965 -0.9070  0.6047
 2859TIP3   OH230067   2.863   3.989   6.311  0.0706  0.0425 -0.3619
 2859TIP3    H130068   2.887   3.977   6.403 -2.0685  2.7196  0.6878
 2859TIP3    H230069   2.811   3.911   6.290  2.8457 -1.9608 -0.2915
 2860TIP3   OH230070   4.928   4.202  14.136  0.6604 -0.4685 -0.0622
 2860TIP3    H130071   4.859   4.138  14.155  1.4720 -1.2494  0.3105
 2860TIP3    H230072   4.904   4.279  14.188 -0.3347 -0.4466 -0.5306
 2861TIP3   OH230073   2.314   2.514   0.646 -0.1875 -0.4655 -0.2059
 2861TIP3    H130074   2.367   2.436   0.627  0.3444  0.0738 -1.0177
 2861TIP3    H230075   2.373   2.570   0.697  0.3969  0.5144 -1.8404
 2862TIP3   OH230076   2.994   6.386  10.195  0.0183 -0.0444  0.0389
 2862TIP3    H130077   3.050   6.322  10.239  0.0570 -0.2086 -0.2451
 2862TIP3    H230078   3.017   6.470  10.235 -1.3214 -0.4237  1.7130
 2863TIP3   OH230079   4.256   0.729  12.522 -0.4228  0.2355 -0.0066
 2863TIP3    H130080   4.321   0.782  12.568  0.6625 -1.0768  0.0068
 2863TIP3    H230081   4.212   0.679  12.591 -0.6153  0.2122 -0.1436
 2864TIP3   OH230082   0.661   3.142  14.493 -0.0644 -0.0439 -0.2502
 2864TIP3    H130083   0.576   3.161  14.453  0.4817 -0.7610 -1.8514
 2864TIP3    H230084   0.705   3.087  14.429  1.2459 -0.4817  0.9847
 2865TIP3   OH230085   1.237   2.434   5.003  0.0606  0.1525 -0.0636
 2865TIP3    H130086   1.250   2.417   4.910  0.6165 -0.2942  0.0924
 2865TIP3    H230087   1.200   2.353   5.038 -0.3002  0.3748  0.0786
 2866TIP3   OH230088   1.555   2.501  12.325  0.1750  0.6511 -0.1416
 2866TIP3    H130089   1.588   2.449  12.398 -1.2105 -0.0533  0.0270
 2866TIP3    H230090   1.553   2.440  12.251 -0.5946  0.7023 -0.1749
 2867TIP3   OH230091   1.644   1.123   2.791  0.1785  0.6569  0.4366
 2867TIP3    H130092   1.689   1.059   2.845 -1.1015  0.8636  1.7934
 2867TIP3    H230093   1.552   1.093   2.789  0.4045 -0.2527 -2.9670
 2868TIP3   OH230094   3.903   1.382   4.846 -0.1683  0.2636 -0.2189
 2868TIP3    H130095   3.910   1.430   4.764 -0.6531  0.5291 -0.1069
 2868TIP3    H230096   3.818   1.408   4.883  0.7919  1.5455  1.2433
 2869TIP3   OH230097   1.313   3.031   5.184 -0.2331  0.3219  0.6591
 2869TIP3    H130098   1.296   3.009   5.276 -1.7613 -0.1416  0.2919
 2869TIP3    H230099   1.226   3.049   5.147  0.5178  2.5614 -0.2112
 2870TIP3   OH230100   4.744   0.903   5.013 -0.0829  0.5569 -0.0154
 2870TIP3    H130101   4.812   0.934   5.073 -0.0750 -1.6445  1.2090
 2870TIP3    H230102   4.664   0.947   5.043  0.2982  1.0651  0.2754
 2871TIP3   OH230103   5.191   3.916  14.145 -0.2849 -0.0877  0.1379
 2871TIP3    H130104   5.156   3.925  14.234  0.0634 -0.0239  0.2674
 2871TIP3    H230105   5.146   3.838  14.110  1.7101 -1.9044  1.3954
 2872TIP3   OH230106   0.412   0.054   3.881 -0.1980 -0.0981  0.1019
 2872TIP3    H130107   0.357   0.030   3.806  1.9307 -0.3893 -1.4789
 2872TIP3    H230108   0.406   0.150   3.885 -1.4130 -0.1684  0.4937
 2873TIP3   OH230109   0.532   0.329   1.323 -0.0284 -0.3042  0.7208
 2873TIP3    H130110   0.506   0.285   1.242  1.2416  0.3029 -0.0607
 2873TIP3    H230111   0.562   0.258   1.380 -0.5835 -0.7084  0.5168
 2874TIP3   OH230112   2.088   0.195  11.920  0.1480  0.1980  0.2356
 2874TIP3    H130113   2.145   0.125  11.889 -0.8699  0.0055 -1.3133
 2874TIP3    H230114   2.013   0.149  11.958 -0.5227  0.4085 -0.7840
 2875TIP3   OH230115   2.025   5.830  12.088  0.0432  0.6237 -0.7353
 2875TIP3    H130116   1.977   5.856  12.167 -0.4721  0.2878 -0.9320
 2875TIP3    H230117   2.018   5.735  12.086 -1.0705  0.7077 -1.8849
 2876TIP3   OH230118   5.104   2.047   2.002 -0.2782  0.3310 -0.5253
 2876TIP3    H130119   5.141   2.124   1.960  2.0204 -0.5132 -0.1850
 2876TIP3    H230120   5.055   2.081   2.076 -1.0342  1.5557 -1.5385
 2877TIP3   OH230121   3.012   1.175  12.129  0.1667  0.0292  0.0554
 2877TIP3    H130122   3.006   1.137  12.217 -1.7095  1.5951  0.6960
 2877TIP3    H230123   3.020   1.100  12.070  0.0612 -1.1345  1.4688
 2878TIP3   OH230124   1.480   2.656   1.254 -0.2462  0.8121  0.1060
 2878TIP3    H130125   1.442   2.568   1.250  0.7785  0.4046 -1.6952
 2878TIP3    H230126   1.409   2.711   1.286 -0.9364 -0.6394  1.1878
 2879TIP3   OH230127   0.416   0.346  12.897 -0.3582 -0.4113  0.2917
 2879TIP3    H130128   0.484   0.308  12.842  0.3112  2.6847 -1.2087
 2879TIP3    H230129   0.450   0.337  12.986  1.0092 -0.8234 -0.2502
 2880TIP3   OH230130   1.971   6.048  10.751  0.5355  0.4029  0.0574
 2880TIP3    H130131   1.908   6.050  10.679  1.2215  1.2776 -0.5327
 2880TIP3    H230132   2.035   5.981  10.725  1.2494  1.3112 -0.5590
 2881TIP3   OH230133   4.762   2.855  16.059 -0.5032  0.1662  0.4195
 2881TIP3    H130134   4.670   2.869  16.082 -0.4964  0.2810  0.3774
 2881TIP3    H230135   4.761   2.782  15.997 -0.5964  0.3820  0.1676
 2882TIP3   OH230136   5.318   5.135   1.486 -0.4074 -0.4750  0.3263
 2882TIP3    H130137   5.271   5.215   1.513  3.0397  2.0091 -0.4039
 2882TIP3    H230138   5.347   5.096   1.569 -1.2393 -0.4183  0.6561
 2883TIP3   OH230139   0.678   0.834  11.922 -0.2442  0.7013 -0.1480
 2883TIP3    H130140   0.710   0.779  11.994 -2.8711 -1.3493 -0.3995
 2883TIP3    H230141   0.589   0.857  11.947  0.0034  2.9835 -1.1568
 2884TIP3   OH230142   2.236   5.184  12.640  0.0802  0.0711  0.1153
 2884TIP3    H130143   2.174   5.249  12.610  1.1402  0.9474 -0.2429
 2884TIP3    H230144   2.185   5.126  12.697 -1.1958  0.3636 -0.7031
 2885TIP3   OH230145   4.753   2.073  16.825 -0.0094 -0.1758  0.0170
 2885TIP3    H130146   4.799   2.038  16.902  1.3716  2.2802  0.4273
 2885TIP3    H230147   4.822   2.115  16.774 -1.4391  1.4083 -0.6940
 2886TIP3   OH230148   4.374   0.708  15.058 -0.4202 -0.5750 -0.4613
 2886TIP3    H130149   4.346   0.800  15.053  0.5180 -0.2336  0.4083
 2886TIP3    H230150   4.466   0.712  15.084 -0.4772 -1.7792 -0.0320
 2887TIP3   OH230151   4.517   6.713   3.900 -0.1165 -0.5880  0.1781
 2887TIP3    H130152   4.444   6.744   3.954 -0.3944  1.6114 -1.3254
 2887TIP3    H230153   4.484   6.717   3.810  0.7490 -2.9577 -0.3159
 2888TIP3   OH230154   3.639   0.433  12.675 -0.2499 -0.0389 -0.0261
 2888TIP3    H130155   3.612   0.401  12.589  0.4527 -0.2733 -0.1736
 2888TIP3    H230156   3.560   0.432  12.728 -0.1233 -3.1017  0.3179
 2889TIP3   OH230157   1.827   6.843   1.923  0.1773 -0.1623 -0.5107
 2889TIP3    H130158   1.812   6.828   1.830  2.4335 -1.0707 -0.7946
 2889TIP3    H230159   1.848   6.756   1.958  3.6359  0.7080 -0.1066
 2890TIP3   OH230160   5.473   1.149   5.308 -0.0345 -0.0693 -0.4409
 2890TIP3    H130161   5.517   1.117   5.387  0.0607  2.3958  0.5910
 2890TIP3    H230162   5.419   1.075   5.279 -0.0294 -1.0857  1.8995
 2891TIP3   OH230163   6.104   1.298  16.529 -0.3459 -0.1548 -0.3538
 2891TIP3    H130164   6.146   1.234  16.588 -0.6657 -0.0636 -0.0207
 2891TIP3    H230165   6.143   1.382  16.553  2.3949 -0.5525 -2.8776
 2892TIP3   OH230166   5.139   4.672   2.918 -0.3940 -0.5647 -0.3109
 2892TIP3    H130167   5.156   4.580   2.935 -0.5916 -0.6681 -0.6838
 2892TIP3    H230168   5.169   4.686   2.828 -0.8446 -0.3851 -0.4335
 2893TIP3   OH230169   2.933   6.635  14.788 -0.3190 -0.6345 -0.2546
 2893TIP3    H130170   2.961   6.544  14.797 -0.8671 -0.8078 -0.2701
 2893TIP3    H230171   2.991   6.672  14.722  0.3377 -0.7887  0.2231
 2894TIP3   OH230172   2.603   3.289   5.278  0.0321 -0.0952 -0.2067
 2894TIP3    H130173   2.583   3.379   5.253  1.4383 -0.0309 -1.1530
 2894TIP3    H230174   2.517   3.248   5.291 -0.6615  1.8576  2.1527
 2895TIP3   OH230175   3.594   4.525  15.093 -0.5147  0.4160  0.1714
 2895TIP3    H130176   3.602   4.443  15.043  1.4206  0.4642  0.3402
 2895TIP3    H230177   3.558   4.498  15.177 -2.7736  0.1888 -0.7843
 2896TIP3   OH230178   3.753   2.529  13.003  0.0220  0.6660  0.4346
 2896TIP3    H130179   3.737   2.595  12.935  2.1005  0.7064 -0.0971
 2896TIP3    H230180   3.845   2.542  13.026  1.3562 -3.6421 -1.5299
 2897TIP3   OH230181   1.901   0.439  13.983 -0.0502 -0.0758 -0.2558
 2897TIP3    H130182   1.969   0.467  14.044 -1.9789 -2.7547  3.5979
 2897TIP3    H230183   1.935   0.359  13.943 -0.2098 -0.4088  0.2676
 2898TIP3   OH230184   3.100   5.461  15.677  0.1656 -0.6573 -0.3653
 2898TIP3    H130185   3.090   5.474  15.583  0.8478 -0.9912 -0.4897
 2898TIP3    H230186   3.091   5.367  15.690 -0.3848 -0.5624 -0.0359
 2899TIP3   OH230187   2.582   1.465  13.492  0.8152 -0.2130 -0.4218
 2899TIP3    H130188   2.660   1.418  13.519  0.5969 -1.1067 -1.3007
 2899TIP3    H230189   2.509   1.406  13.513  0.3838  0.4695  0.0817
 2900TIP3   OH230190   6.489   6.723  14.894 -0.0335  0.0994 -0.2741
 2900TIP3    H130191   6.535   6.794  14.939  0.0679 -0.7287  0.9722
 2900TIP3    H230192   6.475   6.656  14.961 -1.4966 -0.4237 -1.0442
 2901TIP3   OH230193   4.865   5.722   1.217 -0.3323 -0.5777  0.2887
 2901TIP3    H130194   4.914   5.679   1.148  1.5418 -0.0884  1.2664
 2901TIP3    H230195   4.880   5.815   1.203  3.3518 -0.4614  3.4686
 2902TIP3   OH230196   2.225   1.785  14.197 -0.0046  0.0301 -0.0111
 2902TIP3    H130197   2.305   1.738  14.222  0.9199  1.1689 -0.6948
 2902TIP3    H230198   2.225   1.863  14.251  0.4046  0.9942 -1.3341
 2903TIP3   OH230199   3.682   3.826  11.858 -0.0104 -0.5549 -0.0231
 2903TIP3    H130200   3.634   3.826  11.776  0.4708  1.3443 -0.3711
 2903TIP3    H230201   3.614   3.832  11.926 -0.3580 -0.6784 -0.3570
 2904TIP3   OH230202   1.470   4.948   5.534 -0.5472 -0.1251 -0.5047
 2904TIP3    H130203   1.435   5.016   5.591 -0.3122  0.0008 -0.5079
 2904TIP3    H230204   1.511   4.885   5.593 -0.4108 -0.0563 -0.5238
 2905TIP3   OH230205   4.528   2.324   4.711 -0.0159  0.3609 -0.2985
 2905TIP3    H130206   4.442   2.287   4.692  0.2393  0.1058 -0.9789
 2905TIP3    H230207   4.529   2.335   4.807 -1.4096  1.8653 -0.4071
 2906TIP3   OH230208   4.480   0.555  12.325  0.5403 -0.2936 -0.1552
 2906TIP3    H130209   4.465   0.558  12.419 -1.2965 -1.4330 -0.3589
 2906TIP3    H230210   4.393   0.564  12.287  1.2294 -0.0707 -1.7599
 2907TIP3   OH230211   4.998   5.532  13.468  0.4095 -0.1235 -0.0586
 2907TIP3    H130212   5.081   5.563  13.432  1.1801 -1.6798  0.3168
 2907TIP3    H230213   5.023   5.475  13.540 -1.0376  0.5825  1.0448
 2908TIP3   OH230214   5.172   6.179  12.649 -0.1355  0.6375 -0.0208
 2908TIP3    H130215   5.137   6.222  12.727 -0.3943  0.9099 -0.2832
 2908TIP3    H230216   5.217   6.102  12.682  0.3463  1.1141  0.4598
 2909TIP3   OH230217   1.972   6.732   2.648 -0.7509 -0.0656 -0.4351
 2909TIP3    H130218   1.968   6.802   2.713  1.6732  0.5034 -0.8326
 2909TIP3    H230219   1.902   6.755   2.585 -1.0311  1.1140  0.2705
 2910TIP3   OH230220   2.548   4.699   4.966  0.1868  0.4676  0.4732
 2910TIP3    H130221   2.516   4.656   4.886 -1.2949  0.5406  0.9948
 2910TIP3    H230222   2.626   4.747   4.938 -0.4882  0.7589 -1.0111
 2911TIP3   OH230223   0.096   0.922   2.893  0.0806 -0.0360 -0.2467
 2911TIP3    H130224   0.180   0.963   2.915  0.3392 -0.0301 -1.1639
 2911TIP3    H230225   0.119   0.853   2.830 -0.3607 -1.5699  1.2236
 2912TIP3   OH230226   5.941   4.280   3.684  0.5167  0.0439 -0.4099
 2912TIP3    H130227   5.859   4.231   3.683  1.0017 -0.7888 -0.9517
 2912TIP3    H230228   5.915   4.371   3.696 -0.5499 -0.1189 -1.3113
 2913TIP3   OH230229   0.562   6.075   1.607  0.1686  0.1317  0.1534
 2913TIP3    H130230   0.520   6.161   1.602 -0.4826 -0.1632  0.3903
 2913TIP3    H230231   0.562   6.043   1.517  0.2917  0.3206  0.0844
 2914TIP3   OH230232   2.976   0.366   2.055 -0.2845  0.3668 -0.1014
 2914TIP3    H130233   3.046   0.424   2.024 -0.1213 -0.7206 -1.9051
 2914TIP3    H230234   2.987   0.365   2.150  0.2738  2.5339 -0.0791
 2915TIP3   OH230235   0.758   2.751  17.099  0.8947 -0.0246 -0.3656
 2915TIP3    H130236   0.807   2.689  17.044  2.4383 -1.0940  2.0408
 2915TIP3    H230237   0.785   2.837  17.068  1.9540 -0.5888 -1.0699
 2916TIP3   OH230238   1.121   2.574  15.035 -0.3286 -0.3170 -0.3329
 2916TIP3    H130239   1.200   2.522  15.050 -0.2063 -0.3465 -1.0496
 2916TIP3    H230240   1.152   2.655  14.995 -0.4741  0.5262  1.1630
 2917TIP3   OH230241   1.364   4.679  15.238  0.4931 -0.1421 -0.2944
 2917TIP3    H130242   1.305   4.714  15.170  0.2699  0.5858  0.2589
 2917TIP3    H230243   1.369   4.586  15.219 -0.1310 -0.0662 -0.8923
 2918TIP3   OH230244   3.435   5.291   1.910  0.0476 -0.2787  0.1884
 2918TIP3    H130245   3.505   5.346   1.875  3.0170 -1.9054  3.0314
 2918TIP3    H230246   3.479   5.208   1.930 -3.0883 -1.9120  0.7970
 2919TIP3   OH230247   1.183   5.540   1.720 -0.5732 -0.3664 -0.2703
 2919TIP3    H130248   1.116   5.608   1.720  0.1868  0.4296  1.2394
 2919TIP3    H230249   1.134   5.458   1.706 -1.3736  0.5041 -3.4323
 2920TIP3   OH230250   4.042   0.295  13.597 -0.0556 -0.2033  0.2684
 2920TIP3    H130251   4.002   0.249  13.672 -1.8438  1.6203  0.5292
 2920TIP3    H230252   4.090   0.368  13.637  1.8407 -1.1290 -0.2061
 2921TIP3   OH230253   2.836   5.246  10.962  0.2485  0.0797 -0.5246
 2921TIP3    H130254   2.876   5.246  10.875  0.8846  1.7489 -0.2587
 2921TIP3    H230255   2.761   5.305  10.953 -0.0165 -0.1911 -0.0808
 2922TIP3   OH230256   3.243   4.672   0.012  0.1229 -0.1027 -0.2756
 2922TIP3    H130257   3.166   4.630  -0.027  0.5824 -0.2485 -1.0577
 2922TIP3    H230258   3.216   4.695   0.101 -0.6391 -0.6608 -0.3538
 2923TIP3   OH230259   4.138   4.517   1.745  0.4215  0.3326  0.0674
 2923TIP3    H130260   4.124   4.554   1.832 -0.2273 -1.3655  0.7029
 2923TIP3    H230261   4.064   4.459   1.730  1.5583 -0.9615 -0.7677
 2924TIP3   OH230262   4.228   1.833   6.062  0.0702  0.3080  0.2186
 2924TIP3    H130263   4.283   1.820   5.985 -0.4132  1.2328 -0.2922
 2924TIP3    H230264   4.244   1.923   6.089 -0.3031  0.2146  0.7727
 2925TIP3   OH230265   5.174   4.800   4.174  0.2626 -0.5565  0.1810
 2925TIP3    H130266   5.264   4.793   4.144 -0.1207 -1.0071 -0.9403
 2925TIP3    H230267   5.135   4.866   4.117 -0.1211 -0.4042  0.6217
 2926TIP3   OH230268   3.730   1.895  13.103 -0.2312  0.3131 -0.0588
 2926TIP3    H130269   3.653   1.849  13.071 -0.2263  0.4521 -0.2718
 2926TIP3    H230270   3.698   1.949  13.175  0.0736 -1.3598  1.3881
 2927TIP3   OH230271   6.485   2.537   2.421  0.3406 -0.3050  0.5007
 2927TIP3    H130272   6.481   2.608   2.485  1.3872  1.1899 -1.0260
 2927TIP3    H230273   6.486   2.580   2.336 -0.1559 -2.2050 -0.5324
 2928TIP3   OH230274   0.823   1.757  15.860 -0.4285 -0.6904 -0.3247
 2928TIP3    H130275   0.878   1.796  15.928 -1.8595  0.5255  0.2015
 2928TIP3    H230276   0.816   1.825  15.794 -3.3386  0.2724  0.8100
 2929TIP3   OH230277   0.678   2.098   3.205 -0.1578 -0.3798 -0.3500
 2929TIP3    H130278   0.640   2.013   3.185 -0.2719 -0.0345 -1.6538
 2929TIP3    H230279   0.759   2.077   3.253  1.2498 -1.3903 -2.9364
 2930TIP3   OH230280   5.976   6.172   5.809  0.1235 -0.4189 -0.6105
 2930TIP3    H130281   5.992   6.180   5.903  1.9334 -0.1542 -0.9112
 2930TIP3    H230282   5.900   6.228   5.793  0.0134 -0.1838  0.6281
 2931TIP3   OH230283   4.650   6.386   4.758 -0.1665 -0.1047 -0.0798
 2931TIP3    H130284   4.736   6.417   4.785 -0.7546  1.4505  0.0810
 2931TIP3    H230285   4.625   6.444   4.687 -1.2203 -0.3625  0.0668
 2932TIP3   OH230286   1.749   5.918   4.202  0.2726  0.2843 -0.3861
 2932TIP3    H130287   1.731   5.826   4.223 -0.7117  0.7361  0.9224
 2932TIP3    H230288   1.843   5.928   4.215  0.5837 -0.8049 -1.6940
 2933TIP3   OH230289   5.445   1.745   6.985  0.1682 -0.9271 -0.2884
 2933TIP3    H130290   5.427   1.663   6.938 -0.7044 -0.5575 -0.6159
 2933TIP3    H230291   5.365   1.761   7.036 -0.7179  1.0269 -2.1696
 2934TIP3   OH230292   1.435   6.334   0.609 -0.2408 -0.0117  0.1521
 2934TIP3    H130293   1.357   6.292   0.573  0.4901  0.1934 -1.7537
 2934TIP3    H230294   1.428   6.426   0.583  1.1294 -0.1963 -1.0015
 2935TIP3   OH230295   0.702   1.645  15.448  0.8056  0.2127 -0.3756
 2935TIP3    H130296   0.717   1.553  15.469  0.4002 -0.0463 -1.1678
 2935TIP3    H230297   0.650   1.643  15.368 -0.9270  1.1197  0.6770
 2936TIP3   OH230298   3.665   0.694   1.283  0.2024 -0.4569  0.1281
 2936TIP3    H130299   3.716   0.694   1.202  1.0702 -1.2011  0.6561
 2936TIP3    H230300   3.695   0.617   1.330 -1.5991 -1.0531  0.3609
 2937TIP3   OH230301   1.650   3.373   2.263  0.0569 -0.2320  0.5011
 2937TIP3    H130302   1.727   3.408   2.307 -0.9206  1.8621  0.6543
 2937TIP3    H230303   1.577   3.423   2.299 -1.1709 -0.8568 -1.0197
 2938TIP3   OH230304   5.228   5.341  10.563 -0.3012 -0.2542 -0.6556
 2938TIP3    H130305   5.243   5.395  10.485  1.4340  0.7932  0.3423
 2938TIP3    H230306   5.304   5.283  10.568 -1.9751 -2.6827 -1.5178
 2939TIP3   OH230307   3.562   5.948   4.298  0.4954 -0.2571 -0.5877
 2939TIP3    H130308   3.646   5.914   4.329 -0.5342 -1.0658  1.4766
 2939TIP3    H230309   3.524   5.991   4.374 -1.7700 -1.5374 -0.9057
 2940TIP3   OH230310   1.840   1.657  16.072 -0.2325 -0.3132 -0.1166
 2940TIP3    H130311   1.863   1.706  16.152 -2.0342 -0.0776  0.2849
 2940TIP3    H230312   1.820   1.725  16.008 -0.6893 -0.5099 -0.1846
 2941TIP3   OH230313   4.630   0.049   4.256 -0.0906  0.0183  0.6746
 2941TIP3    H130314   4.603  -0.042   4.246  0.0000 -0.2411  2.3965
 2941TIP3    H230315   4.562   0.100   4.213 -0.9471 -0.8128  1.0186
 2942TIP3   OH230316   2.080   4.007   2.235  0.5158 -0.0097  0.2151
 2942TIP3    H130317   2.162   3.987   2.190 -1.2877 -1.8416 -2.6287
 2942TIP3    H230318   2.091   3.974   2.324  3.0205  0.3435  0.0828
 2943TIP3   OH230319   0.751   0.420  10.933  0.3968  0.0764 -0.6758
 2943TIP3    H130320   0.828   0.472  10.955  0.4695 -0.9534  1.8560
 2943TIP3    H230321   0.712   0.397  11.018 -0.3774 -2.8503 -1.7015
 2944TIP3   OH230322   2.091   1.816  15.612 -0.1499  0.5307  0.0623
 2944TIP3    H130323   2.185   1.809  15.594 -0.3376 -0.2222 -0.6756
 2944TIP3    H230324   2.083   1.791  15.704  0.0710 -2.4772 -0.6139
 2945TIP3   OH230325   0.035   5.375   5.265 -0.1151 -0.4989  0.1499
 2945TIP3    H130326   0.014   5.429   5.342 -2.5825 -1.4887  0.2883
 2945TIP3    H230327  -0.000   5.289   5.287 -0.3311 -0.9643 -1.8491
 2946TIP3   OH230328   5.439   4.434  12.187 -0.3145  0.0156 -0.3282
 2946TIP3    H130329   5.380   4.425  12.262 -1.3383  3.0752 -0.6161
 2946TIP3    H230330   5.391   4.396  12.113 -0.5038 -0.4676  0.0411
 2947TIP3   OH230331   6.204   4.506  10.606  0.3620 -0.1039  0.0717
 2947TIP3    H130332   6.297   4.531  10.608  0.5426 -0.6963 -0.5913
 2947TIP3    H230333   6.199   4.437  10.540 -0.1963 -1.4668  1.4724
 2948TIP3   OH230334   4.640   2.693  15.777 -0.0076 -0.0120 -0.5720
 2948TIP3    H130335   4.593   2.621  15.735  1.0833 -0.9806 -0.1842
 2948TIP3    H230336   4.612   2.691  15.868  0.1978 -0.0950 -0.5095
 2949TIP3   OH230337   2.580   4.706   5.469  0.2921  0.7507 -0.2932
 2949TIP3    H130338   2.640   4.780   5.459  0.7863  0.4609  0.4971
 2949TIP3    H230339   2.611   4.659   5.546  0.8631 -1.1219 -1.5967
 2950TIP3   OH230340   0.295   1.372  16.313 -0.7712  0.4694 -0.5730
 2950TIP3    H130341   0.356   1.331  16.375 -1.6477 -0.0724 -0.0439
 2950TIP3    H230342   0.248   1.299  16.274 -0.0650  0.7906 -2.0985
 2951TIP3   OH230343   6.786   5.475  11.900 -0.4203 -0.8460  0.3713
 2951TIP3    H130344   6.811   5.412  11.833 -1.1982 -1.0796  0.2882
 2951TIP3    H230345   6.720   5.530  11.858  1.5592  1.2593 -0.1736
 2952TIP3   OH230346   0.786   4.689  10.743 -0.0964  0.4283 -0.1631
 2952TIP3    H130347   0.759   4.632  10.815  1.9283  1.4242  1.5293
 2952TIP3    H230348   0.762   4.642  10.664 -1.0854 -1.4210  1.1539
 2953TIP3   OH230349   1.004   5.217   2.861  0.0335 -0.1784 -0.0028
 2953TIP3    H130350   0.988   5.180   2.774  0.3785 -1.2250  0.3618
 2953TIP3    H230351   1.099   5.212   2.872  0.1061  1.0215 -0.0221
 2954TIP3   OH230352   0.127   0.635   2.871  0.5288  0.8634  0.4000
 2954TIP3    H130353   0.214   0.600   2.855 -0.0203 -0.6460  0.5964
 2954TIP3    H230354   0.116   0.630   2.966  0.3067  1.2492  0.3964
 2955TIP3   OH230355   2.692   2.958  11.551  0.8194  0.1320  0.4323
 2955TIP3    H130356   2.639   2.886  11.584 -0.2753  0.5871 -0.2762
 2955TIP3    H230357   2.775   2.951  11.598  0.5951 -1.3598  0.6461
 2956TIP3   OH230358   4.521   0.354   2.322  0.7904  0.1400  0.2358
 2956TIP3    H130359   4.578   0.309   2.260  1.0745  0.7847  0.0142
 2956TIP3    H230360   4.477   0.284   2.370  0.6441 -0.3674 -0.6191
 2957TIP3   OH230361   0.695   2.152  13.968 -0.2270 -0.1615 -0.8864
 2957TIP3    H130362   0.706   2.085  13.901  1.4073 -1.3363  0.4717
 2957TIP3    H230363   0.617   2.124  14.017 -0.5969 -0.0649 -1.4068
 2958TIP3   OH230364   5.342   3.243   1.391 -0.1634  0.2156 -0.2837
 2958TIP3    H130365   5.398   3.224   1.467 -1.1198  0.0370  0.3873
 2958TIP3    H230366   5.403   3.247   1.318  0.7210 -0.1206  0.4096
 2959TIP3   OH230367   4.647   6.123   3.953  0.3916  0.2867 -0.4355
 2959TIP3    H130368   4.691   6.116   4.038 -0.2013 -1.1748 -0.2301
 2959TIP3    H230369   4.581   6.190   3.967  0.0818 -0.1685  0.3662
 2960TIP3   OH230370   3.693   4.175   0.774 -0.6049 -0.0241 -0.0740
 2960TIP3    H130371   3.740   4.234   0.832 -1.1986  0.0533  0.3329
 2960TIP3    H230372   3.601   4.198   0.785 -0.6954  0.3442 -1.4369
 2961TIP3   OH230373   4.141   0.302   3.851  0.0002 -0.1248  0.1437
 2961TIP3    H130374   4.080   0.290   3.778 -0.5424  1.7231  0.2621
 2961TIP3    H230375   4.103   0.373   3.903  2.0165  0.7558  0.4808
 2962TIP3   OH230376   2.205   2.158   0.578  0.4473 -0.2944 -0.2632
 2962TIP3    H130377   2.130   2.178   0.521  0.5280 -0.1924 -0.3328
 2962TIP3    H230378   2.217   2.063   0.569  0.4987 -0.2701 -0.4649
 2963TIP3   OH230379   0.143   1.893  14.350  0.1282  0.4114  0.1974
 2963TIP3    H130380   0.149   1.895  14.255 -2.2462 -2.8932 -0.2075
 2963TIP3    H230381   0.059   1.935  14.369  1.0034  1.8839  0.9930
 2964TIP3   OH230382   3.994   0.558   1.185 -0.0686  0.4020 -0.3190
 2964TIP3    H130383   3.977   0.534   1.276  0.5935 -1.7496 -0.6997
 2964TIP3    H230384   4.061   0.496   1.156 -1.2756  0.0620 -2.6630
 2965TIP3   OH230385   3.282   5.552   0.184  0.5739  0.4452  0.2453
 2965TIP3    H130386   3.261   5.616   0.252 -0.1180 -0.6671  1.1119
 2965TIP3    H230387   3.296   5.605   0.105 -3.2769  1.5349  0.0729
 2966TIP3   OH230388   2.987   4.786  16.864  0.3252  0.3639  0.8468
 2966TIP3    H130389   2.896   4.775  16.835  0.5036  0.4629  0.2391
 2966TIP3    H230390   2.980   4.794  16.959 -0.0802 -2.2061  1.1097
 2967TIP3   OH230391   6.793   1.838   4.350  0.0070  0.4148 -0.5126
 2967TIP3    H130392   6.712   1.878   4.320  0.7134  1.4969 -1.0458
 2967TIP3    H230393   6.779   1.744   4.340 -1.6676  0.4968  0.6951
 2968TIP3   OH230394   4.887   1.302  12.276  0.2709  0.1175  0.5433
 2968TIP3    H130395   4.935   1.300  12.358 -0.4733 -1.8092  0.9836
 2968TIP3    H230396   4.821   1.233  12.284 -1.3802  1.4235 -0.7507
 2969TIP3   OH230397   0.981   5.561  11.285 -0.4155 -0.1047 -0.3041
 2969TIP3    H130398   0.890   5.544  11.310 -0.3135  0.6231  0.6260
 2969TIP3    H230399   0.976   5.630  11.219 -0.6356 -1.4300 -1.7238
 2970TIP3   OH230400   6.620   5.629  16.394 -0.2474  0.0975 -0.6029
 2970TIP3    H130401   6.577   5.704  16.354  0.5408 -0.6981 -3.1201
 2970TIP3    H230402   6.648   5.575  16.320 -0.0034 -2.2490  1.0908
 2971TIP3   OH230403   6.400   0.421   0.969  0.0491  0.9770  0.0485
 2971TIP3    H130404   6.343   0.481   1.016 -0.6763  1.2765 -1.1798
 2971TIP3    H230405   6.341   0.365   0.919  0.7711  0.1992  0.0373
 2972TIP3   OH230406   1.151   6.797   1.875 -0.1173  0.0114  0.0022
 2972TIP3    H130407   1.096   6.865   1.915  0.4069  0.1110  0.5714
 2972TIP3    H230408   1.233   6.841   1.856 -0.0573 -0.2624 -0.3981
 2973TIP3   OH230409   3.488   6.800   1.280 -0.6428 -0.7580  0.0299
 2973TIP3    H130410   3.453   6.783   1.368 -3.9014 -0.1074 -0.9827
 2973TIP3    H230411   3.418   6.772   1.221  1.6183 -1.6118 -2.4370
 2974TIP3   OH230412   1.999   5.187   4.162 -0.6120 -0.7431 -0.0387
 2974TIP3    H130413   1.917   5.170   4.116 -0.2545  0.6873 -1.2585
 2974TIP3    H230414   1.999   5.124   4.234 -2.2615 -1.4973 -0.6503
 2975TIP3   OH230415   2.190   1.223  12.023 -0.1864  0.6827  0.1603
 2975TIP3    H130416   2.110   1.247  12.070 -0.2445 -1.5003  1.3008
 2975TIP3    H230417   2.258   1.276  12.064 -0.9827  2.6664 -0.9062
 2976TIP3   OH230418   0.840   0.717  11.714 -0.7341 -0.0251 -0.8167
 2976TIP3    H130419   0.781   0.755  11.779  0.7026  1.3380 -0.2323
 2976TIP3    H230420   0.794   0.639  11.683 -2.0576  0.0109  0.8571
 2977TIP3   OH230421   5.716   4.437  12.386  0.2439  0.0347  0.2424
 2977TIP3    H130422   5.723   4.351  12.427  1.5161  1.2322  2.7277
 2977TIP3    H230423   5.738   4.499  12.455  1.9863  2.2533 -2.0810
 2978TIP3   OH230424   0.284   6.734  15.647 -0.6806 -0.1156  0.2361
 2978TIP3    H130425   0.306   6.777  15.564 -0.3848  1.2147  0.9754
 2978TIP3    H230426   0.339   6.656  15.649  1.1182  1.1119  0.2636
 2979TIP3   OH230427   4.287   4.813  12.406 -0.7981 -0.4170  0.0136
 2979TIP3    H130428   4.204   4.797  12.361 -1.9413 -1.2829  2.2766
 2979TIP3    H230429   4.263   4.825  12.498  1.3193  2.2659  0.3335
 2980TIP3   OH230430   5.267   0.832   6.340  0.3320  0.0630 -0.0788
 2980TIP3    H130431   5.235   0.912   6.298 -3.1718 -0.7697  0.6286
 2980TIP3    H230432   5.248   0.762   6.278  1.2152 -0.4900  0.2488
 2981TIP3   OH230433   2.047   6.834  13.338 -0.4346  0.4315  0.1640
 2981TIP3    H130434   2.088   6.905  13.386 -0.8663 -0.7517  2.4388
 2981TIP3    H230435   1.953   6.844  13.356 -0.4922 -0.7352  0.5844
 2982TIP3   OH230436   3.085   3.664   0.436 -0.2007 -0.0582 -0.1370
 2982TIP3    H130437   3.164   3.677   0.487  0.0546  0.9480 -0.7750
 2982TIP3    H230438   3.067   3.570   0.443  1.8406 -0.5690 -1.1430
 2983TIP3   OH230439   0.428   4.660  16.407 -0.4548  0.1343  0.1731
 2983TIP3    H130440   0.407   4.719  16.479 -0.7164  0.1594  0.0805
 2983TIP3    H230441   0.368   4.686  16.337  2.3627  2.7423 -1.4909
 2984TIP3   OH230442   6.774   5.844  15.517  0.2116 -0.4935  0.3180
 2984TIP3    H130443   6.793   5.854  15.424  0.7807  0.7056  0.5383
 2984TIP3    H230444   6.769   5.749  15.531  0.9605 -0.7103 -0.7680
 2985TIP3   OH230445   5.185   3.121   2.656 -0.1762 -1.4047  0.6660
 2985TIP3    H130446   5.201   3.041   2.706 -1.5770 -1.6228  0.7993
 2985TIP3    H230447   5.107   3.159   2.696 -2.0498 -2.1717 -2.0238
 2986TIP3   OH230448   0.834   3.575  12.994 -0.1140 -0.2510 -0.1609
 2986TIP3    H130449   0.748   3.608  13.021  0.3937  0.3598  0.7527
 2986TIP3    H230450   0.851   3.502  13.053 -0.6956 -1.4367 -1.3948
 2987TIP3   OH230451   5.777   1.778   5.892  0.4800 -0.8463  0.2510
 2987TIP3    H130452   5.744   1.734   5.970 -0.8241  0.1711  0.3055
 2987TIP3    H230453   5.718   1.852   5.879  1.2439 -0.4422 -1.1586
 2988TIP3   OH230454   6.738   6.487   1.682 -0.3554  0.0532 -0.2812
 2988TIP3    H130455   6.783   6.563   1.644  0.1738  0.6704  1.4719
 2988TIP3    H230456   6.796   6.413   1.664 -1.0326 -0.0517 -2.2966
 2989TIP3   OH230457   3.186   2.112  13.546 -0.1924  0.1401 -0.0159
 2989TIP3    H130458   3.098   2.102  13.582 -0.2392  0.5855 -0.0112
 2989TIP3    H230459   3.178   2.083  13.455 -0.1120 -0.8173  0.2642
 2990TIP3   OH230460   2.912   5.897   1.416 -0.0805 -0.1768  0.3872
 2990TIP3    H130461   2.954   5.822   1.460  2.3826  1.1311  0.4210
 2990TIP3    H230462   2.894   5.865   1.327  0.7767 -0.8897  0.4496
 2991TIP3   OH230463   0.166   3.179   1.356 -0.0564  0.4369  0.2953
 2991TIP3    H130464   0.125   3.218   1.279 -0.7558 -1.3562 -0.3101
 2991TIP3    H230465   0.209   3.252   1.400 -2.0902  2.0488 -0.2054
 2992TIP3   OH230466   2.165   4.606  14.737  0.3916  0.9278 -0.3975
 2992TIP3    H130467   2.171   4.540  14.806  0.1810 -1.2392 -2.3473
 2992TIP3    H230468   2.211   4.567  14.662 -3.4067  1.0165 -3.0483
 2993TIP3   OH230469   2.981   1.619  12.666 -0.0676  0.0691 -0.1672
 2993TIP3    H130470   2.907   1.669  12.631 -0.2459  1.1217  1.6318
 2993TIP3    H230471   2.940   1.548  12.717  0.1695  0.1693  0.1617
 2994TIP3   OH230472   6.571   0.651   0.070 -0.5083  0.2074  0.4549
 2994TIP3    H130473   6.538   0.736   0.041  0.1421 -0.5222 -2.7611
 2994TIP3    H230474   6.665   0.665   0.081 -0.2275 -0.2939 -1.1140
 2995TIP3   OH230475   6.675   1.140  12.348  0.1643 -0.1202 -0.0781
 2995TIP3    H130476   6.638   1.059  12.381  0.4884 -0.1945  0.1095
 2995TIP3    H230477   6.753   1.154  12.401 -0.5536  0.9638  0.7233
 2996TIP3   OH230478   4.389   6.137   2.330  0.0304 -0.3708  0.6570
 2996TIP3    H130479   4.447   6.060   2.323 -0.7248 -0.8474 -0.7286
 2996TIP3    H230480   4.447   6.208   2.357  0.6961 -1.4709  2.3124
 2997TIP3   OH230481   3.000   4.495   5.832 -0.4406 -0.0032  0.3689
 2997TIP3    H130482   2.947   4.443   5.771  1.0051 -1.4072  0.2416
 2997TIP3    H230483   2.938   4.557   5.870 -1.6376  0.1265 -1.6379
 2998TIP3   OH230484   1.990   0.053   1.601 -0.0836  0.4061 -0.1921
 2998TIP3    H130485   2.078   0.018   1.610 -0.0418  0.4979 -0.2488
 2998TIP3    H230486   1.934  -0.024   1.598 -0.0804  0.3657  0.6482
 2999TIP3   OH230487   5.408   0.323   2.347 -0.1713 -0.6780 -0.4393
 2999TIP3    H130488   5.350   0.374   2.404 -1.2720  0.0205 -2.1339
 2999TIP3    H230489   5.485   0.379   2.337  0.5559 -1.2955  1.2177
 3000TIP3   OH230490   4.055   3.237  12.101  0.0028 -0.0999 -0.1457
 3000TIP3    H130491   4.140   3.270  12.072  0.1788 -0.5091 -0.1081
 3000TIP3    H230492   4.030   3.173  12.034 -0.7715  0.7727 -0.7075
 3001TIP3   OH230493   3.707   1.581   3.589  0.0493  0.3294 -0.2187
 3001TIP3    H130494   3.654   1.600   3.512 -0.0333 -1.3063 -0.6031
 3001TIP3    H230495   3.643   1.566   3.659 -0.0276 -1.2280 -0.5846
 3002TIP3   OH230496   4.072   4.478  11.564  0.5363 -0.2507  0.1796
 3002TIP3    H130497   4.108   4.502  11.478 -2.7991 -2.3809 -2.0293
 3002TIP3    H230498   4.050   4.562  11.605  1.9062  0.8175 -1.1509
 3003TIP3   OH230499   4.230   6.227   0.712 -0.4437 -0.2508  0.1435
 3003TIP3    H130500   4.232   6.319   0.737  0.7859  0.0446 -0.9213
 3003TIP3    H230501   4.303   6.188   0.759 -0.6563 -0.5711  0.2097
 3004TIP3   OH230502   6.348   4.197   5.286 -0.4578  0.2057  0.9565
 3004TIP3    H130503   6.434   4.156   5.278 -0.1444  0.8425  1.0528
 3004TIP3    H230504   6.303   4.176   5.204 -0.1244  0.0830  0.8040
 3005TIP3   OH230505   2.042   4.639   1.996 -0.2309  0.1674  0.4270
 3005TIP3    H130506   2.051   4.545   1.980  0.8279  0.6016 -1.8583
 3005TIP3    H230507   1.966   4.665   1.945 -0.4052  0.6058  0.8991
 3006TIP3   OH230508   0.621   4.760  11.149  0.3463  0.6963  0.9483
 3006TIP3    H130509   0.597   4.672  11.178  2.3245 -0.9454 -1.9087
 3006TIP3    H230510   0.706   4.776  11.189  0.4200  0.9199  0.7018
 3007TIP3   OH230511   3.435   5.199  10.901 -0.6363  0.2520 -0.1281
 3007TIP3    H130512   3.519   5.177  10.860 -0.8626 -0.6897 -0.1140
 3007TIP3    H230513   3.371   5.189  10.831 -0.8888 -0.2987  0.1758
 3008TIP3   OH230514   2.527   5.529   5.189 -0.0190  0.5241 -0.2283
 3008TIP3    H130515   2.500   5.534   5.281  0.4535  0.2642 -0.0738
 3008TIP3    H230516   2.600   5.590   5.182  1.8070 -1.4976  0.2466
 3009TIP3   OH230517   2.283   3.701   4.158 -0.2296 -0.2769  0.9478
 3009TIP3    H130518   2.314   3.634   4.097  0.0289  1.0035 -0.3630
 3009TIP3    H230519   2.363   3.741   4.192 -0.3898  0.5958  0.3172
 3010TIP3   OH230520   1.974   2.490   2.909 -0.7779 -0.1232  0.4312
 3010TIP3    H130521   1.903   2.453   2.962 -1.2323 -0.2154 -0.2344
 3010TIP3    H230522   1.962   2.585   2.917 -0.8327 -0.1367  0.5155
 3011TIP3   OH230523   3.816   1.071   5.957 -0.2333 -0.4845  0.7095
 3011TIP3    H130524   3.806   0.987   5.912 -1.0814  0.6436 -1.3607
 3011TIP3    H230525   3.830   1.048   6.049 -1.7752 -2.8463  0.4302
 3012TIP3   OH230526   3.130   0.870  14.074 -0.8102 -0.1761 -0.1927
 3012TIP3    H130527   3.039   0.847  14.092 -0.1444 -1.3550  2.0903
 3012TIP3    H230528   3.135   0.964  14.093 -1.4735 -0.1881  0.0623
 3013TIP3   OH230529   0.410   3.477   4.557 -0.4403 -0.1899 -0.4032
 3013TIP3    H130530   0.353   3.455   4.483 -1.3863  0.6382  0.0595
 3013TIP3    H230531   0.400   3.571   4.568 -0.6989 -0.3677  1.0849
 3014TIP3   OH230532   5.104   0.884  11.830 -0.0407 -0.2441  0.0011
 3014TIP3    H130533   5.132   0.846  11.747 -0.4291  0.2065 -0.3423
 3014TIP3    H230534   5.060   0.966  11.806  0.4500  0.2388  0.7022
 3015TIP3   OH230535   5.985   0.000  16.169 -0.6251  0.3435  0.6323
 3015TIP3    H130536   5.909  -0.016  16.224 -0.6213 -0.7013  0.3564
 3015TIP3    H230537   6.003  -0.084  16.127  2.3104 -0.2303  2.7305
 3016TIP3   OH230538   3.322   3.748  12.653  0.1210 -0.3868 -0.0493
 3016TIP3    H130539   3.332   3.821  12.714  1.6449 -0.0667 -0.6578
 3016TIP3    H230540   3.388   3.763  12.585 -0.9122 -1.2456 -1.2839
 3017TIP3   OH230541   4.595   0.964   6.744  0.4997  0.4758  0.1006
 3017TIP3    H130542   4.667   0.960   6.807  1.4201 -0.8767 -0.9787
 3017TIP3    H230543   4.520   0.928   6.791  1.2666 -0.9064  0.3150
 3018TIP3   OH230544   4.974   0.304  11.792 -0.0122 -0.6889  0.2301
 3018TIP3    H130545   5.044   0.278  11.732 -0.7906  1.2396 -1.6238
 3018TIP3    H230546   5.011   0.377  11.841 -0.4226 -0.1873 -0.1905
 3019TIP3   OH230547   2.823   0.390  10.381 -0.5087 -0.0491  0.1863
 3019TIP3    H130548   2.805   0.305  10.340  1.7659 -0.3271 -0.3767
 3019TIP3    H230549   2.830   0.451  10.308 -1.1971  0.4445  0.5247
 3020TIP3   OH230550   4.729   6.332   1.770 -0.6301 -0.0824  0.0166
 3020TIP3    H130551   4.672   6.376   1.706  0.2767  1.9710  0.5287
 3020TIP3    H230552   4.807   6.387   1.773 -0.0498 -0.9495  1.8128
 3021TIP3   OH230553   2.581   0.656   2.808  0.0116 -0.2124  0.4064
 3021TIP3    H130554   2.537   0.660   2.723 -1.7072 -0.9868  1.2028
 3021TIP3    H230555   2.653   0.594   2.794  0.5250  0.6121 -0.7836
 3022TIP3   OH230556   6.686   4.357  11.441  0.2631  0.1466  0.1823
 3022TIP3    H130557   6.723   4.272  11.464  0.0540 -0.0711 -0.2718
 3022TIP3    H230558   6.598   4.356  11.479 -0.5705 -0.7174 -1.6035
 3023TIP3   OH230559   4.338   5.328   0.335 -0.3558 -0.1347  0.4871
 3023TIP3    H130560   4.364   5.408   0.380 -0.7747 -0.3218  1.0842
 3023TIP3    H230561   4.395   5.260   0.371  1.2093  0.1666 -1.2879
 3024TIP3   OH230562   6.616   4.234  14.167  0.1716  0.2327 -0.5246
 3024TIP3    H130563   6.603   4.298  14.097  1.0215  1.8964  0.7733
 3024TIP3    H230564   6.600   4.282  14.248 -2.9958 -2.1631  0.4946
 3025TIP3   OH230565   3.992   0.009  15.673 -0.3069 -0.1828 -0.0579
 3025TIP3    H130566   3.897   0.003  15.683 -0.3267 -0.9124 -0.5849
 3025TIP3    H230567   4.024   0.036  15.760 -1.1858  2.8534 -0.5505
 3026TIP3   OH230568   0.970   0.962  17.034  0.0175  0.0310 -0.9949
 3026TIP3    H130569   1.034   0.989  17.101  0.7426 -1.4300 -1.0587
 3026TIP3    H230570   0.939   0.877  17.064 -1.3905  0.3998 -1.3464
 3027TIP3   OH230571   4.616   4.518  13.948  0.6452 -0.2232 -0.4883
 3027TIP3    H130572   4.575   4.500  14.033 -0.0546 -1.2214 -1.0258
 3027TIP3    H230573   4.676   4.590  13.966  0.1833 -0.1220  0.7648
 3028TIP3   OH230574   3.024   0.709   5.130  0.7176 -0.0518  0.2547
 3028TIP3    H130575   2.963   0.681   5.199  1.0290  1.0640  1.0059
 3028TIP3    H230576   2.987   0.790   5.096 -0.3406 -1.4257 -2.1226
 3029TIP3   OH230577   6.265   4.503  15.063 -0.2910  0.6499  0.1291
 3029TIP3    H130578   6.204   4.452  15.117  0.9515 -1.3111 -0.1884
 3029TIP3    H230579   6.341   4.517  15.119 -0.2826  1.4595 -0.0705
 3030TIP3   OH230580   0.713   6.059  14.307  0.7711 -0.0597 -0.1111
 3030TIP3    H130581   0.705   6.110  14.226 -3.3239  0.5187  0.4521
 3030TIP3    H230582   0.803   6.073  14.335  2.0450  0.6155 -3.9240
 3031TIP3   OH230583   2.249   5.684   1.819 -0.2337  0.5977  0.3787
 3031TIP3    H130584   2.262   5.751   1.886  1.3247  1.0072 -0.2710
 3031TIP3    H230585   2.277   5.726   1.738  1.4865 -1.0157  0.0543
 3032TIP3   OH230586   5.639   1.708   6.146 -0.1308  0.2727 -0.0265
 3032TIP3    H130587   5.667   1.654   6.220  0.3653 -0.1416 -0.5132
 3032TIP3    H230588   5.589   1.779   6.186 -1.0128 -0.6714  0.6056
 3033TIP3   OH230589   0.742   2.742   4.729 -0.5137 -0.2321  0.0982
 3033TIP3    H130590   0.821   2.771   4.775 -1.0256  1.6209 -0.1465
 3033TIP3    H230591   0.678   2.727   4.798 -0.0478 -1.5664  0.2827
 3034TIP3   OH230592   5.554   6.634  15.799  0.2455 -0.1978 -0.0752
 3034TIP3    H130593   5.502   6.626  15.878  0.8963 -0.7316  0.3076
 3034TIP3    H230594   5.498   6.682  15.738  0.7142  2.6619  1.5869
 3035TIP3   OH230595   0.040   4.354   1.365  0.0223  0.0969 -0.7480
 3035TIP3    H130596   0.057   4.447   1.352  0.8930 -0.2799 -2.7263
 3035TIP3    H230597  -0.023   4.350   1.436 -1.1006  2.2753 -1.5392
 3036TIP3   OH230598   0.303   6.191   1.847 -0.3873  0.0079  0.0230
 3036TIP3    H130599   0.331   6.123   1.908 -0.0715 -0.5917 -0.7711
 3036TIP3    H230600   0.361   6.265   1.865 -1.0628  0.2684  1.2413
 3037TIP3   OH230601   3.670   3.610   3.070  0.0499 -0.1907 -0.3565
 3037TIP3    H130602   3.625   3.693   3.058  1.3893  0.7270  0.6029
 3037TIP3    H230603   3.613   3.559   3.127 -0.7535  0.0965 -0.8951
 3038TIP3   OH230604   1.861   2.170   5.858  0.2943 -0.5540  0.5670
 3038TIP3    H130605   1.767   2.188   5.859 -0.2063 -2.7646 -0.2070
 3038TIP3    H230606   1.898   2.232   5.795 -0.8982 -0.6827 -0.2722
 3039TIP3   OH230607   3.994   2.886   0.723 -0.2639  0.5503  0.3765
 3039TIP3    H130608   3.899   2.880   0.737 -0.2915  0.9187  0.3544
 3039TIP3    H230609   4.005   2.872   0.629 -0.0142 -2.6773  0.7763
 3040TIP3   OH230610   5.503   1.342   3.659  0.0058 -0.2544 -0.3609
 3040TIP3    H130611   5.526   1.296   3.740  0.3178  1.2883  0.4592
 3040TIP3    H230612   5.580   1.395   3.639 -0.7272  0.6952 -0.7132
 3041TIP3   OH230613   5.503   5.542  11.040  0.3431  0.3422  0.2399
 3041TIP3    H130614   5.502   5.458  10.994  0.6399 -0.7245  2.0714
 3041TIP3    H230615   5.497   5.518  11.133  0.4247  2.3562  0.8032
 3042TIP3   OH230616   1.229   1.705  12.280 -0.1970 -0.4316  0.0846
 3042TIP3    H130617   1.298   1.770  12.298 -0.0695 -0.8214  1.0507
 3042TIP3    H230618   1.252   1.670  12.194 -0.6824  1.3138 -0.8183
 3043TIP3   OH230619   4.911   6.327  16.383  0.4765  0.8134  0.0461
 3043TIP3    H130620   4.835   6.293  16.336  0.5369 -1.5982  1.5426
 3043TIP3    H230621   4.985   6.278  16.346  0.8256  0.5859  1.0355
 3044TIP3   OH230622   5.741   2.107  16.171  0.4087  0.8548  0.0391
 3044TIP3    H130623   5.741   2.012  16.181  1.3870  0.8087 -0.3050
 3044TIP3    H230624   5.781   2.123  16.085 -3.2944  1.4426 -1.7819
 3045TIP3   OH230625   5.441   3.450   3.827  0.8120  0.5220  0.2037
 3045TIP3    H130626   5.428   3.372   3.881  1.5500  0.6927  0.6546
 3045TIP3    H230627   5.357   3.495   3.828 -0.0965 -1.0176 -1.3211
 3046TIP3   OH230628   6.342   3.074   6.604 -0.1049  0.4644  0.4164
 3046TIP3    H130629   6.256   3.085   6.564 -1.0338  3.0717  2.8139
 3046TIP3    H230630   6.351   2.979   6.617 -2.2061  0.0668 -0.6449
 3047TIP3   OH230631   5.748   0.781  15.052  0.7264  0.2923 -0.0610
 3047TIP3    H130632   5.721   0.869  15.080  2.4868  1.8833 -2.9046
 3047TIP3    H230633   5.844   0.781  15.062  0.8915 -0.7908 -1.3482
 3048TIP3   OH230634   5.271   4.316   0.893 -0.3365  0.3745 -0.0525
 3048TIP3    H130635   5.333   4.382   0.925 -1.1415  1.2314 -0.2115
 3048TIP3    H230636   5.304   4.233   0.927  1.1250  0.7475 -0.4641
 3049TIP3   OH230637   1.485   1.491   2.029 -0.1078 -0.0072  0.4470
 3049TIP3    H130638   1.560   1.532   2.073 -0.4416  1.7824 -0.5267
 3049TIP3    H230639   1.498   1.512   1.937 -2.6471  1.9387  0.4203
 3050TIP3   OH230640   4.480   1.960   3.317  0.2247 -0.2055 -0.3910
 3050TIP3    H130641   4.457   1.869   3.301 -0.1669 -0.1245 -0.2961
 3050TIP3    H230642   4.516   1.991   3.234  0.9518 -0.6253 -0.2369
 3051TIP3   OH230643   0.349   0.789  14.987 -0.4579 -0.4971 -0.1698
 3051TIP3    H130644   0.421   0.851  14.970 -0.4452 -0.2937  0.5581
 3051TIP3    H230645   0.276   0.822  14.935 -0.4685  0.1771  0.2548
 3052TIP3   OH230646   6.816   4.300  12.990  0.1018 -0.4137 -0.3621
 3052TIP3    H130647   6.825   4.209  12.963 -2.1496 -1.0106  0.6305
 3052TIP3    H230648   6.839   4.300  13.083  0.4544  0.1156 -0.4434
 3053TIP3   OH230649   1.638   3.836   3.953  0.6010 -0.6232 -1.0094
 3053TIP3    H130650   1.616   3.816   4.044  0.6555  1.1432 -0.5685
 3053TIP3    H230651   1.562   3.809   3.903 -0.3223  0.3394 -0.1689
 3054TIP3   OH230652   0.376   5.736  11.917  0.2453 -0.0537  0.0876
 3054TIP3    H130653   0.428   5.799  11.967  0.6074 -1.3020  1.3290
 3054TIP3    H230654   0.285   5.756  11.942  0.4335 -0.7962  1.4434
 3055TIP3   OH230655   1.037   3.249   2.056 -0.4647 -0.1118  0.5300
 3055TIP3    H130656   1.114   3.228   2.109  0.5190  2.1055  0.1283
 3055TIP3    H230657   1.072   3.297   1.981 -2.0486 -1.1071 -0.9195
 3056TIP3   OH230658   0.835   0.323   1.437 -0.0060  0.0481 -0.0492
 3056TIP3    H130659   0.752   0.316   1.484  0.5804  1.3222  1.2407
 3056TIP3    H230660   0.825   0.400   1.381 -0.0592 -0.4187 -0.6949
 3057TIP3   OH230661   0.368   0.234  16.128  0.2108  0.6248 -0.7585
 3057TIP3    H130662   0.452   0.191  16.111 -0.0283  0.2030 -0.8801
 3057TIP3    H230663   0.388   0.299  16.196  0.3671 -0.4004  0.2060
 3058TIP3   OH230664   0.161   3.710   0.263  0.5324 -0.5265  0.1251
 3058TIP3    H130665   0.068   3.688   0.265  0.3083  0.2409 -0.7624
 3058TIP3    H230666   0.177   3.755   0.346  0.6330 -2.5232  1.2373
 3059TIP3   OH230667   1.682   1.431  15.170 -0.3846 -0.6020  0.6343
 3059TIP3    H130668   1.615   1.490  15.137  0.3521  0.3878  0.8662
 3059TIP3    H230669   1.633   1.356  15.204 -1.2012 -1.5147 -2.2768
 3060TIP3   OH230670   5.631   2.279   4.504  0.2729 -0.2118  0.0165
 3060TIP3    H130671   5.568   2.226   4.456 -0.5740  0.8256 -0.0375
 3060TIP3    H230672   5.582   2.314   4.578  0.3268  1.8503 -0.8570
 3061TIP3   OH230673   6.404   0.932   4.157 -0.1898 -0.0851  0.1909
 3061TIP3    H130674   6.362   0.874   4.220  0.3536 -0.6865  0.0017
 3061TIP3    H230675   6.355   1.014   4.164  0.9332  0.4690  2.6636
 3062TIP3   OH230676   4.572   0.908  11.367  0.6319 -0.5009  0.8736
 3062TIP3    H130677   4.537   0.997  11.369  0.1921 -0.6750  1.8950
 3062TIP3    H230678   4.660   0.917  11.331 -0.4061 -0.0414 -1.7557
 3063TIP3   OH230679   3.154   2.665   1.331 -0.0375  0.2869 -0.5318
 3063TIP3    H130680   3.103   2.732   1.376 -1.8315 -1.9184  1.0130
 3063TIP3    H230681   3.235   2.659   1.381 -1.1308 -0.6793  1.2530
 3064TIP3   OH230682   5.694   5.648  15.308  0.3856 -0.5336 -0.3412
 3064TIP3    H130683   5.662   5.559  15.326  0.9521 -0.7018 -0.1222
 3064TIP3    H230684   5.698   5.689  15.394 -2.6407  0.7144 -0.6733
 3065TIP3   OH230685   5.228   2.637   5.678  0.2730  0.1653 -0.2131
 3065TIP3    H130686   5.191   2.693   5.610 -1.3210  0.3357  0.7279
 3065TIP3    H230687   5.177   2.659   5.757 -0.6990 -2.8653  0.1185
 3066TIP3   OH230688   1.562   2.917   0.229  0.4049 -0.3006  0.3778
 3066TIP3    H130689   1.617   2.912   0.150 -0.4190 -1.4306 -0.1641
 3066TIP3    H230690   1.488   2.972   0.203  0.0149 -0.8654  0.2789
 3067TIP3   OH230691   4.691   1.433  16.737  0.2139 -0.6251  0.5279
 3067TIP3    H130692   4.656   1.398  16.655  0.1532 -0.3169  0.4220
 3067TIP3    H230693   4.724   1.519  16.714  0.1354 -0.5106  0.8438
 3068TIP3   OH230694   4.466   3.841  16.330 -0.3385  0.0553 -0.7044
 3068TIP3    H130695   4.547   3.827  16.281 -1.0518 -0.3947 -1.7929
 3068TIP3    H230696   4.447   3.934  16.319  0.5859  0.4025  0.4675
 3069TIP3   OH230697   2.531   2.590   3.679  0.4527  0.3549 -0.0875
 3069TIP3    H130698   2.514   2.676   3.640  0.4932 -0.0578 -1.0594
 3069TIP3    H230699   2.515   2.602   3.772  1.9256  1.8038  0.0225
 3070TIP3   OH230700   6.177   3.615  12.888 -0.1246  0.1476 -0.2959
 3070TIP3    H130701   6.179   3.700  12.842  0.2915 -0.1449 -0.8299
 3070TIP3    H230702   6.105   3.568  12.846 -1.1436  0.6729  0.8139
 3071TIP3   OH230703   1.090   4.538   0.532 -0.6074  0.2778  0.2234
 3071TIP3    H130704   1.038   4.618   0.539 -0.3854  0.4152  0.3372
 3071TIP3    H230705   1.175   4.568   0.501 -0.2346  0.2119  1.1297
 3072TIP3   OH230706   4.879   5.423  16.194  0.2910 -0.2675  0.7663
 3072TIP3    H130707   4.791   5.417  16.155  0.9991 -0.2123 -0.9574
 3072TIP3    H230708   4.866   5.463  16.279 -1.3461 -0.1588  0.4893
 3073TIP3   OH230709   2.433   5.303   1.550  0.3103  0.1172  0.2268
 3073TIP3    H130710   2.398   5.317   1.638  1.5456 -3.7382  1.5303
 3073TIP3    H230711   2.366   5.251   1.505  1.1333 -0.9108  0.1522
 3074TIP3   OH230712   4.678   0.662   3.323  0.3258 -0.2997  0.5482
 3074TIP3    H130713   4.624   0.701   3.254 -0.9177  0.4378  1.8806
 3074TIP3    H230714   4.763   0.649   3.282 -0.3020  0.3512 -1.0488
 3075TIP3   OH230715   4.416   2.118   2.014 -0.5624  0.1684  0.0120
 3075TIP3    H130716   4.480   2.117   2.085  0.5850  0.8790 -0.9795
 3075TIP3    H230717   4.403   2.211   1.994  0.5900 -0.0381 -1.9471
 3076TIP3   OH230718   0.912   0.669   4.630  0.4010 -0.5596 -0.6096
 3076TIP3    H130719   0.967   0.708   4.698 -1.2975 -2.5227  2.0911
 3076TIP3    H230720   0.824   0.703   4.647 -0.1805 -1.5924 -1.3976
 3077TIP3   OH230721   5.123   2.455   2.654 -0.4099 -0.4702  0.5371
 3077TIP3    H130722   5.110   2.418   2.566  2.6018  2.5762 -1.4264
 3077TIP3    H230723   5.036   2.485   2.680 -1.1904 -0.2203 -2.0303
 3078TIP3   OH230724   3.717   0.324  13.673  0.3086  0.1468  0.3810
 3078TIP3    H130725   3.732   0.409  13.631 -0.1580  0.7415  1.3585
 3078TIP3    H230726   3.638   0.337  13.725  0.0312 -1.0043  0.2636
 3079TIP3   OH230727   0.873   6.790  13.112 -0.2234 -0.2758  0.1312
 3079TIP3    H130728   0.784   6.825  13.115 -0.0899  0.0129  0.8101
 3079TIP3    H230729   0.874   6.737  13.033 -0.5946  0.8189 -0.6433
 3080TIP3   OH230730   0.545   5.034  11.898  0.1606 -0.1183  0.5268
 3080TIP3    H130731   0.543   5.027  11.803  2.3973  1.1918  0.3074
 3080TIP3    H230732   0.545   5.128  11.916  0.3308 -0.3345  1.7828
 3081TIP3   OH230733   1.938   1.640   2.017  0.4095  0.4950 -0.0815
 3081TIP3    H130734   1.983   1.680   1.942  1.9309  1.4562  1.2544
 3081TIP3    H230735   1.941   1.546   2.000  1.5216  0.6446 -0.8421
 3082TIP3   OH230736   5.884   6.076  12.109  0.4333  0.4295  0.1557
 3082TIP3    H130737   5.894   5.984  12.136 -2.8286 -0.3271 -0.8395
 3082TIP3    H230738   5.967   6.096  12.066  0.7629 -2.5125 -0.8239
 3083TIP3   OH230739   0.852   3.329   4.226 -0.5091 -0.0042  0.0987
 3083TIP3    H130740   0.939   3.333   4.266 -0.2605 -0.5106 -0.3651
 3083TIP3    H230741   0.840   3.236   4.207 -1.0819  0.0886  0.0042
 3084TIP3   OH230742   1.002   1.725   4.747 -0.1350  0.0077 -0.2417
 3084TIP3    H130743   0.943   1.772   4.687  0.1418 -2.4424 -2.5872
 3084TIP3    H230744   1.045   1.659   4.693  2.4868 -0.3683  2.0549
 3085TIP3   OH230745   5.148   2.032   4.840  0.1421 -0.0614 -0.0310
 3085TIP3    H130746   5.157   2.125   4.820  1.5010  0.3526  2.1293
 3085TIP3    H230747   5.154   1.988   4.755 -1.5908  1.8336 -1.2196
 3086TIP3   OH230748   4.786   1.189   0.154  0.0854 -0.4780  0.2433
 3086TIP3    H130749   4.765   1.282   0.163 -0.7803 -0.6402 -0.0056
 3086TIP3    H230750   4.716   1.144   0.200  0.5633 -1.0110  0.4617
 3087TIP3   OH230751   2.643   2.019  11.317 -0.5199 -0.3098  0.2260
 3087TIP3    H130752   2.604   1.938  11.349 -0.6572 -0.4598 -0.3121
 3087TIP3    H230753   2.735   1.999  11.305 -0.8296 -0.9054 -1.4911
 3088TIP3   OH230754   4.940   6.751  14.911 -0.2321 -0.0121  0.1421
 3088TIP3    H130755   4.866   6.691  14.903 -0.6075  0.3680  0.7374
 3088TIP3    H230756   4.901   6.838  14.919  0.2111  0.0637  1.8946
 3089TIP3   OH230757   3.296   5.367   2.969 -0.6835 -0.0274  0.2191
 3089TIP3    H130758   3.387   5.371   2.997 -0.7064  0.1634  0.2630
 3089TIP3    H230759   3.249   5.421   3.032 -1.0343 -1.2340  1.0331
 3090TIP3   OH230760   3.538   5.513  15.468  0.2103 -0.5472  0.2808
 3090TIP3    H130761   3.574   5.585  15.415  0.1360 -0.2425  0.6453
 3090TIP3    H230762   3.552   5.539  15.558 -0.7550 -0.5040  0.4355
 3091TIP3   OH230763   2.561   3.155  12.646 -0.4164  0.0621 -0.0054
 3091TIP3    H130764   2.490   3.192  12.593  0.4460  1.4702 -0.2275
 3091TIP3    H230765   2.576   3.068  12.609 -0.4350  0.6708 -1.5050
 3092TIP3   OH230766   4.718   3.819  16.247  0.6267  0.2852 -0.0124
 3092TIP3    H130767   4.774   3.833  16.170  0.8875 -1.6672 -0.2337
 3092TIP3    H230768   4.714   3.723  16.257 -2.8774  0.2703 -0.1754
 3093TIP3   OH230769   3.799   4.893   5.772  0.0732  0.0201 -0.0887
 3093TIP3    H130770   3.836   4.836   5.840 -1.3239 -0.1219  0.5962
 3093TIP3    H230771   3.839   4.863   5.691 -0.2265 -1.6115  0.3244
 3094TIP3   OH230772   6.107   3.930  12.247 -0.0260  0.2667  0.3255
 3094TIP3    H130773   6.135   3.843  12.220 -1.8611 -0.0226 -0.8309
 3094TIP3    H230774   6.186   3.972  12.280  0.7064 -2.1840  1.9215
 3095TIP3   OH230775   2.512   4.158   0.020  0.2890  0.0162 -0.6218
 3095TIP3    H130776   2.544   4.236  -0.025 -0.6479  0.0045 -1.3329
 3095TIP3    H230777   2.566   4.152   0.099  0.8244  0.9880 -0.8997
 3096TIP3   OH230778   0.751   5.774   3.627  0.0494 -0.1536 -0.1115
 3096TIP3    H130779   0.797   5.793   3.709  0.0834 -0.2790 -0.1016
 3096TIP3    H230780   0.661   5.754   3.654 -0.3190  1.2600 -0.2300
 3097TIP3   OH230781   0.199   0.161  13.593  0.4787  0.3216 -0.4929
 3097TIP3    H130782   0.133   0.204  13.649  1.7307  1.4939  0.1551
 3097TIP3    H230783   0.240   0.097  13.651  0.4747  0.1845 -0.6440
 3098TIP3   OH230784   4.026   1.116  16.396 -0.3787  0.1376  0.3870
 3098TIP3    H130785   4.036   1.073  16.311  0.0634 -0.7320  0.8738
 3098TIP3    H230786   3.996   1.205  16.374  2.3569  0.8583 -0.8424
 3099TIP3   OH230787   4.161   5.048  15.559  0.1570 -0.0136 -0.3763
 3099TIP3    H130788   4.114   4.968  15.580  0.6934 -0.2757 -0.1591
 3099TIP3    H230789   4.222   5.022  15.490  0.9656 -0.0154  0.3183
 3100TIP3   OH230790   5.259   5.213  13.722  0.2072  0.3762 -0.4778
 3100TIP3    H130791   5.204   5.137  13.702  1.4649 -1.4534  2.3351
 3100TIP3    H230792   5.307   5.230  13.640 -0.2432 -1.7552 -1.2502
 3101TIP3   OH230793   3.120   4.389  14.428 -0.1792 -0.0331 -0.4157
 3101TIP3    H130794   3.154   4.477  14.445  0.1978 -0.3063  0.2833
 3101TIP3    H230795   3.030   4.403  14.398  0.0665  0.6190 -0.8691
 3102TIP3   OH230796   2.139   2.800  15.164 -0.2040  0.0945  0.0245
 3102TIP3    H130797   2.131   2.743  15.087 -0.9051 -1.0939  0.9476
 3102TIP3    H230798   2.052   2.837  15.176 -0.4264 -0.6629  0.9191
 3103TIP3   OH230799   1.505   3.921   6.148 -0.6659  0.0331 -0.7610
 3103TIP3    H130800   1.483   3.966   6.228  0.9590  2.3201 -1.4956
 3103TIP3    H230801   1.577   3.863   6.172  0.4762  1.4275 -0.6927
 3104TIP3   OH230802   0.833   5.520   4.905 -0.0350 -0.3637 -0.4320
 3104TIP3    H130803   0.741   5.493   4.896 -0.1888  0.2597 -0.7685
 3104TIP3    H230804   0.834   5.576   4.983  0.2433 -1.1218  0.1298
 3105TIP3   OH230805   2.417   0.431  14.264  0.4882 -0.5474 -0.3712
 3105TIP3    H130806   2.364   0.372  14.211  0.1113  1.2505 -2.1084
 3105TIP3    H230807   2.465   0.484  14.201  1.7386  0.1858  1.1337
 3106TIP3   OH230808   4.828   2.150   1.916  0.4861  0.6375 -0.3622
 3106TIP3    H130809   4.912   2.104   1.909  0.5043  0.8468 -2.2062
 3106TIP3    H230810   4.848   2.228   1.967  1.4982  0.8071 -0.9763
 3107TIP3   OH230811   2.761   5.241   2.681 -0.2662  0.1268 -0.0875
 3107TIP3    H130812   2.755   5.154   2.719 -2.0576 -0.4236 -1.4819
 3107TIP3    H230813   2.779   5.299   2.755 -1.0498 -1.1820  1.1666
 3108TIP3   OH230814   2.665   6.728  12.592  0.1495  0.2495 -0.4543
 3108TIP3    H130815   2.664   6.664  12.522  0.4332  0.1609 -0.3799
 3108TIP3    H230816   2.627   6.807  12.554 -1.4267 -0.3474 -0.1694
 3109TIP3   OH230817   1.468   6.578   3.143  0.4265  0.2841 -0.4467
 3109TIP3    H130818   1.563   6.584   3.155  0.5213 -0.1627 -0.9641
 3109TIP3    H230819   1.454   6.494   3.099 -0.4117 -0.8060  1.7299
 3110TIP3   OH230820   0.474   2.605   0.859  0.3415 -0.5958  0.3287
 3110TIP3    H130821   0.461   2.700   0.860 -0.7693 -0.7294  0.4152
 3110TIP3    H230822   0.545   2.590   0.921  2.2883  0.3783 -1.5358
 3111TIP3   OH230823   0.036   3.956   4.859  0.3103  0.3015  0.5268
 3111TIP3    H130824   0.042   3.929   4.767  2.1337  2.7521 -0.1843
 3111TIP3    H230825   0.114   3.919   4.900 -1.7698 -3.0368  1.9087
 3112TIP3   OH230826   3.170   2.649  16.837 -0.3927 -0.5313  0.4299
 3112TIP3    H130827   3.102   2.607  16.785 -2.2081 -0.0503  2.2695
 3112TIP3    H230828   3.123   2.687  16.911  1.8018  0.5467  1.3558
 3113TIP3   OH230829   6.303   2.394  12.254  0.5341  0.4809  0.4461
 3113TIP3    H130830   6.356   2.326  12.297 -0.2065  0.2440  1.0114
 3113TIP3    H230831   6.235   2.415  12.318 -0.6734  0.0286 -0.6499
 3114TIP3   OH230832   2.418   1.815   1.415 -0.4061 -0.2967  0.2752
 3114TIP3    H130833   2.497   1.804   1.467  0.0639 -1.0653 -0.5823
 3114TIP3    H230834   2.351   1.764   1.461 -0.0588 -0.7655  0.2615
 3115TIP3   OH230835   2.517   3.111   6.148  0.2442  0.0140 -0.0664
 3115TIP3    H130836   2.449   3.079   6.088 -0.7944  1.7761  0.1180
 3115TIP3    H230837   2.599   3.077   6.111 -0.4941 -0.0523 -1.7418
 3116TIP3   OH230838   5.725   2.724  11.746  0.5977  0.6425  0.1267
 3116TIP3    H130839   5.785   2.752  11.676 -1.7638  0.4611 -2.1525
 3116TIP3    H230840   5.710   2.631  11.729 -0.2176  0.6532  0.7229
 3117TIP3   OH230841   0.826   4.546  16.600 -0.1525  0.1776  0.0068
 3117TIP3    H130842   0.807   4.574  16.690  0.7979 -1.6959  0.8484
 3117TIP3    H230843   0.824   4.627  16.549 -2.0057  1.1333  1.4616
 3118TIP3   OH230844   4.281   6.439   4.275  0.2560  0.0247  0.6718
 3118TIP3    H130845   4.285   6.508   4.209 -0.8496 -2.0854 -1.7835
 3118TIP3    H230846   4.217   6.471   4.339 -1.6527  0.5591 -1.3894
 3119TIP3   OH230847   1.741   4.780   6.235  0.1258 -0.2166  0.1948
 3119TIP3    H130848   1.766   4.743   6.151 -1.2290 -1.6537  0.3885
 3119TIP3    H230849   1.781   4.868   6.236  2.5302 -1.2171 -0.7340
 3120TIP3   OH230850   5.270   4.579   4.472 -0.0709 -0.0583 -0.3978
 3120TIP3    H130851   5.187   4.565   4.425 -1.1137  1.3016  0.9568
 3120TIP3    H230852   5.308   4.491   4.479 -1.6470 -0.7967 -0.5943
 3121TIP3   OH230853   1.480   0.904   5.067 -0.2294  0.0766 -0.5311
 3121TIP3    H130854   1.545   0.834   5.065 -0.5064 -0.3750  2.2997
 3121TIP3    H230855   1.492   0.951   4.985  0.7177 -2.6063 -2.0370
 3122TIP3   OH230856   2.625   5.678   0.980 -0.0952  0.3218  0.1735
 3122TIP3    H130857   2.668   5.617   1.041  0.3891  0.2177 -0.2646
 3122TIP3    H230858   2.655   5.650   0.894  1.2696  2.0707  0.0446
 3123TIP3   OH230859   2.503   3.094  14.931  0.6448  0.5095 -0.2633
 3123TIP3    H130860   2.572   3.126  14.989 -1.4878  1.6114  1.8323
 3123TIP3    H230861   2.512   2.999  14.933  1.0643  0.5662  1.3261
 3124TIP3   OH230862   4.918   2.501  13.410 -0.0779 -0.4876  0.8738
 3124TIP3    H130863   5.008   2.473  13.430 -0.9997 -2.3601  2.7132
 3124TIP3    H230864   4.881   2.525  13.495 -1.3171  0.3679  0.1284
 3125TIP3   OH230865   1.769   1.977  16.910  0.4486  0.1494 -0.0476
 3125TIP3    H130866   1.692   2.001  16.858  0.0528 -0.0342  0.4458
 3125TIP3    H230867   1.771   2.042  16.980  0.4582 -0.1380  0.2191
 3126TIP3   OH230868   2.327   0.973  15.253  0.1013 -0.1892  0.3415
 3126TIP3    H130869   2.332   1.043  15.187 -0.7340  1.8054  2.2488
 3126TIP3    H230870   2.235   0.946  15.252  0.1766 -0.4455  0.4037
 3127TIP3   OH230871   3.476   0.568   5.010 -0.3491 -0.2525 -0.4056
 3127TIP3    H130872   3.553   0.614   5.043 -0.6333  0.6033 -0.9122
 3127TIP3    H230873   3.406   0.593   5.070  0.1187 -2.6002  1.2790
 3128TIP3   OH230874   6.150   5.026   0.931  0.0718  0.3302  0.0677
 3128TIP3    H130875   6.085   4.955   0.924  0.9090 -0.4969  0.4511
 3128TIP3    H230876   6.206   5.014   0.855  0.5787  0.2023  0.4580
 3129TIP3   OH230877   4.099   1.411   3.605 -0.4148  0.5849 -0.3055
 3129TIP3    H130878   4.042   1.417   3.529 -1.2086 -0.2317  0.2125
 3129TIP3    H230879   4.181   1.375   3.571 -0.8839 -0.1116 -0.7109
 3130TIP3   OH230880   2.484   1.939  14.980  0.7831  0.5966 -0.0745
 3130TIP3    H130881   2.571   1.979  14.975  0.6687  0.6506 -2.3308
 3130TIP3    H230882   2.483   1.872  14.912 -0.9001  0.5079 -0.0103
 3131TIP3   OH230883   6.224   2.637  14.876 -0.4355  0.2546  0.2425
 3131TIP3    H130884   6.237   2.646  14.782  1.9492 -2.9139  0.1098
 3131TIP3    H230885   6.228   2.726  14.910 -1.6799  1.5219 -2.6106
 3132TIP3   OH230886   5.654   5.575   2.667  0.0116  1.1822 -0.1077
 3132TIP3    H130887   5.710   5.570   2.589 -0.3369 -1.0650 -0.2673
 3132TIP3    H230888   5.583   5.513   2.650 -0.1958  0.8053  1.8960
 3133TIP3   OH230889   6.543   2.555   1.861  0.1835  0.0004 -0.6683
 3133TIP3    H130890   6.566   2.549   1.954  1.1344  0.4262 -0.8601
 3133TIP3    H230891   6.448   2.549   1.859  0.1712 -0.2743  0.3138
 3134TIP3   OH230892   0.496   0.767   3.406  0.6883 -0.2769 -0.0572
 3134TIP3    H130893   0.494   0.810   3.492 -2.5905  0.1805 -0.2057
 3134TIP3    H230894   0.474   0.676   3.425  1.0218 -0.4127 -0.3250
 3135TIP3   OH230895   2.000   4.619   6.367  0.1760  0.4685 -0.1784
 3135TIP3    H130896   1.952   4.669   6.301 -1.2851 -0.8031 -0.1426
 3135TIP3    H230897   2.008   4.532   6.330  0.6317  0.1217  0.7122
 3136TIP3   OH230898   3.452   2.358   4.297  0.5130  0.1269  0.1987
 3136TIP3    H130899   3.415   2.325   4.215  0.6035 -0.3441  0.3464
 3136TIP3    H230900   3.512   2.289   4.326  1.0950  0.6442  0.2464
 3137TIP3   OH230901   3.752   6.502  13.232 -0.4051  0.2943  0.4919
 3137TIP3    H130902   3.786   6.436  13.293 -0.6105 -2.8351 -2.4685
 3137TIP3    H230903   3.658   6.507  13.252 -0.5531 -1.0356  0.2141
 3138TIP3   OH230904   5.551   5.189   5.189  0.1229  0.1671 -0.3871
 3138TIP3    H130905   5.511   5.115   5.234  1.5087  1.8406  4.1350
 3138TIP3    H230906   5.478   5.233   5.145 -1.2328 -2.0708 -0.5126
 3139TIP3   OH230907   5.440   5.918   4.542  0.6637  0.5915 -0.5801
 3139TIP3    H130908   5.376   5.979   4.505 -1.2775 -0.2144  1.2448
 3139TIP3    H230909   5.417   5.834   4.504  0.8841  0.3607 -0.2065
 3140TIP3   OH230910   6.411   1.023  13.290  0.4144 -0.1115 -0.2514
 3140TIP3    H130911   6.471   1.096  13.275  1.6041 -0.9506  0.2787
 3140TIP3    H230912   6.378   1.037  13.379  0.0637  0.1765 -0.4248
 3141TIP3   OH230913   5.041   4.321   2.382 -0.4528  0.6342  0.5007
 3141TIP3    H130914   5.067   4.265   2.308  0.2507  2.1249 -0.4219
 3141TIP3    H230915   4.964   4.368   2.351  0.5427  2.1426  0.2592
 3142TIP3   OH230916   1.173   3.297  13.701 -0.0155 -0.3727  0.5690
 3142TIP3    H130917   1.199   3.288  13.610 -0.6071 -0.2398  0.3816
 3142TIP3    H230918   1.203   3.385  13.726 -1.4059  0.3121 -0.0397
 3143TIP3   OH230919   6.030   0.519   4.683  0.2599 -0.2269  0.1734
 3143TIP3    H130920   6.125   0.513   4.677  0.3040  0.5712 -0.0113
 3143TIP3    H230921   6.013   0.525   4.777  0.5331  1.5326  0.1378
 3144TIP3   OH230922   3.603   2.118  16.279 -0.0346 -0.2922  0.0496
 3144TIP3    H130923   3.615   2.206  16.242  0.0672 -1.6424 -3.4567
 3144TIP3    H230924   3.515   2.093  16.254  0.1760 -1.4754  0.4348
 3145TIP3   OH230925   5.845   0.864   4.816  0.1743 -0.0333  0.1712
 3145TIP3    H130926   5.885   0.813   4.886 -1.2862 -0.4847  0.7315
 3145TIP3    H230927   5.844   0.806   4.740  2.8132  0.8428 -0.6583
 3146TIP3   OH230928   4.284   1.433  12.871 -0.8042 -0.2009 -0.5831
 3146TIP3    H130929   4.297   1.528  12.881 -1.1465 -0.3253  1.2778
 3146TIP3    H230930   4.344   1.409  12.801 -0.0859  1.2525 -0.5162
 3147TIP3   OH230931   1.129   6.366   0.032 -0.1588  0.0357  0.7908
 3147TIP3    H130932   1.134   6.377   0.127 -0.1278 -1.3756  0.9825
 3147TIP3    H230933   1.052   6.310   0.019 -0.9418  1.2654 -0.1369
 3148TIP3   OH230934   5.799   5.464  12.452 -0.0585 -0.0814 -0.3673
 3148TIP3    H130935   5.760   5.512  12.379  0.4261 -1.3744 -1.5191
 3148TIP3    H230936   5.731   5.404  12.482 -0.8596  1.6030  1.4413
 3149TIP3   OH230937   0.588   1.402  12.131  0.0743  0.3763  0.5005
 3149TIP3    H130938   0.627   1.408  12.043  0.3230  1.9096  0.6891
 3149TIP3    H230939   0.593   1.309  12.152  0.3295  0.0199 -0.9691
 3150TIP3   OH230940   6.731   0.679  13.992 -0.6569  0.0506 -0.1042
 3150TIP3    H130941   6.782   0.599  13.979  0.1602  0.7612 -1.4231
 3150TIP3    H230942   6.794   0.750  13.984 -1.5551  0.8886  0.0070
 3151TIP3   OH230943   5.456   2.070  16.271  0.7510  0.1606 -0.3073
 3151TIP3    H130944   5.526   2.126  16.239  1.0695 -0.2000 -0.2585
 3151TIP3    H230945   5.411   2.123  16.337  1.3663  0.1817  0.1096
 3152TIP3   OH230946   3.457   5.014   1.659  0.3215  0.2052  0.4412
 3152TIP3    H130947   3.517   4.985   1.590  0.1127  0.2821  0.2278
 3152TIP3    H230948   3.380   5.046   1.612  0.3403  0.6290  0.6977
 3153TIP3   OH230949   4.177   1.008  15.836  0.4943  0.5803 -0.2735
 3153TIP3    H130950   4.111   1.017  15.767 -0.4618  1.6774  0.7407
 3153TIP3    H230951   4.230   1.087  15.830  0.3017  0.7639  0.3477
 3154TIP3   OH230952   0.581   5.743  13.886  0.2894  0.4258 -0.1397
 3154TIP3    H130953   0.524   5.679  13.844 -1.0843  1.3942  0.1541
 3154TIP3    H230954   0.606   5.702  13.969 -0.6150  0.2728  0.0704
 3155TIP3   OH230955   4.843   3.550  13.495  0.0288  0.6506 -0.1980
 3155TIP3    H130956   4.932   3.517  13.505 -0.0234 -0.2088 -2.0868
 3155TIP3    H230957   4.855   3.639  13.461  0.2206  0.0925 -1.6854
 3156TIP3   OH230958   6.143   2.978   5.536 -0.1166  0.1685 -0.8826
 3156TIP3    H130959   6.145   3.068   5.505 -0.7963  0.3856 -0.3119
 3156TIP3    H230960   6.051   2.960   5.555  0.1037 -0.3963 -0.2784
 3157TIP3   OH230961   1.252   0.298   4.053  0.1687  0.4391  0.2225
 3157TIP3    H130962   1.189   0.264   4.117  0.1632 -0.5606 -0.2836
 3157TIP3    H230963   1.249   0.234   3.981  2.7636 -0.4555  0.7906
 3158TIP3   OH230964   5.721   1.758  14.008  0.1263 -0.1328 -0.2699
 3158TIP3    H130965   5.631   1.741  14.033  0.7354 -0.5568  1.8984
 3158TIP3    H230966   5.768   1.677  14.029  0.8595 -0.3200 -2.4028
 3159TIP3   OH230967   6.236   1.481  17.047 -0.1559 -0.0983 -0.3982
 3159TIP3    H130968   6.263   1.570  17.022  0.9436 -0.3416 -0.1064
 3159TIP3    H230969   6.217   1.487  17.141 -0.8702  0.0011 -0.5395
 3160TIP3   OH230970   1.481   4.239   6.571 -0.1438  0.5008  0.1994
 3160TIP3    H130971   1.428   4.209   6.646 -1.3522  0.2046 -0.7389
 3160TIP3    H230972   1.530   4.314   6.605 -1.0263  0.6691  1.1640
 3161TIP3   OH230973   0.918   2.485   2.164  0.0031 -0.3401 -0.2622
 3161TIP3    H130974   0.850   2.425   2.133 -0.7109 -0.0333  0.6691
 3161TIP3    H230975   0.943   2.534   2.086 -1.5963  0.2668 -0.4321
 3162TIP3   OH230976   1.248   6.295  14.703 -0.3202  0.0565 -0.6116
 3162TIP3    H130977   1.279   6.207  14.724  2.4887  0.7257 -1.4964
 3162TIP3    H230978   1.211   6.287  14.615 -0.3987 -0.2873 -0.5470
 3163TIP3   OH230979   0.473   5.911  12.745 -0.7333  0.0493 -0.0674
 3163TIP3    H130980   0.485   5.830  12.695  1.1043 -0.6234  1.3585
 3163TIP3    H230981   0.432   5.883  12.827 -0.5737  0.6259  0.2161
 3164TIP3   OH230982   1.896   3.987   0.511 -0.1011 -0.1304 -0.1485
 3164TIP3    H130983   1.826   3.955   0.567 -0.9181  0.0403 -1.0469
 3164TIP3    H230984   1.973   3.937   0.538 -0.3037  0.3976  1.5549
 3165TIP3   OH230985   2.268   1.309  11.244  0.1670  0.4888  0.1544
 3165TIP3    H130986   2.186   1.321  11.197  0.0679 -0.4583  0.0545
 3165TIP3    H230987   2.331   1.363  11.198 -0.0578  0.0281 -0.7166
 3166TIP3   OH230988   0.308   2.830   1.516  0.3156  0.0784  0.0933
 3166TIP3    H130989   0.318   2.756   1.455 -0.7499 -0.5122  0.5987
 3166TIP3    H230990   0.278   2.902   1.460  2.5056  0.5072 -0.6025
 3167TIP3   OH230991   2.958   2.436  13.573  0.3756 -0.2169  0.1802
 3167TIP3    H130992   2.985   2.508  13.516  1.1515  0.5254  1.4268
 3167TIP3    H230993   3.001   2.455  13.657 -1.3105 -0.8558  1.2459
 3168TIP3   OH230994   2.222   2.993  17.010  0.0764 -0.4439  0.0885
 3168TIP3    H130995   2.162   3.063  17.036 -0.3591 -1.1569  1.1178
 3168TIP3    H230996   2.185   2.958  16.929 -0.4332 -0.3374  0.2748
 3169TIP3   OH230997   3.905   1.583   4.643 -0.7411 -0.7209 -0.5045
 3169TIP3    H130998   3.977   1.630   4.686 -0.3610 -1.9155  0.1932
 3169TIP3    H230999   3.826   1.628   4.674 -0.5673 -2.1989  2.4182
 3170TIP3   OH231000   0.906   4.633   0.850  0.1540  0.0427 -0.2267
 3170TIP3    H131001   0.903   4.726   0.871  0.3042  0.4479 -1.8788
 3170TIP3    H231002   0.834   4.620   0.788 -1.9522 -1.6284  2.3491
 3171TIP3   OH231003   5.139   0.002  14.390  0.3768  0.1310 -0.2917
 3171TIP3    H131004   5.206   0.039  14.332  0.2274 -0.4235 -0.8182
 3171TIP3    H231005   5.056   0.022  14.348  0.0624  2.1938  1.1210
 3172TIP3   OH231006   5.565   2.977  11.010  0.6267 -0.9595 -0.1354
 3172TIP3    H131007   5.567   2.894  11.056 -1.4348 -1.8595 -1.5370
 3172TIP3    H231008   5.633   3.029  11.052 -0.6997 -1.8749  3.5137
 3173TIP3   OH231009   4.623   6.440  17.071  0.0480 -0.3453  0.0946
 3173TIP3    H131010   4.687   6.511  17.064  0.9112 -1.1130  0.1477
 3173TIP3    H231011   4.541   6.480  17.041  0.3792  0.8513  0.6937
 3174TIP3   OH231012   3.156   2.265   2.080  0.3399 -0.2128 -0.4572
 3174TIP3    H131013   3.101   2.258   2.002 -0.7801 -1.2155  0.3761
 3174TIP3    H231014   3.231   2.210   2.062 -0.2849 -1.0532 -0.5474
 3175TIP3   OH231015   4.360   6.690   2.900  0.0588  0.1110  0.1056
 3175TIP3    H131016   4.386   6.598   2.899  1.3842  0.4423  0.9159
 3175TIP3    H231017   4.273   6.691   2.861  1.4203 -1.0274 -3.4137
 3176TIP3   OH231018   3.464   1.049   2.077  0.3309  0.2502  0.1918
 3176TIP3    H131019   3.471   0.960   2.042  0.6543 -0.4370  1.9523
 3176TIP3    H231020   3.526   1.052   2.149 -0.0716  1.7363  0.5037
 3177TIP3   OH231021   6.350   6.702   0.787 -0.6700  0.1900 -0.0574
 3177TIP3    H131022   6.354   6.785   0.836 -1.3844  1.3526 -1.8545
 3177TIP3    H231023   6.415   6.712   0.718 -1.2788 -0.4491 -0.7308
 3178TIP3   OH231024   6.619   3.519   1.461  0.0201 -0.3741  0.2602
 3178TIP3    H131025   6.571   3.602   1.455 -0.5040 -0.6690  0.3004
 3178TIP3    H231026   6.554   3.453   1.435  0.6261 -0.7077 -0.4448
 3179TIP3   OH231027   6.794   1.829   5.803 -0.0973  0.2052  0.2454
 3179TIP3    H131028   6.824   1.836   5.713 -0.0695  0.3449  0.2648
 3179TIP3    H231029   6.788   1.735   5.820 -0.3357  0.1805  0.0218
 3180TIP3   OH231030   3.987   2.857   3.963  0.0949  0.1715 -0.1649
 3180TIP3    H131031   3.952   2.945   3.948  1.2668  0.3917 -1.9241
 3180TIP3    H231032   4.082   2.868   3.958  0.2501 -1.2515 -0.9622
 3181TIP3   OH231033   6.834   4.042  12.935  0.4870 -0.7835  0.3167
 3181TIP3    H131034   6.806   3.957  12.970 -0.1288 -0.7542 -0.0947
 3181TIP3    H231035   6.857   4.024  12.844 -0.1692 -0.4081  0.0721
 3182TIP3   OH231036   0.328   0.604  13.416 -0.3099 -0.0011 -0.0951
 3182TIP3    H131037   0.361   0.691  13.439 -0.7585  0.6005 -1.5917
 3182TIP3    H231038   0.275   0.578  13.491  0.7492  0.5142  0.8600
 3183TIP3   OH231039   3.423   4.294  14.327 -0.0351 -0.9040  0.5028
 3183TIP3    H131040   3.500   4.249  14.361  1.0065 -0.0354 -0.6294
 3183TIP3    H231041   3.442   4.387  14.340 -0.9697 -0.6853  0.3686
 3184TIP3   OH231042   1.565   6.409   2.206  0.0129  0.2481  0.2226
 3184TIP3    H131043   1.516   6.408   2.288 -0.4985  0.7634 -0.0706
 3184TIP3    H231044   1.511   6.361   2.144 -0.9804  2.2780 -0.5612
 3185TIP3   OH231045   2.633   4.605  15.888  0.5820 -0.5252 -0.4658
 3185TIP3    H131046   2.609   4.648  15.806 -2.2338 -0.4915  0.2813
 3185TIP3    H231047   2.684   4.671  15.935 -2.0494  1.3912 -0.1345
 3186TIP3   OH231048   4.298   1.962  17.066 -0.0465  0.1526  0.2895
 3186TIP3    H131049   4.224   1.901  17.074  0.4553 -0.3004  1.9050
 3186TIP3    H231050   4.368   1.910  17.027 -0.0807  0.1319  0.2558
 3187TIP3   OH231051   2.399   5.721  13.201  0.1729 -0.2084  0.4779
 3187TIP3    H131052   2.335   5.657  13.232 -0.2928 -0.0576 -0.1389
 3187TIP3    H231053   2.474   5.669  13.173 -0.4082 -0.5501 -0.5218
 3188TIP3   OH231054   5.082   0.347   2.788  0.8732  0.3938 -0.4162
 3188TIP3    H131055   5.018   0.383   2.850  0.3455  2.1111 -1.8897
 3188TIP3    H231056   5.145   0.301   2.844  0.0809  1.3160  1.3331
 3189TIP3   OH231057   5.470   3.522  11.384 -0.2994 -0.4238 -0.0666
 3189TIP3    H131058   5.542   3.516  11.447 -0.0353  0.4889 -0.2649
 3189TIP3    H231059   5.396   3.481  11.428 -0.4883  1.3575  1.4145
 3190TIP3   OH231060   3.032   4.125   5.172  0.7321  0.3250  0.1507
 3190TIP3    H131061   3.036   4.180   5.093  0.1121 -1.2149 -1.0124
 3190TIP3    H231062   3.073   4.178   5.240 -0.9072  2.7406 -0.5905
 3191TIP3   OH231063   3.479   1.305  13.511  0.7477  0.0762 -0.5256
 3191TIP3    H131064   3.411   1.242  13.536  2.4220 -2.0110 -0.9342
 3191TIP3    H231065   3.519   1.332  13.594  0.7310 -0.2441 -0.4138
 3192TIP3   OH231066   1.523   1.633  15.492 -0.2175 -0.0559 -0.2746
 3192TIP3    H131067   1.443   1.583  15.508  1.5759 -2.4132  2.2762
 3192TIP3    H231068   1.578   1.574  15.441  1.0495  0.2365  0.7146
 3193TIP3   OH231069   0.259   0.483  10.713 -0.5825  0.3186 -0.4223
 3193TIP3    H131070   0.302   0.538  10.648  0.4092  0.8140  0.6160
 3193TIP3    H231071   0.302   0.398  10.705 -0.4395  0.3876 -0.3924
 3194TIP3   OH231072   4.855   1.178  12.795 -0.3551 -0.4193 -0.2124
 3194TIP3    H131073   4.866   1.192  12.701  2.5337  0.3422  0.1503
 3194TIP3    H231074   4.917   1.108  12.816 -0.9102 -0.5295  1.1644
 3195TIP3   OH231075   6.699   6.808  11.965  0.3911  0.4296  0.5690
 3195TIP3    H131076   6.794   6.804  11.961  0.3985  0.5149  0.6422
 3195TIP3    H231077   6.669   6.740  11.905  0.4981  0.3367  0.6213
 3196TIP3   OH231078   1.958   2.021  13.700  0.9514 -0.1789  0.2819
 3196TIP3    H131079   2.007   2.003  13.780 -1.1624 -1.1791  1.4412
 3196TIP3    H231080   1.920   2.108  13.714 -0.6795 -0.9801  1.1133
 3197TIP3   OH231081   1.314   4.089  16.469 -0.4544 -0.0258  0.3847
 3197TIP3    H131082   1.344   4.015  16.415 -0.5573  1.0220 -1.1637
 3197TIP3    H231083   1.339   4.064  16.558  1.0970 -1.1612 -0.3018
 3198TIP3   OH231084   2.454   5.875  14.332 -0.3339 -0.2813 -0.0149
 3198TIP3    H131085   2.485   5.826  14.257 -0.6408 -0.2674 -0.1548
 3198TIP3    H231086   2.524   5.868  14.397 -0.2618 -0.6806 -0.1322
 3199TIP3   OH231087   6.355   4.885  13.448 -0.1053 -0.1515 -0.0850
 3199TIP3    H131088   6.328   4.795  13.471  0.5645 -0.7864 -1.6598
 3199TIP3    H231089   6.448   4.878  13.430 -0.5575  0.2488 -2.9576
 3200TIP3   OH231090   5.014   1.278   3.216  0.2696 -0.2845  0.4828
 3200TIP3    H131091   4.955   1.342   3.256 -0.0630 -0.0648 -0.3434
 3200TIP3    H231092   5.006   1.293   3.122  0.7512 -1.0519  0.3086
 3201TIP3   OH231093   4.805   2.818  12.250 -0.5247 -0.0969  0.5279
 3201TIP3    H131094   4.850   2.889  12.206  1.0721 -1.4626 -0.1230
 3201TIP3    H231095   4.874   2.770  12.296 -1.3097 -2.1506 -0.3413
 3202TIP3   OH231096   5.689   4.849  12.814  0.8602 -0.1028 -0.1624
 3202TIP3    H131097   5.671   4.770  12.865  1.3900  0.6202  1.1774
 3202TIP3    H231098   5.773   4.880  12.847 -0.6498  2.6354  1.4572
 3203TIP3   OH231099   6.571   2.143  15.426 -0.2500 -0.3852  0.5275
 3203TIP3    H131100   6.550   2.116  15.515  2.2216 -2.5553  0.5816
 3203TIP3    H231101   6.512   2.093  15.370  0.7331 -2.0031  0.8668
 3204TIP3   OH231102   2.763   2.627   2.794 -0.3205  0.0918 -0.0993
 3204TIP3    H131103   2.695   2.665   2.849 -1.1675  0.2762 -1.2264
 3204TIP3    H231104   2.728   2.542   2.767  0.5717 -0.4880  0.5509
 3205TIP3   OH231105   4.371   5.095   1.398 -0.1635  0.7657 -0.4707
 3205TIP3    H131106   4.436   5.166   1.399  0.3211  0.3306  0.8928
 3205TIP3    H231107   4.415   5.024   1.351  0.6407  0.2434  1.0077
 3206TIP3   OH231108   6.671   6.690  12.235  0.2882  0.5805  0.3151
 3206TIP3    H131109   6.641   6.702  12.145 -0.0082 -0.2114  0.2944
 3206TIP3    H231110   6.659   6.596  12.252 -0.2812  0.8232  1.3895
 3207TIP3   OH231111   3.751   6.198  11.419  0.7227 -0.5435 -0.2302
 3207TIP3    H131112   3.712   6.121  11.377  0.0180 -1.1444  1.4535
 3207TIP3    H231113   3.746   6.180  11.513 -0.3378  1.9409  0.2769
 3208TIP3   OH231114   5.861   2.668  16.515  0.2377  0.0040 -0.4589
 3208TIP3    H131115   5.802   2.739  16.489 -0.4141  0.0371  1.0153
 3208TIP3    H231116   5.929   2.711  16.567 -0.2174 -0.4273  0.5330
 3209TIP3   OH231117   0.924   5.405  10.914 -0.1599  0.5602  0.5367
 3209TIP3    H131118   0.998   5.348  10.892 -1.2474 -0.8858  0.4272
 3209TIP3    H231119   0.911   5.459  10.836 -1.0443 -1.2553 -0.6583
 3210TIP3   OH231120   1.111   0.509  14.755 -0.4302 -0.0835 -0.0507
 3210TIP3    H131121   1.160   0.536  14.832 -0.1768 -0.5816 -0.0374
 3210TIP3    H231122   1.063   0.431  14.783 -1.3914  0.5020 -0.0021
 3211TIP3   OH231123   1.186   0.090   5.569 -0.3498 -0.2421  0.0397
 3211TIP3    H131124   1.270   0.084   5.615  0.2700  1.2932 -0.8104
 3211TIP3    H231125   1.168   0.184   5.564 -1.2254 -0.4513 -1.3648
 3212TIP3   OH231126   1.468   6.381   3.670 -0.3021 -0.1184 -0.4667
 3212TIP3    H131127   1.484   6.297   3.713  0.3583 -0.5538 -1.5303
 3212TIP3    H231128   1.483   6.364   3.577  0.2135  1.2689 -0.6631
 3213TIP3   OH231129   4.445   6.734   3.619  0.2236  0.0014  0.3253
 3213TIP3    H131130   4.528   6.761   3.581 -0.7520 -0.1839 -2.1663
 3213TIP3    H231131   4.402   6.816   3.642  0.0050  0.2793 -0.9771
 3214TIP3   OH231132   2.738   1.404  15.239 -0.3186 -0.2033 -0.2009
 3214TIP3    H131133   2.707   1.330  15.186 -1.1685  0.2714 -0.3902
 3214TIP3    H231134   2.658   1.447  15.269  0.1626  0.3124  0.3777
 3215TIP3   OH231135   6.445   1.973  13.589 -0.2021 -0.8668 -0.0863
 3215TIP3    H131136   6.449   1.880  13.613 -0.3895 -0.9028 -0.1973
 3215TIP3    H231137   6.500   1.980  13.511  0.3516 -0.7625  0.3049
 3216TIP3   OH231138   5.123   3.776  16.586  0.1653 -0.2964  0.0684
 3216TIP3    H131139   5.158   3.719  16.518  0.0382 -1.0675  0.6428
 3216TIP3    H231140   5.077   3.845  16.538 -2.0847 -2.1505 -0.6518
 3217TIP3   OH231141   4.583   3.020  11.828  0.2009  1.0497 -0.2150
 3217TIP3    H131142   4.504   2.967  11.832 -0.0111  1.4309  1.1354
 3217TIP3    H231143   4.638   2.977  11.762 -1.0426  0.6841 -1.0374
 3218TIP3   OH231144   1.399   5.902  13.654 -0.3145  0.3190 -0.2396
 3218TIP3    H131145   1.426   5.962  13.585  0.4574  0.1453 -0.0928
 3218TIP3    H231146   1.459   5.920  13.727 -0.6134 -0.0505  0.1037
 3219TIP3   OH231147   6.223   5.839  13.937 -0.4074 -0.1123 -0.3180
 3219TIP3    H131148   6.156   5.886  13.987  0.5536  1.5868 -0.5579
 3219TIP3    H231149   6.256   5.903  13.874  0.3250 -1.3994 -1.2982
 3220TIP3   OH231150   6.204   4.198   1.945 -0.8632  0.1995 -0.3753
 3220TIP3    H131151   6.143   4.128   1.923  1.8630 -2.1386 -1.1577
 3220TIP3    H231152   6.290   4.159   1.932  0.8479  3.8206 -1.0729
 3221TIP3   OH231153   2.783   1.964   0.029  0.9456  0.7834  0.2262
 3221TIP3    H131154   2.873   1.948   0.003  0.7787 -0.2383  0.2456
 3221TIP3    H231155   2.784   2.051   0.070  1.9375  0.7039  0.3728
 3222TIP3   OH231156   2.186   1.516   2.644 -0.1213 -0.0896 -0.2267
 3222TIP3    H131157   2.095   1.501   2.672 -0.7921  0.8989 -1.7553
 3222TIP3    H231158   2.238   1.462   2.704 -1.5708  0.6627  1.8674
 3223TIP3   OH231159   3.016   3.247   1.749 -0.6541  0.5873  0.3368
 3223TIP3    H131160   2.996   3.332   1.790 -2.9963  0.6243 -0.7166
 3223TIP3    H231161   3.062   3.271   1.669  1.1532  0.6619  1.3340
 3224TIP3   OH231162   0.104   1.748  12.150 -0.0990 -0.3654 -0.8709
 3224TIP3    H131163   0.165   1.677  12.173 -1.0092 -0.9738 -0.2192
 3224TIP3    H231164   0.157   1.827  12.153  0.3180 -0.6507  1.4642
 3225TIP3   OH231165   3.067   0.347  10.819 -0.0969  0.6633  0.5194
 3225TIP3    H131166   3.119   0.280  10.774  0.0946  0.3576  1.1749
 3225TIP3    H231167   3.040   0.408  10.750 -0.8629 -0.4629 -0.2024
 3226TIP3   OH231168   4.409   6.727  14.046 -1.1081  0.1120  0.5161
 3226TIP3    H131169   4.349   6.654  14.036  1.6779 -2.1402 -0.9600
 3226TIP3    H231170   4.496   6.688  14.052  0.4659  3.2578  0.8025
 3227TIP3   OH231171   6.801   4.732   2.744 -0.2739  0.0548 -0.0254
 3227TIP3    H131172   6.708   4.710   2.741 -0.6368  1.1613  1.6923
 3227TIP3    H231173   6.816   4.783   2.663 -0.6662 -1.7327 -1.2770
 3228TIP3   OH231174   3.929   2.085   1.256 -0.2528 -0.1683 -0.5730
 3228TIP3    H131175   3.888   2.170   1.275  1.2437  0.7437 -1.1962
 3228TIP3    H231176   3.955   2.051   1.342  0.2045  0.5925 -0.3961
 3229TIP3   OH231177   0.746   6.610   4.141 -0.5810  0.3747 -0.0269
 3229TIP3    H131178   0.797   6.535   4.112 -0.5175  0.3884  0.0508
 3229TIP3    H231179   0.657   6.592   4.111 -0.6585  0.0543  0.3810
 3230TIP3   OH231180   4.142   0.108   6.079  0.6922 -0.0881  0.4099
 3230TIP3    H131181   4.196   0.052   6.136 -0.0625 -1.8858 -0.5453
 3230TIP3    H231182   4.196   0.185   6.064  2.0886 -0.8494  1.2570
 3231TIP3   OH231183   0.082   1.814   0.610  0.0218  0.7600  0.0996
 3231TIP3    H131184   0.150   1.832   0.544  1.1732  1.2607  1.3831
 3231TIP3    H231185   0.098   1.879   0.679  1.3806 -2.1153  2.7263
 3232TIP3   OH231186   1.703   5.219  15.391  0.0550 -0.3677  0.1280
 3232TIP3    H131187   1.628   5.278  15.383  0.2009 -0.1488  0.3573
 3232TIP3    H231188   1.757   5.239  15.315 -1.0536 -1.8911 -1.1368
 3233TIP3   OH231189   4.942   5.388  15.223  0.3561 -0.2362 -0.4468
 3233TIP3    H131190   4.967   5.453  15.157  0.5262  0.6603  0.4802
 3233TIP3    H231191   4.886   5.436  15.284  1.7456 -0.5396  1.1172
 3234TIP3   OH231192   5.709   6.028   0.713 -0.3220  0.4268  0.3205
 3234TIP3    H131193   5.629   6.077   0.692 -1.9949 -2.0117  0.6203
 3234TIP3    H231194   5.679   5.951   0.760  2.2479 -0.5869  0.4787
 3235TIP3   OH231195   1.164   0.305  11.345  1.1598 -0.3710  0.2271
 3235TIP3    H131196   1.186   0.372  11.410 -1.6633  0.9870 -0.0506
 3235TIP3    H231197   1.174   0.350  11.261 -0.9210 -0.1497  0.0439
 3236TIP3   OH231198   2.076   1.487   2.968 -0.2022  0.0401 -0.2444
 3236TIP3    H131199   2.069   1.410   3.025  0.5789 -0.1416 -0.3806
 3236TIP3    H231200   2.019   1.467   2.894  1.4329 -1.2562 -1.2053
 3237TIP3   OH231201   1.981   4.410   4.069 -0.1170 -0.2885  0.1419
 3237TIP3    H131202   2.030   4.404   3.986  0.7400 -0.8735  0.6752
 3237TIP3    H231203   1.900   4.362   4.052 -0.3418  0.3378 -0.6271
 3238TIP3   OH231204   5.508   0.745  11.310 -0.4314  0.3474 -0.2617
 3238TIP3    H131205   5.569   0.819  11.305  0.7422 -0.5499  0.1424
 3238TIP3    H231206   5.442   0.763  11.243 -0.7397  2.2282  0.4817
 3239TIP3   OH231207   4.969   1.767   5.058  0.0856  0.2070 -0.0110
 3239TIP3    H131208   4.891   1.804   5.100  0.0674 -0.4856  0.6013
 3239TIP3    H231209   5.041   1.822   5.090 -0.3464  2.3920 -2.4670
 3240TIP3   OH231210   2.723   2.992   5.739 -0.2275 -0.3432 -0.8303
 3240TIP3    H131211   2.792   2.998   5.673 -1.4266 -0.4773 -2.1434
 3240TIP3    H231212   2.682   2.907   5.723 -1.2044  0.0760 -0.5718
 3241TIP3   OH231213   6.544   5.916  15.805 -0.4144  0.2420 -0.1575
 3241TIP3    H131214   6.459   5.893  15.843 -0.5312 -2.5172 -1.8433
 3241TIP3    H231215   6.545   5.873  15.720  2.7513  0.0876 -0.1562
 3242TIP3   OH231216   3.507   2.333   0.838  0.2865 -0.4403  0.1608
 3242TIP3    H131217   3.472   2.264   0.782  1.2419 -0.4516 -0.4438
 3242TIP3    H231218   3.587   2.297   0.875  0.4910  0.1320  0.2997
 3243TIP3   OH231219   5.941   2.968  11.004 -0.5072 -0.1952  1.0352
 3243TIP3    H131220   6.033   2.977  10.979 -0.4996  1.0131  1.4439
 3243TIP3    H231221   5.940   2.895  11.066 -0.3049 -2.2529 -1.2286
 3244TIP3   OH231222   3.487   4.455   1.595 -0.2754  0.3339 -0.0069
 3244TIP3    H131223   3.552   4.519   1.623  0.0641  0.9109 -1.9609
 3244TIP3    H231224   3.435   4.437   1.673 -0.0735  2.6283  0.7198
 3245TIP3   OH231225   4.168   6.283  11.465  0.2321  0.0586 -0.2775
 3245TIP3    H131226   4.085   6.316  11.431 -0.4839 -0.2595  1.0914
 3245TIP3    H231227   4.210   6.359  11.504 -0.4878 -0.1961  1.0612
 3246TIP3   OH231228   0.124   1.584   4.238  0.0221  0.8176  0.0179
 3246TIP3    H131229   0.114   1.621   4.151 -0.3454  3.2150  0.9847
 3246TIP3    H231230   0.037   1.589   4.276  0.5657  1.7946  1.2114
 3247TIP3   OH231231   4.241   1.550  13.686  0.2056  0.1996  0.4836
 3247TIP3    H131232   4.168   1.605  13.716  0.4000  0.7662 -0.0720
 3247TIP3    H231233   4.282   1.520  13.767 -0.6477 -0.1343  0.8067
 3248TIP3   OH231234   4.788   4.628   4.888  0.3620 -0.1796  0.8535
 3248TIP3    H131235   4.703   4.615   4.846  0.8440  1.1413 -0.6326
 3248TIP3    H231236   4.767   4.660   4.976 -0.6687 -1.0199  0.9290
 3249TIP3   OH231237   2.851   1.191   5.383  0.2425  0.4546 -0.3863
 3249TIP3    H131238   2.771   1.145   5.410 -0.8597  2.2730 -0.3546
 3249TIP3    H231239   2.922   1.136   5.415 -0.9612 -1.5805 -1.0174
 3250TIP3   OH231240   3.991   6.393   4.765  0.3897 -0.1063  0.6630
 3250TIP3    H131241   3.992   6.484   4.736 -0.2491 -0.1298  0.5437
 3250TIP3    H231242   3.908   6.358   4.732  0.9605 -0.9483  0.0720
 3251TIP3   OH231243   5.756   2.985   0.060 -0.7449  0.6320 -0.1619
 3251TIP3    H131244   5.702   3.035  -0.000 -1.1145 -0.1429 -0.4890
 3251TIP3    H231245   5.832   2.958   0.009 -1.2551 -0.3724 -0.4168
 3252TIP3   OH231246   4.165   5.239   2.304 -0.3768  0.8345 -1.1741
 3252TIP3    H131247   4.232   5.202   2.361 -0.1059  1.1227 -1.3038
 3252TIP3    H231248   4.082   5.218   2.347 -0.2667 -0.5375 -1.5975
 3253TIP3   OH231249   6.665   3.699  15.478 -0.3847  0.0837  0.1702
 3253TIP3    H131250   6.728   3.735  15.416  1.4259 -2.6856  0.2103
 3253TIP3    H231251   6.581   3.735  15.452  1.0772  3.6741 -0.1258
 3254TIP3   OH231252   3.230   6.435  14.236 -0.1938 -0.2750  0.2406
 3254TIP3    H131253   3.214   6.373  14.307 -0.0098 -1.5099 -0.7630
 3254TIP3    H231254   3.305   6.487  14.266  0.4559 -1.3721  0.5930
 3255TIP3   OH231255   1.936   1.708   6.013  0.0648  0.0557 -0.0933
 3255TIP3    H131256   2.011   1.754   6.052  0.3254 -0.2640 -0.2166
 3255TIP3    H231257   1.899   1.771   5.951  1.9358 -0.7397 -2.1650
 3256TIP3   OH231258   5.702   4.465  14.287  0.8524 -0.2037  0.0943
 3256TIP3    H131259   5.656   4.549  14.294  1.5551  0.6191 -3.4541
 3256TIP3    H231260   5.635   4.400  14.303 -0.6726  1.0245 -1.0100
 3257TIP3   OH231261   2.659   3.623  17.039 -0.1798 -0.1903  0.1152
 3257TIP3    H131262   2.576   3.577  17.048  0.4442 -1.3397  0.1783
 3257TIP3    H231263   2.662   3.649  16.946  0.3448 -2.0611 -0.4253
 3258TIP3   OH231264   0.403   6.813  17.006 -0.3970  0.7984  0.4933
 3258TIP3    H131265   0.489   6.802  17.046  0.3370  0.9556 -0.9924
 3258TIP3    H231266   0.354   6.736  17.035  1.3796 -1.1902 -1.4053
 3259TIP3   OH231267   0.082   0.735   4.466  0.0230 -0.2900 -0.2717
 3259TIP3    H131268   0.104   0.822   4.498 -1.6187 -0.2585  0.9130
 3259TIP3    H231269  -0.001   0.746   4.420 -0.2135 -1.2112 -0.1002
 3260TIP3   OH231270   3.948   4.775  10.916 -0.1935 -0.1031  0.4232
 3260TIP3    H131271   3.933   4.869  10.908 -0.0811 -0.2446 -3.4192
 3260TIP3    H231272   4.043   4.766  10.926 -0.2220  0.1928  0.9583
 3261TIP3   OH231273   3.629   2.898  14.648 -0.1804  0.4044 -0.0983
 3261TIP3    H131274   3.586   2.974  14.609 -0.5124  0.2234 -0.0851
 3261TIP3    H231275   3.575   2.824  14.623  1.7987 -0.2792 -2.7414
 3262TIP3   OH231276   6.475   3.577   4.672  0.8132  0.7303 -0.2367
 3262TIP3    H131277   6.511   3.521   4.603 -0.4048 -1.0696  0.4996
 3262TIP3    H231278   6.546   3.583   4.736  0.5901 -1.0309  0.2308
 3263TIP3   OH231279   5.786   6.595   3.071  0.3119  0.0140  0.1111
 3263TIP3    H131280   5.775   6.502   3.093  0.8145 -0.2404 -0.6933
 3263TIP3    H231281   5.743   6.605   2.987 -1.8307  1.0421  1.2377
 3264TIP3   OH231282   1.223   4.778   6.054 -0.7220  0.4708 -0.2380
 3264TIP3    H131283   1.307   4.795   6.096 -1.5730  0.7606  1.4530
 3264TIP3    H231284   1.238   4.797   5.961  1.1841  0.0258 -0.0718
 3265TIP3   OH231285   1.338   6.233   2.183 -0.3488 -0.0039  0.3347
 3265TIP3    H131286   1.366   6.142   2.176 -0.7167 -0.1974  1.2674
 3265TIP3    H231287   1.310   6.243   2.274  0.9125  1.3987  0.6124
 3266TIP3   OH231288   3.251   1.813  11.902 -0.5886 -0.1694 -0.2848
 3266TIP3    H131289   3.343   1.788  11.910 -0.1746  1.3294 -0.1473
 3266TIP3    H231290   3.249   1.876  11.830 -1.0908  1.7136  1.3027
 3267TIP3   OH231291   3.724   1.028  15.352  0.5433  0.1377  0.1493
 3267TIP3    H131292   3.657   1.093  15.374 -1.2092 -1.4466 -0.2532
 3267TIP3    H231293   3.806   1.076  15.359 -0.6722  2.4930 -0.4665
 3268TIP3   OH231294   4.389   2.074   6.110 -0.3691 -0.2263  0.0923
 3268TIP3    H131295   4.318   2.136   6.128 -0.2631 -0.3318  0.9203
 3268TIP3    H231296   4.452   2.124   6.058 -0.6867  0.0980  0.0148
 3269TIP3   OH231297   6.625   5.001  16.071 -0.1576  0.0463  0.3213
 3269TIP3    H131298   6.630   4.933  16.005  0.9951 -0.9874  1.4176
 3269TIP3    H231299   6.598   4.956  16.151  0.0912  0.9593  0.9479
 3270TIP3   OH231300   1.638   1.232  14.204  0.2143  0.0610 -0.4446
 3270TIP3    H131301   1.684   1.248  14.287 -0.3782  2.3018 -0.4793
 3270TIP3    H231302   1.611   1.319  14.175 -1.4810 -0.8928 -1.9105
 3271TIP3   OH231303   2.801   6.431   3.673 -0.6115 -0.2880 -0.3424
 3271TIP3    H131304   2.848   6.514   3.669 -0.4679 -0.3250  0.3819
 3271TIP3    H231305   2.743   6.439   3.749 -1.4865 -0.3972 -0.9809
 3272TIP3   OH231306   2.628   5.143   6.161 -0.4606  0.5414  0.3799
 3272TIP3    H131307   2.544   5.139   6.206 -0.2912  0.4503  0.6919
 3272TIP3    H231308   2.634   5.059   6.115 -1.5569  1.4266 -1.5133
 3273TIP3   OH231309   2.388   0.030  16.156 -0.3635 -0.1735 -0.1293
 3273TIP3    H131310   2.294   0.016  16.155 -0.5667  1.0295 -1.3354
 3273TIP3    H231311   2.419  -0.005  16.072  0.0752  0.5286 -0.2728
 3274TIP3   OH231312   1.231   3.636   0.667 -0.2887 -0.4852  0.4417
 3274TIP3    H131313   1.310   3.610   0.714  0.7584  1.4631 -0.1219
 3274TIP3    H231314   1.203   3.557   0.621  0.7648 -1.4669  1.4365
 3275TIP3   OH231315   1.236   5.447   2.680  0.0046 -0.4011 -0.1533
 3275TIP3    H131316   1.234   5.356   2.709  0.2987  0.0278  1.2660
 3275TIP3    H231317   1.303   5.449   2.611 -1.9011 -1.7771 -2.1798
 3276TIP3   OH231318   3.255   2.966  11.324  0.8227 -0.2440 -0.7886
 3276TIP3    H131319   3.216   2.954  11.411 -1.0973  1.2870 -1.3832
 3276TIP3    H231320   3.297   3.052  11.328 -0.3548  0.4019 -1.7204
 3277TIP3   OH231321   3.329   0.125  14.432 -0.0020  0.5816 -0.1622
 3277TIP3    H131322   3.322   0.129  14.528 -3.6548 -0.2340 -0.2194
 3277TIP3    H231323   3.422   0.119  14.414  0.8920  1.9207  3.2687
 3278TIP3   OH231324   2.224   0.139   2.913 -0.0570 -0.2069  0.4569
 3278TIP3    H131325   2.249   0.191   2.837 -3.6164 -1.3468 -1.7598
 3278TIP3    H231326   2.183   0.203   2.972  1.2732  0.4290  0.7241
 3279TIP3   OH231327   6.275   2.743  12.312  0.3696  0.2873  0.5816
 3279TIP3    H131328   6.201   2.757  12.371  0.0829 -0.3535  0.3863
 3279TIP3    H231329   6.262   2.654  12.277  2.6474 -0.9589  2.5722
 3280TIP3   OH231330   5.592   6.538  11.573 -0.3926 -0.4510  0.2457
 3280TIP3    H131331   5.672   6.521  11.523 -0.0250 -0.1737  0.7315
 3280TIP3    H231332   5.521   6.527  11.510  0.1515  2.1557 -0.9459
 3281TIP3   OH231333   1.938   0.464   2.392 -0.0787  0.2234  0.5553
 3281TIP3    H131334   1.918   0.517   2.315 -0.1318  0.9122  1.0380
 3281TIP3    H231335   1.856   0.418   2.411 -0.0336 -0.0397  0.1430
 3282TIP3   OH231336   2.754   3.814  14.630 -0.3282 -0.0734  0.4494
 3282TIP3    H131337   2.785   3.894  14.672 -1.5574 -0.0748  1.4165
 3282TIP3    H231338   2.682   3.843  14.574  0.1040 -0.3283 -0.2533
 3283TIP3   OH231339   3.182   1.093   3.644 -0.0732 -0.1055 -0.0060
 3283TIP3    H131340   3.225   1.175   3.668 -2.5682  1.1447  0.5148
 3283TIP3    H231341   3.254   1.030   3.632  1.8116  1.7188  1.1882
 3284TIP3   OH231342   1.979   0.688   1.329  0.3958  0.2762  0.0270
 3284TIP3    H131343   1.990   0.668   1.236 -0.4254 -1.5726  0.2605
 3284TIP3    H231344   2.053   0.646   1.372 -0.0603 -0.2481  0.3270
 3285TIP3   OH231345   4.428   2.454  13.967 -0.3698 -0.0741  0.4461
 3285TIP3    H131346   4.383   2.390  13.911  0.3745 -0.8508  0.7022
 3285TIP3    H231347   4.412   2.423  14.056  0.2244 -0.0665  0.5625
 3286TIP3   OH231348   4.426   2.275  13.410  0.2807  0.6369 -0.0522
 3286TIP3    H131349   4.446   2.221  13.486  1.6736  2.2153  0.7628
 3286TIP3    H231350   4.446   2.365  13.437 -0.1011  1.3617 -1.9689
 3287TIP3   OH231351   0.923   4.887   0.973  0.0213 -0.3233 -0.0683
 3287TIP3    H131352   0.894   4.965   1.021 -0.2286 -1.7159  2.1770
 3287TIP3    H231353   0.983   4.920   0.907 -1.7451  1.9944 -0.6322
 3288TIP3   OH231354   3.182   4.960  15.279  0.4397 -0.3381 -0.0008
 3288TIP3    H131355   3.103   4.905  15.279  0.2297 -0.0998 -1.6701
 3288TIP3    H231356   3.248   4.906  15.322  0.1492 -1.8354 -1.3080
 3289TIP3   OH231357   1.635   2.680   5.069  0.0860  0.2279 -0.3585
 3289TIP3    H131358   1.628   2.725   5.154 -4.7708  0.5465 -0.6697
 3289TIP3    H231359   1.593   2.739   5.007 -0.7801 -2.0429 -2.0521
 3290TIP3   OH231360   2.579   5.315   0.832  0.4405 -0.6128  0.5092
 3290TIP3    H131361   2.513   5.364   0.882 -0.1618 -1.0412  0.1465
 3290TIP3    H231362   2.662   5.355   0.856  0.0350  0.0121  0.8909
 3291TIP3   OH231363   2.406   1.012   0.325  0.7434 -0.1788  0.0682
 3291TIP3    H131364   2.403   1.059   0.409  2.6763  0.9641 -0.4320
 3291TIP3    H231365   2.382   0.922   0.347 -0.4435  0.4620  1.5397
 3292TIP3   OH231366   0.762   2.118   3.616  0.2181 -0.3853 -0.4108
 3292TIP3    H131367   0.694   2.176   3.584 -0.2281  0.2160  1.4944
 3292TIP3    H231368   0.767   2.047   3.552 -3.2760 -1.2512  0.1071
 3293TIP3   OH231369   0.269   0.525  16.653 -0.0034 -0.1867 -0.1346
 3293TIP3    H131370   0.237   0.464  16.586  0.0240  0.2812 -0.5787
 3293TIP3    H231371   0.364   0.514  16.651  0.3110  2.0593 -2.4106
 3294TIP3   OH231372   2.249   0.441  15.197  0.5936  0.2883 -0.1903
 3294TIP3    H131373   2.273   0.406  15.111  0.4089  0.2617 -0.2303
 3294TIP3    H231374   2.158   0.469  15.187  0.8023  0.9659 -0.2166
 3295TIP3   OH231375   5.238   3.226  15.192 -0.3285  0.0907 -0.3607
 3295TIP3    H131376   5.273   3.137  15.194 -0.2093  0.1526  1.0900
 3295TIP3    H231377   5.235   3.248  15.099  1.1539 -0.8319 -0.6615
 3296TIP3   OH231378   5.448   0.264  11.695  0.0321 -0.7553 -0.2992
 3296TIP3    H131379   5.448   0.338  11.756 -1.0186 -1.6289  0.7841
 3296TIP3    H231380   5.530   0.219  11.713  0.1358 -0.5142 -0.1537
 3297TIP3   OH231381   4.010   2.045   1.929 -0.4858  0.5333 -0.3228
 3297TIP3    H131382   3.918   2.072   1.937 -0.7770 -0.3843 -0.4926
 3297TIP3    H231383   4.050   2.112   1.873 -0.6294  1.8753  1.1017
 3298TIP3   OH231384   3.926   2.604  11.484  0.6195 -0.4629 -0.4948
 3298TIP3    H131385   3.846   2.569  11.524  0.6821  1.3835  1.4640
 3298TIP3    H231386   3.897   2.643  11.402 -0.4859  0.0356  0.1077
 3299TIP3   OH231387   6.152   4.653   1.544 -0.1731 -0.4312  0.7616
 3299TIP3    H131388   6.154   4.728   1.603 -0.8683 -0.7517  1.2153
 3299TIP3    H231389   6.062   4.619   1.552 -0.5541  0.0240 -1.1331
 3300TIP3   OH231390   2.081   6.231  16.928  0.2427 -0.1744  0.4396
 3300TIP3    H131391   2.052   6.247  17.018 -1.2217  0.4006 -0.0931
 3300TIP3    H231392   2.138   6.154  16.933  0.2105 -0.1217  1.8528
 3301TIP3   OH231393   3.759   0.513  15.046 -0.3650  0.6527 -0.1922
 3301TIP3    H131394   3.822   0.548  14.982 -1.2202  0.0724 -1.3904
 3301TIP3    H231395   3.786   0.422  15.058 -0.4763  0.6369 -0.0654
 3302TIP3   OH231396   0.603   6.829  11.546 -0.2940 -0.4517  0.1720
 3302TIP3    H131397   0.593   6.736  11.567  1.5150 -0.8215 -0.4338
 3302TIP3    H231398   0.596   6.833  11.451 -1.8317  0.2715  0.2858
 3303TIP3   OH231399   2.509   2.158  10.876 -0.4582  0.3415  0.4995
 3303TIP3    H131400   2.482   2.099  10.806  0.5220  1.3686 -0.7916
 3303TIP3    H231401   2.583   2.206  10.839 -1.5458  2.7456  1.2824
 3304TIP3   OH231402   4.087   0.564  15.436 -0.6546 -0.2707 -0.8364
 3304TIP3    H131403   4.061   0.518  15.516 -0.0610 -0.3851 -0.7039
 3304TIP3    H231404   4.027   0.531  15.369 -0.7680 -0.6286 -0.5657
 3305TIP3   OH231405   4.103   4.721  13.577 -0.3070 -0.1077 -0.2822
 3305TIP3    H131406   4.179   4.777  13.591  1.0889 -1.7774 -0.9131
 3305TIP3    H231407   4.066   4.752  13.494 -0.8643  1.2676  0.4480
 3306TIP3   OH231408   0.944   3.142  14.843  0.5253  0.1486  0.5583
 3306TIP3    H131409   0.956   3.190  14.761  1.1980 -2.2061 -0.8000
 3306TIP3    H231410   0.862   3.094  14.831  0.7480 -0.4080  1.1800
 3307TIP3   OH231411   4.651   2.461   5.012 -0.1268  0.3535 -0.0168
 3307TIP3    H131412   4.673   2.495   5.099  0.0560 -0.3571  0.2203
 3307TIP3    H231413   4.626   2.369   5.027 -0.7490  0.4095 -0.6266
 3308TIP3   OH231414   3.143   3.327   1.535 -0.2607 -0.1292  0.9178
 3308TIP3    H131415   3.137   3.296   1.445 -3.4492 -0.2006  1.0637
 3308TIP3    H231416   3.145   3.422   1.528 -2.6464 -0.0353  0.7410
 3309TIP3   OH231417   5.213   2.835  16.557  0.1445  0.4183  0.5211
 3309TIP3    H131418   5.181   2.746  16.538  0.4100  0.3748  0.2706
 3309TIP3    H231419   5.145   2.892  16.520  0.6428  0.3330 -0.5700
 3310TIP3   OH231420   2.943   6.708   3.810  0.0129 -0.0703 -0.4442
 3310TIP3    H131421   2.987   6.789   3.783 -0.5965  1.9861  3.8392
 3310TIP3    H231422   3.008   6.640   3.798  1.8217  1.6594 -0.9768
 3311TIP3   OH231423   2.274   2.215  16.797 -0.4456 -0.2388  0.1116
 3311TIP3    H131424   2.332   2.199  16.871 -0.5352  1.0790  0.4937
 3311TIP3    H231425   2.187   2.192  16.829 -0.4634  0.1764  0.3580
 3312TIP3   OH231426   4.344   1.077  16.724 -0.4486  0.4138 -0.1713
 3312TIP3    H131427   4.292   1.130  16.785  0.7554  0.6245  0.7117
 3312TIP3    H231428   4.345   0.990  16.763 -1.5084 -0.0239 -1.0626
 3313TIP3   OH231429   5.109   3.208  12.850  0.3824  0.3862  0.7478
 3313TIP3    H131430   5.142   3.157  12.776  0.1790 -0.7771  1.4141
 3313TIP3    H231431   5.040   3.153  12.887 -1.4301  2.1761  0.1629
 3314TIP3   OH231432   0.468   6.097  16.922 -0.0208  0.2133  0.9670
 3314TIP3    H131433   0.511   6.032  16.977 -0.7859  0.5399  1.9971
 3314TIP3    H231434   0.523   6.175  16.928 -0.8702  0.7355  2.5463
 3315TIP3   OH231435   4.923   2.388   4.191 -0.5109  0.7793 -0.5048
 3315TIP3    H131436   4.922   2.302   4.232  2.0062  1.4697  1.2752
 3315TIP3    H231437   4.862   2.381   4.117 -3.1393 -1.3775  1.6777
 3316TIP3   OH231438   3.945   0.434  14.309 -0.4983 -0.1817 -0.1101
 3316TIP3    H131439   3.946   0.513  14.255  0.4725  0.3402  0.6531
 3316TIP3    H231440   3.979   0.462  14.394 -0.4151 -1.3628  0.2638
 3317TIP3   OH231441   1.504   2.971  16.261  0.1341 -0.0770  0.1202
 3317TIP3    H131442   1.467   3.003  16.179  1.8739  1.1542 -0.2408
 3317TIP3    H231443   1.434   2.920  16.301 -0.7733 -0.6654 -2.1019
 3318TIP3   OH231444   0.664   4.985   1.079  0.0938  0.9239  0.1175
 3318TIP3    H131445   0.714   4.931   1.141 -1.4224  0.4497  0.9904
 3318TIP3    H231446   0.667   4.936   0.997 -2.4144 -1.3558  1.2206
 3319TIP3   OH231447   6.772   1.551  16.671  0.2339 -0.3060 -0.0478
 3319TIP3    H131448   6.752   1.477  16.614  0.7346  1.1349 -2.2099
 3319TIP3    H231449   6.860   1.533  16.704  0.4281 -0.5956 -0.7118
 3320TIP3   OH231450   6.050   4.307   2.570  0.0062 -0.0345  0.5432
 3320TIP3    H131451   6.058   4.233   2.631 -2.8103 -1.2690 -0.3790
 3320TIP3    H231452   6.036   4.266   2.485 -2.6743  1.4508  0.1498
 3321TIP3   OH231453   2.324   5.510  15.965 -0.0639  0.5473  0.7209
 3321TIP3    H131454   2.289   5.596  15.987 -0.8504  0.4112  0.0107
 3321TIP3    H231455   2.252   5.463  15.924  1.1278  0.5219 -1.4813
 3322TIP3   OH231456   3.471   4.654   6.289  0.0009 -0.4816  0.2727
 3322TIP3    H131457   3.461   4.576   6.233  3.4103  1.0697 -2.9147
 3322TIP3    H231458   3.402   4.714   6.258  1.9574  0.4419 -2.7882
 3323TIP3   OH231459   3.731   3.075  10.739  0.0967  0.4186  0.3869
 3323TIP3    H131460   3.647   3.033  10.760  0.4934 -0.1662  0.8314
 3323TIP3    H231461   3.729   3.157  10.788  0.6450 -0.5337  2.0985
 3324TIP3   OH231462   5.266   5.630   2.946 -0.0147 -0.6222  0.3336
 3324TIP3    H131463   5.245   5.636   3.039  0.2678  0.6305  0.3309
 3324TIP3    H231464   5.359   5.605   2.944  0.9589  2.5200  0.4883
 3325TIP3   OH231465   5.603   4.852   2.681 -0.3309 -0.1664 -0.6289
 3325TIP3    H131466   5.670   4.815   2.623 -1.9622 -2.2905 -1.2720
 3325TIP3    H231467   5.543   4.898   2.622 -0.5218  0.0302 -0.2867
 3326TIP3   OH231468   1.525   5.323   4.258  0.0940 -0.2476 -0.0289
 3326TIP3    H131469   1.445   5.330   4.310 -0.4484 -2.1264 -0.5268
 3326TIP3    H231470   1.498   5.349   4.170  0.3345  0.2430  0.0389
 3327TIP3   OH231471   2.976   2.804  10.246 -0.3362 -0.6889  0.0494
 3327TIP3    H131472   2.965   2.763  10.160  0.1374 -0.9985  0.1273
 3327TIP3    H231473   3.071   2.810  10.257 -0.3185 -2.5790  1.4270
 3328TIP3   OH231474   5.440   5.799   5.027 -0.2077  0.2436 -0.1243
 3328TIP3    H131475   5.412   5.777   4.939 -0.5121  1.1154 -0.2583
 3328TIP3    H231476   5.391   5.879   5.048  0.7763  0.7345  0.3580
 3329TIP3   OH231477   1.630   4.086   1.637 -0.2720  0.1400  0.5586
 3329TIP3    H131478   1.666   4.040   1.713  1.5634  0.7102  0.0809
 3329TIP3    H231479   1.600   4.170   1.671  1.5872  0.8707  0.5324
 3330TIP3   OH231480   5.210   3.734   4.616  0.0208 -0.3588  0.4584
 3330TIP3    H131481   5.256   3.652   4.636 -0.1275 -0.5153  0.1656
 3330TIP3    H231482   5.267   3.803   4.650  0.4055 -0.5571  0.2216
 3331TIP3   OH231483   3.554   3.256  16.981 -0.0417 -0.4977  0.1222
 3331TIP3    H131484   3.538   3.308  17.060 -1.7475  0.9531 -1.0865
 3331TIP3    H231485   3.482   3.193  16.979  0.8553 -1.5723  0.4826
 3332TIP3   OH231486   0.420   4.806  14.484  0.3501 -0.0647 -0.3195
 3332TIP3    H131487   0.471   4.880  14.520 -1.0050  0.7279  0.0505
 3332TIP3    H231488   0.367   4.846  14.415 -3.9458  0.5048  2.8664
 3333TIP3   OH231489   0.759   2.360  16.843 -0.9875  0.3850  0.1571
 3333TIP3    H131490   0.721   2.292  16.786 -0.8780  0.6503 -0.2332
 3333TIP3    H231491   0.742   2.328  16.932 -2.8208  0.8647  0.0213
 3334TIP3   OH231492   4.200   1.170   0.918  0.2604  0.5058 -0.4823
 3334TIP3    H131493   4.215   1.264   0.910  0.6999  0.4115 -0.8025
 3334TIP3    H231494   4.125   1.152   0.861 -1.4772  1.0649  1.5070
 3335TIP3   OH231495   3.773   0.223   5.709 -0.1855 -0.1831 -0.0668
 3335TIP3    H131496   3.802   0.281   5.639 -1.0242  1.5141  0.9195
 3335TIP3    H231497   3.854   0.193   5.751  0.2631  0.0389 -0.7526
 3336TIP3   OH231498   0.818   3.142   2.545  0.4738  0.1034 -0.1456
 3336TIP3    H131499   0.856   3.228   2.528  0.3848 -0.1150 -1.5344
 3336TIP3    H231500   0.740   3.139   2.489 -0.1839 -0.4342  0.7737
 3337TIP3   OH231501   5.887   6.314  15.510  0.1853 -0.4809  0.0784
 3337TIP3    H131502   5.865   6.380  15.576 -3.0761 -1.2842 -0.0348
 3337TIP3    H231503   5.939   6.249  15.557  1.8669  1.1619  0.6350
 3338TIP3   OH231504   0.645   3.115   4.498  0.0893  0.3739  0.0648
 3338TIP3    H131505   0.662   3.022   4.487 -2.2177  0.1497 -2.8173
 3338TIP3    H231506   0.657   3.130   4.592  1.9100 -2.4703  0.4005
 3339TIP3   OH231507   6.021   4.149  16.955  0.0920 -0.5477  0.7442
 3339TIP3    H131508   5.979   4.102  17.028  0.3431  0.7451  1.7535
 3339TIP3    H231509   6.115   4.135  16.969  0.1429 -0.2437  0.7074
 3340TIP3   OH231510   3.767   3.248   2.411  0.0680 -0.0810  0.0441
 3340TIP3    H131511   3.705   3.300   2.462 -0.7491 -1.3033  0.3311
 3340TIP3    H231512   3.744   3.265   2.320 -0.9633 -0.8181  0.1523
 3341TIP3   OH231513   1.097   1.140   4.978  0.0707 -0.4382  0.2756
 3341TIP3    H131514   1.074   1.144   4.885 -0.1269  0.9653  0.3728
 3341TIP3    H231515   1.047   1.211   5.018  0.0130 -1.1425  1.4959
 3342TIP3   OH231516   3.230   1.788   5.493  0.0750 -0.0633 -0.6030
 3342TIP3    H131517   3.135   1.797   5.498  0.1271  0.1209  0.1916
 3342TIP3    H231518   3.246   1.694   5.500  0.0095 -0.0018  0.4758
 3343TIP3   OH231519   2.976   3.671  14.537 -0.4149  0.0973 -0.2773
 3343TIP3    H131520   2.920   3.719  14.598  1.4777  1.1298  0.7604
 3343TIP3    H231521   3.039   3.736  14.506 -0.8586 -0.5758 -2.8327
 3344TIP3   OH231522   2.152   5.594  16.696  0.2912  0.4049  0.3250
 3344TIP3    H131523   2.214   5.638  16.638 -1.0338  3.1391  0.8535
 3344TIP3    H231524   2.160   5.639  16.780  0.2338 -1.7035  1.5436
 3345TIP3   OH231525   4.771   0.592  11.205 -0.0083 -0.4810 -0.0326
 3345TIP3    H131526   4.795   0.684  11.216  1.0095 -0.8444  1.0825
 3345TIP3    H231527   4.717   0.590  11.126 -1.0273  1.2386  0.5641
 3346TIP3   OH231528   2.327   4.525  11.822 -0.2215 -0.4526  0.0619
 3346TIP3    H131529   2.291   4.608  11.854 -0.5620 -1.1346  1.5196
 3346TIP3    H231530   2.364   4.547  11.736 -2.7038  0.6004 -0.8237
 3347TIP3   OH231531   4.716   0.757   2.721 -0.5198 -0.2497  0.2223
 3347TIP3    H131532   4.697   0.848   2.698  0.9272  0.0158  0.0088
 3347TIP3    H231533   4.652   0.706   2.671 -0.9213  0.6095 -0.1595
 3348TIP3   OH231534   5.854   2.482   0.565  0.1308 -0.4817  0.1393
 3348TIP3    H131535   5.889   2.426   0.635  0.0321 -1.0351 -0.2486
 3348TIP3    H231536   5.878   2.437   0.484  0.8761  0.5198 -0.2205
 3349TIP3   OH231537   5.686   1.078  16.731  0.3094 -0.2721  0.8190
 3349TIP3    H131538   5.608   1.101  16.782  0.3776  0.8292  0.4524
 3349TIP3    H231539   5.738   1.158  16.729  1.4579 -0.9877  1.0414
 3350TIP3   OH231540   0.414   0.334   3.978  0.6136 -0.0825  0.5635
 3350TIP3    H131541   0.504   0.342   3.947  0.7635  2.0673  1.3531
 3350TIP3    H231542   0.362   0.375   3.908  0.5204  0.7952  1.1256
 3351TIP3   OH231543   5.432   5.515   1.209  0.4785  0.0889  0.2595
 3351TIP3    H131544   5.523   5.495   1.230  0.1851 -2.1594 -0.3871
 3351TIP3    H231545   5.385   5.497   1.291  0.5277  0.7679  0.4459
 3352TIP3   OH231546   5.880   5.202  13.511  0.1035 -0.0983  0.2482
 3352TIP3    H131547   5.923   5.117  13.502 -0.3363 -0.3766  0.7155
 3352TIP3    H231548   5.946   5.258  13.552  0.0244 -0.5337  0.9962
 3353TIP3   OH231549   6.634   4.949  12.795  0.1177  0.3302 -0.0993
 3353TIP3    H131550   6.727   4.924  12.798  0.0762  0.0597 -0.7986
 3353TIP3    H231551   6.591   4.893  12.858  0.3610  0.1298 -0.1118
 3354TIP3   OH231552   6.005   5.136  15.833 -0.1265 -0.0700  0.0476
 3354TIP3    H131553   6.053   5.198  15.888  1.0297 -1.3304  0.5268
 3354TIP3    H231554   6.018   5.168  15.744 -1.0854  1.3694  0.3937
 3355TIP3   OH231555   3.278   4.223   3.608  0.1836 -0.1859 -0.1688
 3355TIP3    H131556   3.247   4.256   3.524  1.0227 -0.7043 -0.6954
 3355TIP3    H231557   3.360   4.178   3.588  1.0219  0.7125  1.1122
 3356TIP3   OH231558   1.257   0.102   2.144  0.2905 -0.0426  0.1202
 3356TIP3    H131559   1.164   0.124   2.143  0.3076  0.0872 -1.6993
 3356TIP3    H231560   1.268   0.044   2.070  1.7548  0.3099  0.0423
 3357TIP3   OH231561   4.309   0.622   3.242 -0.0584  0.1321  0.6891
 3357TIP3    H131562   4.302   0.717   3.229 -1.2066  0.0966  0.9254
 3357TIP3    H231563   4.383   0.595   3.187 -0.5651  0.9692 -0.4297
 3358TIP3   OH231564   6.215   5.201  11.982  0.1234 -0.9664  0.1428
 3358TIP3    H131565   6.282   5.177  12.045  0.2495 -0.1127  0.3544
 3358TIP3    H231566   6.262   5.209  11.899  0.2248 -0.7021  0.2242
 3359TIP3   OH231567   0.002   5.371   2.547  0.3547  0.5328 -0.9978
 3359TIP3    H131568  -0.040   5.385   2.462 -1.3906  0.3628 -0.2075
 3359TIP3    H231569  -0.018   5.281   2.570  0.7015  0.6125 -0.3461
 3360TIP3   OH231570   5.629   3.575   1.916  0.3253 -0.3394  0.2754
 3360TIP3    H131571   5.617   3.622   1.999  1.0636 -0.6771  0.5901
 3360TIP3    H231572   5.638   3.644   1.851 -1.7098 -0.0714  0.2237
 3361TIP3   OH231573   1.457   4.228   0.577 -0.3823 -0.1518 -0.2173
 3361TIP3    H131574   1.424   4.140   0.557  1.1566 -1.2096  1.5086
 3361TIP3    H231575   1.472   4.226   0.672  1.1774  1.4307 -0.3890
 3362TIP3   OH231576   1.200   1.275  11.246 -0.3048  0.4026 -0.2870
 3362TIP3    H131577   1.252   1.195  11.242 -1.5139 -0.3857 -0.6809
 3362TIP3    H231578   1.219   1.311  11.333 -0.3783 -0.7646  0.2333
 3363TIP3   OH231579   4.966   0.525   0.861 -0.3692 -0.0903 -0.2877
 3363TIP3    H131580   5.011   0.442   0.871  0.2873  0.0788 -1.6044
 3363TIP3    H231581   4.925   0.520   0.775 -1.8386  0.2646  0.3499
 3364TIP3   OH231582   6.023   4.022  14.815  0.5182  0.2884  0.3868
 3364TIP3    H131583   6.103   3.972  14.801 -0.1462 -0.4988 -0.7092
 3364TIP3    H231584   5.968   3.964  14.868  0.0590  0.1704 -0.2123
 3365TIP3   OH231585   6.143   4.368  14.834 -0.0885 -0.2158 -0.2333
 3365TIP3    H131586   6.061   4.324  14.852  0.4354 -1.1735 -0.1426
 3365TIP3    H231587   6.160   4.421  14.912 -1.1310  0.8238 -0.6811
 3366TIP3   OH231588   0.785   6.024  13.556 -0.0670  0.4056 -0.2043
 3366TIP3    H131589   0.791   6.058  13.467 -0.7736  1.1801  0.0356
 3366TIP3    H231590   0.873   5.993  13.576 -0.0784 -0.4772 -1.4430
 3367TIP3   OH231591   5.204   5.978  14.273 -0.4926  0.1808 -0.2571
 3367TIP3    H131592   5.280   5.931  14.306 -1.2810 -0.5123  0.6558
 3367TIP3    H231593   5.234   6.019  14.192  0.5480 -0.9545 -0.4758
 3368TIP3   OH231594   5.316   3.070   0.160  0.2287  0.1154 -0.3205
 3368TIP3    H131595   5.382   3.043   0.096  1.2436  1.3463  0.1651
 3368TIP3    H231596   5.235   3.078   0.109  1.3008  2.4201 -1.7964
 3369TIP3   OH231597   6.742   1.549  16.056  0.5967  0.6489 -0.2886
 3369TIP3    H131598   6.776   1.632  16.021  0.6322 -0.0106 -1.9024
 3369TIP3    H231599   6.686   1.575  16.129  1.0970  2.0535 -0.3780
 3370TIP3   OH231600   5.065   2.443   3.377 -0.8667 -0.2096  0.3737
 3370TIP3    H131601   5.112   2.380   3.432 -1.9508 -0.0891  1.4855
 3370TIP3    H231602   5.110   2.526   3.393 -1.1034 -0.1967  1.0009
 3371TIP3   OH231603   1.621   1.290   1.629  0.1884 -0.4048  0.1040
 3371TIP3    H131604   1.649   1.237   1.703  1.3105 -2.5244 -1.7392
 3371TIP3    H231605   1.540   1.249   1.598 -0.7594  0.9831  0.5905
 3372TIP3   OH231606   2.759   2.082  12.504  0.2846  0.4404  0.7107
 3372TIP3    H131607   2.788   2.042  12.422  0.8597 -1.3248  1.7108
 3372TIP3    H231608   2.665   2.094  12.493  0.0759 -1.2796  0.3541
 3373TIP3   OH231609   0.414   1.656  11.578 -0.3900  0.6519  0.0703
 3373TIP3    H131610   0.399   1.688  11.667 -2.2132  0.1250 -0.0087
 3373TIP3    H231611   0.392   1.563  11.582  0.0043  0.5110 -0.8270
 3374TIP3   OH231612   4.407   3.710  13.142 -0.1753 -0.0702 -0.2050
 3374TIP3    H131613   4.344   3.780  13.157 -0.5267 -0.5584  0.6812
 3374TIP3    H231614   4.357   3.629  13.158  0.2996 -0.5187 -0.9105
 3375TIP3   OH231615   5.140   3.746  13.904 -0.0310  0.5251 -0.1932
 3375TIP3    H131616   5.192   3.676  13.864  1.1227 -0.1433  2.2829
 3375TIP3    H231617   5.083   3.701  13.966 -1.0442  1.5991 -0.3004
 3376TIP3   OH231618   4.693   4.532  13.543  0.2010 -0.9181  0.3389
 3376TIP3    H131619   4.712   4.439  13.554 -1.2912 -1.4734 -1.3897
 3376TIP3    H231620   4.681   4.565  13.632  4.3771 -1.4772  1.3150
 3377TIP3   OH231621   0.157   0.701  16.088  0.1603 -0.2152 -0.1233
 3377TIP3    H131622   0.222   0.727  16.023 -0.3671  1.8943  0.1248
 3377TIP3    H231623   0.166   0.606  16.094  2.4128 -0.1152 -0.9369
 3378TIP3   OH231624   2.436   5.969  13.826  0.2606  0.0744 -0.1849
 3378TIP3    H131625   2.504   5.966  13.893 -0.5251  1.2918  0.7167
 3378TIP3    H231626   2.355   5.981  13.875 -0.5981 -1.1008 -1.2506
 3379TIP3   OH231627   5.734   5.998   4.899  0.2676  0.0559 -0.0868
 3379TIP3    H131628   5.766   5.922   4.852  0.4039 -0.6691  1.1420
 3379TIP3    H231629   5.645   6.012   4.865 -0.1603 -1.3026  0.4079
 3380TIP3   OH231630   6.518   0.002  11.266 -0.4806  0.5630  0.2579
 3380TIP3    H131631   6.466   0.019  11.187  0.8517  2.6564 -0.2506
 3380TIP3    H231632   6.456   0.017  11.338 -1.3294  0.1079 -0.3540
 3381TIP3   OH231633   5.115   0.108  16.148  0.2489  0.2067  0.0003
 3381TIP3    H131634   5.152   0.178  16.094  2.5632  0.9175  2.3120
 3381TIP3    H231635   5.064   0.154  16.215 -0.0120 -0.4579  0.2657
 3382TIP3   OH231636   5.452   6.421   3.688 -0.3686 -0.1755  0.0484
 3382TIP3    H131637   5.530   6.367   3.677 -1.2575 -1.4284 -0.3107
 3382TIP3    H231638   5.412   6.389   3.769 -0.2068  0.8639  0.5512
 3383TIP3   OH231639   5.099   2.319  16.096 -0.0602 -0.4175  0.0880
 3383TIP3    H131640   5.117   2.226  16.085 -0.6674 -0.3397 -1.7932
 3383TIP3    H231641   5.006   2.323  16.119  0.5858 -0.3972  3.2642
 3384TIP3   OH231642   4.259   5.996   1.522 -0.6989 -0.1986 -0.4448
 3384TIP3    H131643   4.312   5.967   1.448 -1.6114 -0.0069 -1.1845
 3384TIP3    H231644   4.170   5.998   1.489 -1.3045 -1.2703  1.0036
 3385TIP3   OH231645   3.322   5.878   5.956 -0.0151  0.0439 -0.0852
 3385TIP3    H131646   3.410   5.914   5.962  0.4918 -0.6871 -2.1698
 3385TIP3    H231647   3.321   5.806   6.018  0.9077 -0.0037 -0.1094
 3386TIP3   OH231648   2.960   2.658  12.079  0.3067 -0.3557  0.0113
 3386TIP3    H131649   2.999   2.732  12.032  2.3363 -0.7877  0.9145
 3386TIP3    H231650   3.016   2.583  12.057  0.1137 -0.9779  1.5293
 3387TIP3   OH231651   1.474   6.566   5.588  0.0876  0.3554 -0.4772
 3387TIP3    H131652   1.460   6.472   5.584 -1.5668  0.5420 -0.0361
 3387TIP3    H231653   1.545   6.578   5.651 -0.3059 -0.5611  0.1528
 3388TIP3   OH231654   0.080   4.961  16.679  0.2316 -0.4364  0.2207
 3388TIP3    H131655   0.111   4.893  16.737  0.1889 -0.8422 -0.2259
 3388TIP3    H231656   0.019   4.917  16.620 -0.2044  0.0929  0.2629
 3389TIP3   OH231657   6.533   6.190  13.933  0.3140  0.7323 -0.2391
 3389TIP3    H131658   6.608   6.249  13.946  0.3274  1.1545 -1.9934
 3389TIP3    H231659   6.500   6.173  14.021  2.2945  0.7669  0.5534
 3390TIP3   OH231660   1.661   4.649  11.746  0.2059 -0.4024 -0.1739
 3390TIP3    H131661   1.712   4.726  11.770 -0.9685  0.4848 -0.4400
 3390TIP3    H231662   1.693   4.625  11.659  0.3462 -0.0021 -0.2347
 3391TIP3   OH231663   5.176   4.008   4.014  0.3131 -0.3545  0.2088
 3391TIP3    H131664   5.157   4.036   4.104  1.2416  0.4034  0.1831
 3391TIP3    H231665   5.270   3.991   4.014  0.0584 -1.9093 -0.2223
 3392TIP3   OH231666   4.950   0.510   0.560  0.0549  0.0280  0.5001
 3392TIP3    H131667   4.866   0.476   0.527 -0.2078  0.4059  0.7745
 3392TIP3    H231668   4.988   0.554   0.484  0.1420 -0.3901  0.2946
 3393TIP3   OH231669   4.389   6.576  12.228  0.4939 -0.1261  0.3811
 3393TIP3    H131670   4.375   6.484  12.207  1.0718 -0.1948  0.2635
 3393TIP3    H231671   4.303   6.609  12.255 -0.1095 -0.2414 -1.3174
 3394TIP3   OH231672   2.248   2.815  15.587 -0.3863 -0.1722  0.0878
 3394TIP3    H131673   2.178   2.879  15.572  0.7249  1.0150 -0.2443
 3394TIP3    H231674   2.270   2.783  15.499  0.2542  0.3129  0.0676
 3395TIP3   OH231675   6.011   2.166   3.180 -0.1087  0.3120  0.9728
 3395TIP3    H131676   5.924   2.130   3.194 -0.5564  1.0614  0.2203
 3395TIP3    H231677   6.000   2.229   3.109  1.0448  0.4304  0.8747
 3396TIP3   OH231678   2.161   4.099   1.697  0.1705  0.0076  0.3641
 3396TIP3    H131679   2.254   4.080   1.706  0.2069  0.2813  0.5890
 3396TIP3    H231680   2.118   4.014   1.709  0.3860 -0.1080  0.3228
 3397TIP3   OH231681   4.770   3.571   0.104 -0.2669 -0.1199 -0.4699
 3397TIP3    H131682   4.780   3.501   0.169 -1.1494 -2.0769 -2.3254
 3397TIP3    H231683   4.695   3.622   0.136 -0.2955 -0.6714  0.3770
 3398TIP3   OH231684   5.983   3.361   4.805  0.5604  0.1656  0.3355
 3398TIP3    H131685   6.029   3.432   4.849  0.3956 -0.2483  1.1825
 3398TIP3    H231686   5.899   3.400   4.779  0.6807  0.4260  0.3314
 3399TIP3   OH231687   5.112   3.435  16.904 -0.3081  0.8273  0.2925
 3399TIP3    H131688   5.042   3.417  16.966  1.2513  0.0565  1.9304
 3399TIP3    H231689   5.118   3.355  16.852 -0.5166  0.8222  0.2745
 3400TIP3   OH231690   2.842   5.443  13.586  0.8221  0.0437  0.7008
 3400TIP3    H131691   2.855   5.518  13.528  1.3975 -0.4701  0.1470
 3400TIP3    H231692   2.930   5.405  13.596  0.1465 -2.5148 -1.7280
 3401TIP3   OH231693   1.977   1.363   2.039  0.1658 -0.3236  0.6544
 3401TIP3    H131694   2.050   1.401   2.088  0.0814 -0.4528  0.8847
 3401TIP3    H231695   1.972   1.273   2.072 -2.0198  0.5080  2.8823
 3402TIP3   OH231696   3.242   6.320   4.647  0.2148 -0.4385  0.4764
 3402TIP3    H131697   3.217   6.412   4.653 -1.3132 -0.8733  1.0621
 3402TIP3    H231698   3.282   6.312   4.561  1.6815  1.0615  0.9489
 3403TIP3   OH231699   5.143   1.018   2.947  0.0538 -0.1793 -0.1261
 3403TIP3    H131700   5.225   0.975   2.970 -0.9907 -1.0996  2.1321
 3403TIP3    H231701   5.074   0.960   2.980 -1.5999  0.0585 -2.8130
 3404TIP3   OH231702   1.645   3.951  15.435 -0.2803  0.0179  0.0975
 3404TIP3    H131703   1.632   3.884  15.368 -0.1675 -0.7792  0.8673
 3404TIP3    H231704   1.584   3.927  15.505 -0.1992  0.6846  0.4041
 3405TIP3   OH231705   5.952   6.730  12.058  0.2483  0.0846 -0.3104
 3405TIP3    H131706   5.910   6.658  12.011 -0.4636 -0.2800  0.8320
 3405TIP3    H231707   6.022   6.759  12.001 -0.4627 -0.4727 -1.4971
 3406TIP3   OH231708   4.291   2.196   4.759 -0.4543  0.3718  0.5760
 3406TIP3    H131709   4.245   2.243   4.828  2.2026  0.3405  2.5482
 3406TIP3    H231710   4.287   2.104   4.785 -3.8623 -0.4550 -2.1878
 3407TIP3   OH231711   3.237   1.902  14.968  0.2766 -0.4155 -0.3723
 3407TIP3    H131712   3.204   1.814  14.986 -2.2302  0.6822  1.0837
 3407TIP3    H231713   3.326   1.902  15.001 -0.2681 -1.9512  1.2602
 3408TIP3   OH231714   0.735   0.833  13.517  0.0242  0.6687  0.2791
 3408TIP3    H131715   0.782   0.906  13.558  1.0806  0.1300  0.0660
 3408TIP3    H231716   0.643   0.853  13.531  0.0890  3.6651 -2.4258
 3409TIP3   OH231717   3.780   6.577   3.249 -0.4088  0.3826 -0.2723
 3409TIP3    H131718   3.801   6.646   3.186  3.2479  0.5441  0.8687
 3409TIP3    H231719   3.776   6.623   3.334  0.8065 -0.5759  0.3320
 3410TIP3   OH231720   3.640   4.842  13.395 -0.0513  1.4785  0.5060
 3410TIP3    H131721   3.667   4.804  13.311 -0.9020  1.0992  0.3929
 3410TIP3    H231722   3.714   4.896  13.422  1.0911 -0.0254  0.5314
 3411TIP3   OH231723   0.267   2.561   4.774  0.0391  0.9258 -0.0065
 3411TIP3    H131724   0.330   2.538   4.706  0.8751 -1.8077  1.5362
 3411TIP3    H231725   0.192   2.503   4.757  0.7357 -0.6773  1.9652
 3412TIP3   OH231726   4.081   1.297   5.799 -0.4714  0.4586  0.2737
 3412TIP3    H131727   4.064   1.223   5.740  0.7705  0.1103  0.3373
 3412TIP3    H231728   4.154   1.268   5.854 -1.3139  0.9388  1.7140
 3413TIP3   OH231729   5.375   3.798   6.162 -0.2969 -0.1622  0.4363
 3413TIP3    H131730   5.432   3.861   6.118  0.9626 -1.4216  0.1848
 3413TIP3    H231731   5.434   3.745   6.216 -1.4745 -0.3737  1.5744
 3414TIP3   OH231732   1.824   1.139   2.130 -0.6976  0.2266  0.2462
 3414TIP3    H131733   1.744   1.105   2.090 -1.6502  1.5504  0.9653
 3414TIP3    H231734   1.894   1.084   2.094 -1.9842 -1.3624  0.0792
 3415TIP3   OH231735   4.612   6.283  11.613  0.6104  0.4929 -0.4399
 3415TIP3    H131736   4.581   6.367  11.581  0.6677  0.9852  0.7524
 3415TIP3    H231737   4.670   6.251  11.543  0.1919  1.1902 -1.1264
 3416TIP3   OH231738   3.814   1.630   6.480  0.4946 -0.1117  0.0181
 3416TIP3    H131739   3.777   1.541   6.481  1.1867 -0.4115  1.0021
 3416TIP3    H231740   3.817   1.655   6.573  1.4278  0.4615 -0.1532
 3417TIP3   OH231741   3.863   1.390  13.216  0.6458 -0.5311  0.1678
 3417TIP3    H131742   3.915   1.457  13.171  0.1660  0.5347  1.1374
 3417TIP3    H231743   3.904   1.307  13.191  1.6210  0.1573 -0.6081
 3418TIP3   OH231744   2.006   5.786   3.592 -0.2798 -0.4521  0.0586
 3418TIP3    H131745   1.943   5.811   3.660  0.0251  0.4677  0.0167
 3418TIP3    H231746   1.979   5.698   3.565 -0.3730 -0.8689  1.4104
 3419TIP3   OH231747   0.355   6.578  12.437  0.4582 -0.3273 -0.1450
 3419TIP3    H131748   0.275   6.540  12.474  1.1755  0.4591  2.4412
 3419TIP3    H231749   0.424   6.554  12.499  1.7910  1.0426 -1.0176
 3420TIP3   OH231750   4.744   0.740  14.883  0.6185  0.2327  0.4174
 3420TIP3    H131751   4.826   0.724  14.836 -0.5997  0.7821 -2.0331
 3420TIP3    H231752   4.716   0.826  14.854 -1.9371 -0.8555 -0.5929
 3421TIP3   OH231753   1.150   6.454  11.290  0.6629  0.4013  0.2044
 3421TIP3    H131754   1.206   6.519  11.332  2.5711  0.7468 -2.5944
 3421TIP3    H231755   1.210   6.401  11.237 -1.1256 -2.2260  0.5665
 3422TIP3   OH231756   6.198   2.139   1.741  0.7959  0.2770  0.3106
 3422TIP3    H131757   6.185   2.155   1.648  0.0515  0.4348  0.4345
 3422TIP3    H231758   6.130   2.075   1.764  0.3922  0.9072  0.9256
 3423TIP3   OH231759   3.243   5.393  12.313 -0.6083  0.3799 -0.4631
 3423TIP3    H131760   3.324   5.401  12.363 -0.5048 -2.6931  0.0923
 3423TIP3    H231761   3.269   5.348  12.232 -1.8954 -2.5996  0.6227
 3424TIP3   OH231762   4.603   1.925  16.644  0.0130 -0.3147 -0.0314
 3424TIP3    H131763   4.569   1.976  16.571  0.7831 -1.4630 -1.2298
 3424TIP3    H231764   4.649   1.988  16.699 -0.1876  0.4951 -0.7795
 3425TIP3   OH231765   5.140   0.950   1.397  0.1595  0.2003  0.0183
 3425TIP3    H131766   5.119   0.986   1.483 -2.0220 -0.5699 -0.1381
 3425TIP3    H231767   5.089   0.870   1.391  1.4358 -0.5599 -1.4372
 3426TIP3   OH231768   4.679   5.533   1.687  0.3653  0.0668 -0.1549
 3426TIP3    H131769   4.760   5.578   1.708 -0.0667  0.7444  0.0747
 3426TIP3    H231770   4.624   5.600   1.646  0.1009 -0.5043 -0.7599
 3427TIP3   OH231771   4.620   3.380   0.354 -0.0898 -0.6794  0.4585
 3427TIP3    H131772   4.533   3.417   0.370  0.3183 -0.1027  1.4475
 3427TIP3    H231773   4.679   3.454   0.364  0.5616 -1.1797  0.3483
 3428TIP3   OH231774   3.347   2.642  13.329 -0.0704  0.2996  0.3082
 3428TIP3    H131775   3.414   2.604  13.272  0.3222  1.1266  0.1960
 3428TIP3    H231776   3.395   2.704  13.385 -0.6255  0.3541  0.7383
 3429TIP3   OH231777   4.404   1.472  14.156 -0.8046 -0.0401  0.3776
 3429TIP3    H131778   4.395   1.551  14.103  0.5833 -0.1894 -0.1122
 3429TIP3    H231779   4.396   1.399  14.094  1.0280 -0.2142  0.2765
 3430TIP3   OH231780   1.096   0.602  15.221  0.1796 -0.4582 -0.3860
 3430TIP3    H131781   1.159   0.598  15.150 -0.0737 -1.0498 -0.5940
 3430TIP3    H231782   1.029   0.537  15.196  0.5454 -1.3377  0.8188
 3431TIP3   OH231783   2.131   4.639  12.963 -0.2222 -0.4608 -0.1131
 3431TIP3    H131784   2.085   4.629  12.880  1.6115 -1.2344 -1.1020
 3431TIP3    H231785   2.169   4.552  12.980 -2.9035 -1.2021  3.0830
 3432TIP3   OH231786   4.613   4.646  12.632 -0.4357 -0.6369 -0.1485
 3432TIP3    H131787   4.612   4.601  12.717  0.2921 -0.3556  0.0118
 3432TIP3    H231788   4.617   4.739  12.654 -3.1090 -0.3467 -0.4497
 3433TIP3   OH231789   3.750   1.859   4.249  0.2357 -0.1068  0.5355
 3433TIP3    H131790   3.663   1.822   4.259  0.0025  0.4335  0.5592
 3433TIP3    H231791   3.769   1.900   4.334  0.3718  0.0660  0.4249
 3434TIP3   OH231792   2.352   3.253  14.292  0.0666  0.0292  0.8700
 3434TIP3    H131793   2.415   3.322  14.315  1.1128 -1.0252  1.3019
 3434TIP3    H231794   2.308   3.233  14.375  0.0213 -0.0522  0.8262
 3435TIP3   OH231795   6.686   4.245   1.563  0.1906 -0.1195 -0.1866
 3435TIP3    H131796   6.646   4.160   1.578  0.5140 -0.3645 -0.6818
 3435TIP3    H231797   6.665   4.296   1.641  1.0482 -1.0578  0.6854
 3436TIP3   OH231798   3.004   1.051   1.170  0.4472 -0.1168 -0.3949
 3436TIP3    H131799   3.014   1.117   1.239 -3.0908  0.0477  0.1327
 3436TIP3    H231800   2.918   1.013   1.185  1.2414 -2.9983 -2.3444
 3437TIP3   OH231801   5.795   2.347   5.142 -0.5024 -0.2112 -0.2855
 3437TIP3    H131802   5.774   2.261   5.178 -0.2529 -0.2235 -0.1616
 3437TIP3    H231803   5.744   2.354   5.062 -0.9489 -0.2471 -0.0054
 3438TIP3   OH231804   3.588   0.176  14.377  0.0202  0.2420  0.5094
 3438TIP3    H131805   3.654   0.202  14.313 -0.8632  0.7789 -0.2049
 3438TIP3    H231806   3.609   0.227  14.455  0.4571  0.4057  0.2877
 3439TIP3   OH231807   2.181   0.591  15.961 -0.2871  0.0071  0.1143
 3439TIP3    H131808   2.123   0.516  15.978  0.6411 -0.7082  0.2268
 3439TIP3    H231809   2.231   0.601  16.042  1.8381 -1.3258 -0.9406
 3440TIP3   OH231810   0.525   4.315  13.135  0.0323 -0.4694 -0.8523
 3440TIP3    H131811   0.549   4.275  13.218  0.6940 -0.3003 -0.9517
 3440TIP3    H231812   0.601   4.299  13.078 -0.7411 -1.3164 -1.6904
 3441TIP3   OH231813   0.358   1.993  11.035  0.1994 -0.3097 -0.1870
 3441TIP3    H131814   0.440   1.983  10.987 -0.7845 -1.1145 -1.8107
 3441TIP3    H231815   0.300   2.039  10.974  0.0715  2.3066  1.7496
 3442TIP3   OH231816   3.638   4.528  13.630  0.1898  0.1893 -0.2565
 3442TIP3    H131817   3.595   4.612  13.620 -1.2254 -0.5229 -0.4081
 3442TIP3    H231818   3.594   4.470  13.568 -0.7203 -1.3212  1.6570
 3443TIP3   OH231819   2.587   1.807  15.448 -0.1495  0.0706 -0.0709
 3443TIP3    H131820   2.521   1.750  15.487  2.0305 -1.9971  0.8164
 3443TIP3    H231821   2.606   1.872  15.516 -0.1016 -0.3277  0.2984
 3444TIP3   OH231822   2.466   5.954   3.795 -0.2718  0.1261 -0.3858
 3444TIP3    H131823   2.531   5.905   3.846  0.0141 -0.0324 -0.8931
 3444TIP3    H231824   2.516   6.023   3.752 -0.0180 -1.2403 -2.4536
 3445TIP3   OH231825   6.676   2.118   5.308  0.9177  0.2167  0.3127
 3445TIP3    H131826   6.733   2.076   5.371  0.2421 -0.6431  0.3699
 3445TIP3    H231827   6.613   2.167   5.361  0.0391 -0.9129  0.3486
 3446TIP3   OH231828   1.732   3.198   5.586 -0.2679  0.4366  0.7253
 3446TIP3    H131829   1.686   3.281   5.571 -0.8622 -0.1439 -0.8209
 3446TIP3    H231830   1.667   3.143   5.631 -0.3819  0.3178  0.4179
 3447TIP3   OH231831   6.173   0.490  13.134  0.0483 -0.8059 -0.2054
 3447TIP3    H131832   6.188   0.434  13.058  1.2400  0.6408 -1.0970
 3447TIP3    H231833   6.112   0.441  13.188  2.2080 -3.6980 -0.1409
 3448TIP3   OH231834   0.011   6.433   5.188  0.6408 -0.0445  0.2465
 3448TIP3    H131835   0.053   6.499   5.134 -0.8301  0.2984 -0.5391
 3448TIP3    H231836   0.074   6.414   5.257  1.0201  2.3731  0.6485
 3449TIP3   OH231837   6.723   4.489   2.220  0.4981  0.4018 -0.2575
 3449TIP3    H131838   6.803   4.540   2.211  0.6079  0.4247  0.6713
 3449TIP3    H231839   6.752   4.408   2.263 -0.0755  0.7295  0.7815
 3450TIP3   OH231840   0.346   4.132   4.780 -0.1133 -0.5780 -0.2368
 3450TIP3    H131841   0.306   4.080   4.710 -1.1965 -0.1441  0.0420
 3450TIP3    H231842   0.429   4.088   4.797  0.2584 -0.5821 -1.9161
 3451TIP3   OH231843   6.372   4.394  12.186  0.3241 -0.5468 -0.3665
 3451TIP3    H131844   6.448   4.436  12.225 -0.6650  1.2599 -0.2796
 3451TIP3    H231845   6.326   4.465  12.140 -1.0629 -1.6743 -0.8032
 3452TIP3   OH231846   2.892   5.844   3.945  0.0903 -0.2068 -0.5076
 3452TIP3    H131847   2.901   5.896   3.865  1.5739  2.4175  1.2290
 3452TIP3    H231848   2.799   5.822   3.949 -0.0354 -0.3954 -2.8926
 3453TIP3   OH231849   6.726   4.013   6.035 -0.3611 -0.4369  0.3288
 3453TIP3    H131850   6.703   4.071   6.108  2.2654 -0.6305  1.4123
 3453TIP3    H231851   6.681   3.931   6.055 -0.4414 -0.1854  1.2243
 3454TIP3   OH231852   0.809   4.089   3.013 -0.1727  0.1553  0.2630
 3454TIP3    H131853   0.862   4.156   3.055 -0.7241  1.0819 -0.4826
 3454TIP3    H231854   0.762   4.135   2.944 -1.0357 -0.8792  0.1319
 3455TIP3   OH231855   1.810   5.561  15.582  0.3673 -0.2390  0.0936
 3455TIP3    H131856   1.843   5.531  15.667 -0.9509 -0.8702  0.4209
 3455TIP3    H231857   1.826   5.655  15.581 -0.9024  0.0276  1.6834
 3456TIP3   OH231858   5.756   5.694  15.897  0.0150  0.1791 -0.4493
 3456TIP3    H131859   5.743   5.780  15.856  0.3035  1.3441  1.7328
 3456TIP3    H231860   5.802   5.714  15.979 -0.3352 -2.0296  0.3356
 3457TIP3   OH231861   0.162   3.682   3.124 -0.0019 -0.7226  0.0562
 3457TIP3    H131862   0.189   3.768   3.093  0.9213  0.3882  3.5068
 3457TIP3    H231863   0.069   3.676   3.100  0.1540  0.8099 -1.0778
 3458TIP3   OH231864   6.252   1.684  11.948  0.2340  0.1680 -0.4278
 3458TIP3    H131865   6.283   1.637  11.871  2.0173 -0.6191  0.6965
 3458TIP3    H231866   6.303   1.765  11.948 -1.7591  1.5123 -1.5385
 3459TIP3   OH231867   5.832   1.919  12.651  0.5017 -0.3569 -0.3821
 3459TIP3    H131868   5.878   1.992  12.609  1.4462 -1.2077 -0.8820
 3459TIP3    H231869   5.789   1.873  12.579  0.7898 -0.8953 -0.2154
 3460TIP3   OH231870   6.815   5.891   1.853  0.4979 -0.3027 -0.4316
 3460TIP3    H131871   6.865   5.829   1.905 -0.0444 -1.7539 -1.5608
 3460TIP3    H231872   6.746   5.922   1.911 -0.0733 -1.8595 -0.2392
 3461TIP3   OH231873   1.398   1.320   4.825  0.0562 -0.3179  0.1877
 3461TIP3    H131874   1.489   1.324   4.857  0.2223  0.4294 -0.3439
 3461TIP3    H231875   1.363   1.407   4.845 -1.0465 -1.0880  1.7953
 3462TIP3   OH231876   0.663   3.954   0.103  0.5781 -0.3402  0.3582
 3462TIP3    H131877   0.676   3.978   0.011  2.0683  1.1963  0.9122
 3462TIP3    H231878   0.741   3.904   0.126  0.8046  0.3319  1.0947
 3463TIP3   OH231879   4.076   2.608  14.275 -0.3105 -0.3672 -0.2710
 3463TIP3    H131880   4.067   2.528  14.224  0.8838  0.0798 -1.2391
 3463TIP3    H231881   4.003   2.663  14.247 -0.8010 -0.8857 -0.0267
 3464TIP3   OH231882   1.847   4.724   1.827 -0.0381 -0.1189  0.6099
 3464TIP3    H131883   1.870   4.810   1.864 -1.3637 -0.1917  1.6720
 3464TIP3    H231884   1.751   4.721   1.833 -0.0302 -1.5020  0.1792
 3465TIP3   OH231885   2.259   1.841  13.782 -0.2923 -0.5092 -0.1717
 3465TIP3    H131886   2.291   1.823  13.694 -2.1809 -2.3639 -0.5464
 3465TIP3    H231887   2.331   1.815  13.840  1.0807  1.0064 -1.1194
 3466TIP3   OH231888   0.372   1.103  13.290 -0.2089  0.5490 -0.4673
 3466TIP3    H131889   0.444   1.047  13.318 -1.8313 -0.5795  1.7529
 3466TIP3    H231890   0.336   1.059  13.212  0.6503  0.4217 -0.8016
 3467TIP3   OH231891   0.445   6.024   2.481 -0.3342 -0.3281  0.0921
 3467TIP3    H131892   0.380   6.040   2.412  1.3885 -0.2840 -1.5888
 3467TIP3    H231893   0.457   6.110   2.522 -1.0056 -0.2402  0.1135
 3468TIP3   OH231894   6.541   1.983   6.139 -0.1326 -0.1313  0.1690
 3468TIP3    H131895   6.469   2.045   6.130  0.7580  0.6792 -1.9971
 3468TIP3    H231896   6.620   2.036   6.127  0.6929 -1.4668 -0.5533
 3469TIP3   OH231897   1.501   3.649  16.162  0.4457 -0.1578  0.1151
 3469TIP3    H131898   1.468   3.586  16.225  1.0170 -0.5414  0.0334
 3469TIP3    H231899   1.527   3.597  16.086  0.0371  0.2687 -0.3254
 3470TIP3   OH231900   0.053   4.846  12.892  1.1383 -0.7307  0.0226
 3470TIP3    H131901   0.046   4.803  12.977  1.9191  0.2577  0.6097
 3470TIP3    H231902   0.110   4.922  12.908 -0.2490  0.5750 -0.9523
 3471TIP3   OH231903   0.840   2.830  13.847 -0.2180  0.0708  0.0834
 3471TIP3    H131904   0.932   2.807  13.855 -0.4887 -0.6590  1.5596
 3471TIP3    H231905   0.793   2.751  13.874 -1.2448  0.8408  0.6563
 3472TIP3   OH231906   1.180   0.226   0.106  0.6125 -0.0054 -0.6295
 3472TIP3    H131907   1.152   0.143   0.145 -0.2235  0.6313  0.1609
 3472TIP3    H231908   1.176   0.209   0.012  1.5304 -1.1982 -0.4810
 3473TIP3   OH231909   0.305   0.267   4.809 -0.4641  0.5159  0.1585
 3473TIP3    H131910   0.228   0.310   4.847  0.4783  4.6172 -1.9457
 3473TIP3    H231911   0.272   0.222   4.732 -1.0548  0.3590  0.5002
 3474TIP3   OH231912   6.224   5.111   6.338  0.0165 -0.3201  0.1084
 3474TIP3    H131913   6.222   5.185   6.399 -1.8650  0.0104 -0.2959
 3474TIP3    H231914   6.145   5.061   6.358 -0.2951 -0.5768 -1.5696
 3475TIP3   OH231915   3.070   3.392  10.415 -0.2505 -0.9096 -0.4495
 3475TIP3    H131916   3.104   3.334  10.484 -0.5778  0.8053  1.2382
 3475TIP3    H231917   3.149   3.420  10.368  0.2364 -0.4793  0.5786
 3476TIP3   OH231918   5.238   5.730  16.437 -0.3117 -0.2721 -0.3507
 3476TIP3    H131919   5.333   5.720  16.439 -0.4459 -1.5576  0.4883
 3476TIP3    H231920   5.215   5.724  16.345  0.5262  1.4166 -0.7139
 3477TIP3   OH231921   4.288   4.805   3.914  0.0441  0.1192 -0.6398
 3477TIP3    H131922   4.328   4.741   3.855  0.1604 -0.3720 -0.0399
 3477TIP3    H231923   4.351   4.813   3.986 -0.0331  0.8119 -0.6488
 3478TIP3   OH231924   2.272   2.267   3.210  0.0038 -0.1999 -1.0313
 3478TIP3    H131925   2.333   2.197   3.190  0.4100  0.1867 -1.1467
 3478TIP3    H231926   2.236   2.293   3.125  0.7109  0.5096 -1.1252
 3479TIP3   OH231927   6.805   6.675  16.586 -0.0893 -0.3387  0.2519
 3479TIP3    H131928   6.852   6.591  16.584 -0.8055 -0.8031  1.7436
 3479TIP3    H231929   6.873   6.741  16.571  0.4592 -1.1674 -1.1438
 3480TIP3   OH231930   3.691   6.571   1.249 -0.1197 -0.0393 -0.0637
 3480TIP3    H131931   3.701   6.584   1.344  1.3385  0.3175 -0.2355
 3480TIP3    H231932   3.619   6.629   1.225  0.3130  0.8277  0.6425
 3481TIP3   OH231933   0.202   1.472  16.557  0.1863 -0.2506  0.7058
 3481TIP3    H131934   0.228   1.456  16.466 -1.3705  2.2753 -0.2858
 3481TIP3    H231935   0.155   1.393  16.582 -0.9262 -0.3136 -1.3446
 3482TIP3   OH231936   1.762   4.993   3.656 -0.5942  0.0616  0.9070
 3482TIP3    H131937   1.733   4.945   3.578 -0.3423  0.1746  0.7419
 3482TIP3    H231938   1.857   4.994   3.649 -0.5980  0.6057  0.8959
 3483TIP3   OH231939   6.845   0.515   4.646  0.4078 -0.0722 -0.2862
 3483TIP3    H131940   6.879   0.564   4.571 -0.3714 -0.4337 -0.8780
 3483TIP3    H231941   6.922   0.469   4.680  0.8056  0.2379 -0.7440
 3484TIP3   OH231942   0.909   6.803   0.613 -0.7638  0.3871  0.0397
 3484TIP3    H131943   0.886   6.714   0.641  0.4910 -0.0779 -0.3064
 3484TIP3    H231944   0.829   6.838   0.574 -1.5588 -0.2206  1.0762
 3485TIP3   OH231945   6.657   4.826  14.684 -0.7354  0.5701 -0.1964
 3485TIP3    H131946   6.577   4.810  14.734 -0.0319  1.9620  1.4704
 3485TIP3    H231947   6.679   4.917  14.702  1.7459 -0.0251  0.1868
 3486TIP3   OH231948   4.898   2.666   4.082  0.4398 -0.0551 -0.5269
 3486TIP3    H131949   4.849   2.665   4.000 -1.4208  0.8388  0.5341
 3486TIP3    H231950   4.847   2.612   4.142  0.7788  0.8168  0.5870
 3487TIP3   OH231951   4.560   5.431   2.676  0.0517  0.1682  0.0233
 3487TIP3    H131952   4.579   5.509   2.728 -0.1444 -0.1978  0.6623
 3487TIP3    H231953   4.563   5.359   2.740  0.3929 -0.3637 -0.5827
 3488TIP3   OH231954   0.078   4.464  12.428  0.1468 -0.2513 -0.5293
 3488TIP3    H131955   0.140   4.472  12.501  0.4805  0.0120 -0.8376
 3488TIP3    H231956   0.019   4.540  12.439 -0.1759 -0.5436 -0.1936
 3489TIP3   OH231957   0.252   5.276  12.296 -0.6436  0.0299  0.5239
 3489TIP3    H131958   0.165   5.252  12.329 -0.3671 -0.1145  1.1566
 3489TIP3    H231959   0.299   5.193  12.288 -0.1950  0.2066  1.2564
 3490TIP3   OH231960   5.906   2.573   3.215  0.3551  0.3578 -0.3329
 3490TIP3    H131961   5.871   2.586   3.304 -1.5444  1.9438 -1.2342
 3490TIP3    H231962   5.918   2.478   3.208 -1.6371 -0.0442  0.8733
 3491TIP3   OH231963   3.136   1.369  13.872  0.6836 -0.2428  0.1657
 3491TIP3    H131964   3.126   1.295  13.932  2.3618  0.2400  1.0933
 3491TIP3    H231965   3.108   1.335  13.787 -0.5313 -1.3167  0.9438
 3492TIP3   OH231966   4.242   6.096   4.893 -0.1640  0.1883  0.1093
 3492TIP3    H131967   4.285   6.100   4.808 -0.2874  0.0668  0.0407
 3492TIP3    H231968   4.309   6.123   4.956 -0.1487  0.5327 -0.0521
 3493TIP3   OH231969   1.911   1.746  14.316 -0.0485  0.0473 -0.4666
 3493TIP3    H131970   1.924   1.833  14.356 -0.2579  0.2233 -0.7772
 3493TIP3    H231971   1.986   1.736  14.258  0.4798 -0.3871  0.2697
 3494TIP3   OH231972   5.360   4.130  12.177 -0.1003 -0.0518  0.0214
 3494TIP3    H131973   5.439   4.084  12.150  0.8844  1.0846  0.8652
 3494TIP3    H231974   5.392   4.209  12.221 -1.7071  0.5562  0.1694
 3495TIP3   OH231975   2.182   6.780   0.463  0.4291 -0.2958 -0.3688
 3495TIP3    H131976   2.176   6.848   0.395  2.5111 -0.3674 -0.7049
 3495TIP3    H231977   2.158   6.699   0.418 -1.3082  0.0544 -0.1610
 3496TIP3   OH231978   2.084   3.679  13.544 -0.3188 -0.7061  0.0520
 3496TIP3    H131979   2.145   3.621  13.500  0.5526  0.9525 -1.0071
 3496TIP3    H231980   2.124   3.696  13.630  0.6056  0.1499 -0.5281
 3497TIP3   OH231981   2.138   1.562   5.345 -0.2287  0.1203 -0.1365
 3497TIP3    H131982   2.163   1.470   5.336  1.2514  0.5508 -0.7726
 3497TIP3    H231983   2.104   1.586   5.258 -0.0398  0.3285 -0.1540
 3498TIP3   OH231984   5.533   1.761   0.245 -0.2307 -0.6110 -0.0124
 3498TIP3    H131985   5.606   1.715   0.288 -1.2603 -1.6035  0.7299
 3498TIP3    H231986   5.470   1.692   0.225  0.0957 -0.1531 -2.9718
 3499TIP3   OH231987   2.263   2.550  17.018  0.2314 -0.3011  0.0158
 3499TIP3    H131988   2.256   2.484  17.086 -0.4416  0.7039  0.9390
 3499TIP3    H231989   2.357   2.566  17.010  0.3297 -0.6154  0.5187
 3500TIP3   OH231990   5.102   4.380  15.399 -0.5347  0.4483  0.1210
 3500TIP3    H131991   5.188   4.378  15.356 -0.1628  2.3006  0.6593
 3500TIP3    H231992   5.040   4.387  15.327 -0.0849  0.9883 -0.2300
 3501TIP3   OH231993   4.289   3.845   6.401 -0.1957  0.0666 -0.3977
 3501TIP3    H131994   4.196   3.822   6.400 -0.2978  0.4670 -2.1760
 3501TIP3    H231995   4.296   3.913   6.468 -1.1512 -0.0817 -0.1322
 3502TIP3   OH231996   4.106   3.943   3.647 -0.1713  0.1995  0.3084
 3502TIP3    H131997   4.072   3.871   3.699 -0.3312 -1.1217 -1.5353
 3502TIP3    H231998   4.198   3.921   3.633 -0.1232  0.5578  0.0577
 3503TIP3   OH231999   5.938   4.760   0.596  0.6216  0.0831 -0.5393
 3503TIP3    H132000   5.880   4.770   0.521  0.7374 -0.0657 -0.6510
 3503TIP3    H232001   5.992   4.684   0.574  0.7248  0.1010 -0.3505
 3504TIP3   OH232002   0.032   3.324   1.172 -0.1296 -0.5828  0.1758
 3504TIP3    H132003  -0.060   3.350   1.175  0.6222  2.3119  0.9698
 3504TIP3    H232004   0.060   3.344   1.082 -0.3900 -2.1113 -0.2767
 3505TIP3   OH232005   6.317   0.221  16.065  0.7038  0.0009  0.9220
 3505TIP3    H132006   6.319   0.165  16.143  1.7689  1.9914  2.4280
 3505TIP3    H232007   6.408   0.229  16.038  0.8114  2.1140  1.6759
 3506TIP3   OH232008   4.718   0.279   2.148 -0.6189  0.0717 -0.0469
 3506TIP3    H132009   4.764   0.337   2.088  0.8286 -1.3100 -0.3535
 3506TIP3    H232010   4.748   0.191   2.124 -1.4955 -0.6744  1.4270
 3507TIP3   OH232011   6.079   6.785  11.185  0.2203  0.3567  0.5282
 3507TIP3    H132012   6.029   6.797  11.104  1.6413 -0.3551 -0.5007
 3507TIP3    H232013   6.086   6.691  11.195  2.9299  0.3709 -0.4368
 3508TIP3   OH232014   1.406   3.213  15.408 -0.2439  0.8030 -0.0690
 3508TIP3    H132015   1.340   3.145  15.421 -1.4839  2.1576  1.1660
 3508TIP3    H232016   1.489   3.171  15.429 -0.9550 -0.4121  0.3888
 3509TIP3   OH232017   6.172   6.614  12.355  0.2996 -0.0215 -0.0923
 3509TIP3    H132018   6.197   6.521  12.362  0.9403  0.2510  1.8014
 3509TIP3    H232019   6.076   6.612  12.346  0.3165 -0.8600 -0.1921
 3510TIP3   OH232020   6.516   5.742   2.802  0.3505 -0.4137 -0.4163
 3510TIP3    H132021   6.608   5.719   2.811  0.6542  0.5870 -0.7937
 3510TIP3    H232022   6.477   5.669   2.754  1.1687 -0.3715 -1.1649
 3511TIP3   OH232023   3.993   6.496   0.576 -0.3908  0.2908  0.2510
 3511TIP3    H132024   4.060   6.435   0.545  0.8088  0.7038  1.8805
 3511TIP3    H232025   3.917   6.479   0.520  2.1222  2.4074 -4.3167
 3512TIP3   OH232026   5.956   6.036  12.465  0.4344  0.2676 -0.4153
 3512TIP3    H132027   5.990   6.109  12.413 -0.5116  1.2235  0.2659
 3512TIP3    H232028   6.032   5.979  12.479  1.2827  1.3184 -0.6306
 3513TIP3   OH232029   6.083   1.567  14.354  0.2753  0.3821 -0.3329
 3513TIP3    H132030   6.162   1.614  14.324  0.6818  0.1639  0.3656
 3513TIP3    H232031   6.113   1.477  14.369 -0.3308  0.0740 -0.9501
 3514TIP3   OH232032   1.640   1.239  13.216  0.1469 -0.3934  0.1347
 3514TIP3    H132033   1.568   1.208  13.162  0.9088 -0.9994 -0.5746
 3514TIP3    H232034   1.716   1.237  13.157  0.6496  0.6844  0.7186
 3515TIP3   OH232035   6.322   5.027  13.678 -0.0090  0.1696  0.5523
 3515TIP3    H132036   6.390   5.094  13.671 -0.4158  0.3693 -3.1355
 3515TIP3    H232037   6.312   4.993  13.589 -4.1100 -0.4904  1.0751
 3516TIP3   OH232038   3.124   4.177   4.114 -0.0009 -0.4023  0.4463
 3516TIP3    H132039   3.136   4.207   4.024 -0.9890  0.3433  0.5518
 3516TIP3    H232040   3.039   4.133   4.114 -0.5607  0.6340  1.2536
 3517TIP3   OH232041   1.650   4.010   5.414 -0.7979 -0.0938  0.3429
 3517TIP3    H132042   1.694   4.095   5.418 -0.8556 -0.0313 -0.3029
 3517TIP3    H232043   1.717   3.946   5.438 -0.8035  0.1462  1.0165
 3518TIP3   OH232044   4.307   3.795  12.548 -0.4205  0.6536  0.4212
 3518TIP3    H132045   4.330   3.702  12.550  0.6405  0.9072  1.2627
 3518TIP3    H232046   4.310   3.822  12.640 -0.2087  1.6309  0.1402
 3519TIP3   OH232047   5.799   5.187   3.166  0.0329 -0.1410 -0.0642
 3519TIP3    H132048   5.889   5.165   3.141  0.6380 -0.8058  2.4148
 3519TIP3    H232049   5.805   5.207   3.260 -2.2431  0.8959 -0.0840
 3520TIP3   OH232050   0.166   4.888  15.145 -0.1685  0.0715  0.7607
 3520TIP3    H132051   0.127   4.887  15.057 -0.6971 -1.6686  0.9613
 3520TIP3    H232052   0.113   4.950  15.194 -1.3477 -0.6372  0.4297
 3521TIP3   OH232053   3.726   1.381   1.499 -0.2437  0.2761 -0.2951
 3521TIP3    H132054   3.702   1.303   1.550 -1.3074  0.0975 -1.0415
 3521TIP3    H232055   3.821   1.380   1.498 -0.2079 -0.0441  1.1922
 3522TIP3   OH232056   4.406   1.692   0.811 -0.3763  0.2562  0.2899
 3522TIP3    H132057   4.499   1.711   0.803 -0.3378  1.2262  2.4143
 3522TIP3    H232058   4.394   1.611   0.760  1.5276  0.3079 -0.3316
 3523TIP3   OH232059   3.286   1.969   4.217  0.1386 -0.2913  0.0219
 3523TIP3    H132060   3.218   1.989   4.281  0.0743 -1.9276  0.5127
 3523TIP3    H232061   3.279   2.039   4.152 -0.7860  0.5768  1.0128
 3524TIP3   OH232062   2.181   6.637   2.461  0.3172 -0.3603  0.2569
 3524TIP3    H132063   2.102   6.674   2.500  0.2795  0.7172 -0.8026
 3524TIP3    H232064   2.241   6.628   2.535 -0.0979  0.7132  0.7428
 3525TIP3   OH232065   0.512   3.596  11.808 -0.6752  0.1762 -0.1398
 3525TIP3    H132066   0.458   3.668  11.776 -0.6498 -0.1425 -0.9190
 3525TIP3    H232067   0.602   3.624  11.789 -0.4612  1.1122  1.9704
 3526TIP3   OH232068   5.785   5.556  16.970  0.4274 -0.1645  0.2680
 3526TIP3    H132069   5.875   5.530  16.988  0.1247 -0.8782  0.8108
 3526TIP3    H232070   5.783   5.574  16.876  1.0000 -0.7214  0.1418
 3527TIP3   OH232071   1.403   0.746   0.592 -0.6399  0.3834  0.4473
 3527TIP3    H132072   1.349   0.667   0.579 -0.3866  0.2344  0.2839
 3527TIP3    H232073   1.386   0.799   0.514 -0.8822  0.5324  0.6022
 3528TIP3   OH232074   3.675   0.125   3.153  0.0941 -0.5883 -0.0596
 3528TIP3    H132075   3.751   0.182   3.164 -0.7236  0.3852  0.8066
 3528TIP3    H232076   3.711   0.040   3.130  1.4598 -0.2811  0.8806
 3529TIP3   OH232077   3.523   5.969   4.582 -0.2543  0.2624 -0.2037
 3529TIP3    H132078   3.453   5.910   4.554  1.4802 -0.5914 -3.1188
 3529TIP3    H232079   3.522   5.963   4.678 -2.4503 -1.6971 -0.2540
 3530TIP3   OH232080   5.667   2.529  15.819  0.0657 -0.1757 -0.3711
 3530TIP3    H132081   5.749   2.574  15.800  0.3771 -0.6231 -0.1087
 3530TIP3    H232082   5.662   2.528  15.914 -0.8954  1.0041 -0.3924
 3531TIP3   OH232083   0.838   3.910  12.239 -0.1868 -0.6354  0.3917
 3531TIP3    H132084   0.829   3.898  12.334 -0.4028  0.9395  0.6081
 3531TIP3    H232085   0.753   3.945  12.211 -0.2823 -1.5251 -0.4705
 3532TIP3   OH232086   3.995   2.446  16.822 -0.1817 -0.8089  0.2908
 3532TIP3    H132087   3.925   2.511  16.822  0.7671  0.2757  1.0029
 3532TIP3    H232088   3.982   2.396  16.903 -0.6244 -1.1822 -0.0081
 3533TIP3   OH232089   3.129   0.277  13.708 -0.3753  0.0806  0.3116
 3533TIP3    H132090   3.208   0.258  13.658 -0.7195 -1.6702  0.3492
 3533TIP3    H232091   3.075   0.198  13.699 -1.7974  0.9349  0.9039
 3534TIP3   OH232092   4.523   4.821   2.743  0.2564 -0.0327 -0.8582
 3534TIP3    H132093   4.489   4.836   2.832 -1.1288 -0.1588 -1.3385
 3534TIP3    H232094   4.545   4.728   2.741  0.6435  0.0511 -0.5305
 3535TIP3   OH232095   0.866   0.994   1.859 -0.2952 -0.1589  1.1504
 3535TIP3    H132096   0.896   1.012   1.948  1.1238  1.4133  0.4124
 3535TIP3    H232097   0.945   0.968   1.812 -0.4688  1.6663 -0.2597
 3536TIP3   OH232098   5.229   4.757  10.824  0.1247 -0.1540  0.4082
 3536TIP3    H132099   5.257   4.670  10.793  0.2795 -0.1238  0.4611
 3536TIP3    H232100   5.135   4.759  10.809 -0.2868 -1.1941  2.5043
 3537TIP3   OH232101   3.568   4.640   2.987 -0.2611  0.1832 -0.4550
 3537TIP3    H132102   3.512   4.596   2.923 -0.4090 -0.0620 -0.1557
 3537TIP3    H232103   3.545   4.602   3.071  0.1346  0.3043 -0.2855
 3538TIP3   OH232104   1.032   4.939  15.184 -0.1433 -0.7994  0.5174
 3538TIP3    H132105   1.087   4.874  15.139  0.4649  0.7887 -1.1856
 3538TIP3    H232106   1.039   4.916  15.277  0.8100 -2.5718  0.0597
 3539TIP3   OH232107   6.408   1.997  14.992 -0.2417  0.3069 -0.0996
 3539TIP3    H132108   6.400   2.028  14.902  1.8393  0.0241 -0.4483
 3539TIP3    H232109   6.332   1.940  15.005 -0.9095  0.8525 -1.4602
 3540TIP3   OH232110   3.560   6.313  10.450  0.0247  0.0913  0.0838
 3540TIP3    H132111   3.508   6.312  10.370 -1.0947  1.2151  0.7697
 3540TIP3    H232112   3.644   6.349  10.424 -0.2040  0.0971 -0.6487
 3541TIP3   OH232113   3.409   4.396  12.076  0.7117 -0.4533 -0.4936
 3541TIP3    H132114   3.374   4.328  12.133  0.5515  0.3843  0.4453
 3541TIP3    H232115   3.345   4.404  12.005  1.0821 -1.7444 -0.9918
 3542TIP3   OH232116   6.845   2.703   2.265 -0.0660  0.4511  0.0579
 3542TIP3    H132117   6.839   2.766   2.336 -0.7912  1.7513 -1.1274
 3542TIP3    H232118   6.934   2.714   2.231 -0.0111  0.4473  0.2011
 3543TIP3   OH232119   5.018   1.150   5.590  1.1480  0.5486  0.0551
 3543TIP3    H132120   5.066   1.209   5.533  1.7730 -1.0732 -1.1832
 3543TIP3    H232121   4.934   1.136   5.546  1.2354  0.0874  0.0218
 3544TIP3   OH232122   0.097   0.997  16.661 -0.5113 -0.2271 -0.0430
 3544TIP3    H132123   0.122   0.923  16.717 -0.9150 -0.5146 -0.2380
 3544TIP3    H232124   0.047   0.957  16.590  0.4245  0.0802 -0.8846
 3545TIP3   OH232125   4.003   1.881  13.344 -0.2159 -0.6175  0.0441
 3545TIP3    H132126   4.021   1.871  13.250 -0.0055  2.0586 -0.2930
 3545TIP3    H232127   3.948   1.807  13.366 -2.6284  0.1070 -2.8694
 3546TIP3   OH232128   2.019   1.846  13.975  0.5002  0.0060 -0.6125
 3546TIP3    H132129   2.110   1.825  13.998  0.6900  2.5878  1.4099
 3546TIP3    H232130   2.018   1.941  13.965 -2.2976  0.3003  1.2539
 3547TIP3   OH232131   3.200   4.637  14.713  0.3945 -0.4462 -0.3313
 3547TIP3    H132132   3.213   4.713  14.770 -1.9214 -0.4051  0.2303
 3547TIP3    H232133   3.240   4.564  14.762 -0.1881 -0.1374  0.6259
 3548TIP3   OH232134   0.372   5.526   2.791 -0.2777 -0.0978 -0.2612
 3548TIP3    H132135   0.362   5.462   2.862  2.2676  0.5216  0.7935
 3548TIP3    H232136   0.394   5.608   2.837 -1.6752  1.1120 -1.6619
 3549TIP3   OH232137   1.042   5.848  12.907 -0.2772 -0.4640  0.0780
 3549TIP3    H132138   1.060   5.755  12.894 -1.0169 -0.3951 -1.6010
 3549TIP3    H232139   0.992   5.874  12.830 -0.4060  1.2471  0.7050
 3550TIP3   OH232140   3.727   6.671   4.458  0.1374 -0.6812 -0.4228
 3550TIP3    H132141   3.753   6.763   4.459 -0.2451 -0.5700 -0.6402
 3550TIP3    H232142   3.801   6.625   4.417  1.1438 -0.7303  1.3513
 3551TIP3   OH232143   2.555   1.616  12.339  0.7535 -0.4421 -0.2335
 3551TIP3    H132144   2.567   1.574  12.254 -0.2252 -1.7673  0.2452
 3551TIP3    H232145   2.586   1.552  12.402 -1.2067 -0.6883  0.5543
 3552TIP3   OH232146   3.662   3.696   5.544 -0.2004  0.0729  0.2456
 3552TIP3    H132147   3.741   3.659   5.584 -0.9815 -0.5855  1.2329
 3552TIP3    H232148   3.671   3.677   5.451 -1.2690 -4.2353  0.7758
 3553TIP3   OH232149   2.076   3.409  12.182 -0.4744 -0.5140  0.4746
 3553TIP3    H132150   2.063   3.397  12.276 -0.6278  0.1157  0.5440
 3553TIP3    H232151   2.163   3.374  12.165 -0.4039 -0.5406  0.8720
 3554TIP3   OH232152   1.013   5.403   2.164 -0.8704  0.4905 -0.1307
 3554TIP3    H132153   1.026   5.476   2.103 -1.1552  0.9287  0.3243
 3554TIP3    H232154   0.949   5.436   2.227 -2.6569 -0.8627 -1.1262
 3555TIP3   OH232155   1.681   2.807  15.719  0.2619 -0.0407 -0.6136
 3555TIP3    H132156   1.762   2.816  15.770 -0.1814 -0.6909  0.2309
 3555TIP3    H232157   1.704   2.743  15.651  1.1438  1.5455 -1.9044
 3556TIP3   OH232158   3.141   4.397  14.111 -0.5065  0.5927 -0.0365
 3556TIP3    H132159   3.190   4.378  14.191 -0.2150 -1.1810 -0.5957
 3556TIP3    H232160   3.050   4.375  14.133 -0.3742 -0.2166 -0.2867
 3557TIP3   OH232161   4.807   1.473   1.406 -0.5592 -0.6968 -0.3305
 3557TIP3    H132162   4.727   1.466   1.354 -0.0393  0.6072 -1.3648
 3557TIP3    H232163   4.798   1.554   1.456  0.1854 -0.4235 -0.6158
 3558TIP3   OH232164   0.379   5.568  15.086 -0.0425 -0.3400 -0.0862
 3558TIP3    H132165   0.301   5.546  15.035 -0.7663 -1.3559  1.4007
 3558TIP3    H232166   0.427   5.486  15.095  1.4711  0.3671 -1.3734
 3559TIP3   OH232167   0.423   5.327   6.097 -0.2109  0.1035  0.3381
 3559TIP3    H132168   0.449   5.239   6.125  0.0596  1.0973  3.6576
 3559TIP3    H232169   0.327   5.324   6.099 -0.2186 -0.3136 -0.3406
 3560TIP3   OH232170   0.487   1.893  11.791  0.1168 -0.2051 -0.1141
 3560TIP3    H132171   0.462   1.943  11.868  0.1242 -0.4535  0.0487
 3560TIP3    H232172   0.405   1.874  11.746 -0.4814 -3.7506  2.0451
 3561TIP3   OH232173   4.728   6.574  16.769 -0.4614  0.1055  0.4828
 3561TIP3    H132174   4.736   6.582  16.864 -0.5333 -1.2737  0.6260
 3561TIP3    H232175   4.662   6.505  16.756  0.8190 -0.9875 -0.5290
 3562TIP3   OH232176   0.899   0.089   0.834  0.0825 -0.0166  0.1166
 3562TIP3    H132177   0.901   0.064   0.741 -0.4583  1.1973 -0.2417
 3562TIP3    H232178   0.887   0.184   0.833 -2.5786 -0.2648  1.4362
 3563TIP3   OH232179   3.862   2.619  14.521  0.3868  0.4847  0.5798
 3563TIP3    H132180   3.950   2.616  14.559  0.9250  0.1676 -0.6345
 3563TIP3    H232181   3.844   2.712  14.509 -1.1030  0.8363  4.4259
 3564TIP3   OH232182   2.408   1.155   5.065  0.1467 -0.0809 -0.1551
 3564TIP3    H132183   2.462   1.176   4.989  2.6278  1.3259  1.8324
 3564TIP3    H232184   2.363   1.236   5.086 -0.8605 -0.5772 -0.3180
 3565TIP3   OH232185   5.504   3.476  13.150 -0.3110 -0.1146 -0.2042
 3565TIP3    H132186   5.585   3.428  13.133 -0.1849  0.6488 -1.9747
 3565TIP3    H232187   5.467   3.492  13.063 -1.7257  0.6445  0.5025
 3566TIP3   OH232188   2.349   2.597   3.379  0.2677 -0.4716 -0.2744
 3566TIP3    H132189   2.254   2.610   3.381  0.3400  0.2631 -0.9177
 3566TIP3    H232190   2.368   2.541   3.454 -0.6128 -0.2111  0.1531
 3567TIP3   OH232191   2.875   5.941   1.689  0.2045  0.0843  0.0576
 3567TIP3    H132192   2.783   5.952   1.715  0.5300  1.3856  0.7539
 3567TIP3    H232193   2.871   5.900   1.603 -0.9859 -1.6466  0.8828
 3568TIP3   OH232194   5.376   4.307   4.421  0.3855  0.1207 -0.1158
 3568TIP3    H132195   5.465   4.341   4.429  0.2559  0.3513  0.4150
 3568TIP3    H232196   5.383   4.215   4.447  0.2152  0.5191  1.4950
 3569TIP3   OH232197   6.523   2.156  16.267 -0.6370 -0.2373 -0.3357
 3569TIP3    H132198   6.437   2.198  16.262  0.0968  1.8045  2.2802
 3569TIP3    H232199   6.512   2.085  16.330 -0.4544 -0.1244 -0.1764
 3570TIP3   OH232200   4.796   1.085   3.060  0.1179  0.3224 -0.1965
 3570TIP3    H132201   4.747   1.088   3.142 -0.9676 -0.3367 -0.7959
 3570TIP3    H232202   4.739   1.128   2.996  0.1765 -0.7098 -0.9693
 3571TIP3   OH232203   6.388   4.110  16.494 -0.1001  0.2945  0.3895
 3571TIP3    H132204   6.417   4.042  16.555 -1.6470 -0.4259  0.3538
 3571TIP3    H232205   6.357   4.062  16.418  2.2164  1.1874 -1.2384
 3572TIP3   OH232206   0.782   6.130  10.469 -0.5974  0.0019 -0.1243
 3572TIP3    H132207   0.876   6.121  10.451 -0.5433  0.4496 -0.0845
 3572TIP3    H232208   0.759   6.051  10.518  0.0328  0.4889  0.9825
 3573TIP3   OH232209   2.319   5.143  10.427 -0.0112 -0.2921  0.0662
 3573TIP3    H132210   2.393   5.082  10.426  1.8293  1.7707 -2.0786
 3573TIP3    H232211   2.356   5.226  10.397 -2.9910  1.1635  0.0637
 3574TIP3   OH232212   3.018   5.164   2.976  0.6396  0.8369 -0.1579
 3574TIP3    H132213   3.052   5.175   3.065  0.8760 -1.9044  0.1703
 3574TIP3    H232214   3.090   5.188   2.919  1.2272  0.5294  0.4432
 3575TIP3   OH232215   1.743   2.716   4.537 -0.2048  0.0715 -0.2173
 3575TIP3    H132216   1.735   2.774   4.613  0.7205 -0.4841  0.3146
 3575TIP3    H232217   1.663   2.664   4.538  0.5682 -1.2053  1.4791
 3576TIP3   OH232218   3.969   6.439  11.392  0.1750 -1.0041 -0.6053
 3576TIP3    H132219   3.968   6.499  11.318 -1.7895 -1.2228 -0.8216
 3576TIP3    H232220   3.876   6.420  11.409  0.5888 -1.4060  1.5478
 3577TIP3   OH232221   6.604   4.824  11.060  0.9627  0.5279  0.5064
 3577TIP3    H132222   6.650   4.742  11.042 -0.0313 -0.0930  0.7144
 3577TIP3    H232223   6.674   4.889  11.070  1.7892 -0.3838  0.8258
 3578TIP3   OH232224   4.026   6.608   6.232  0.2323 -0.2811  0.2108
 3578TIP3    H132225   4.104   6.665   6.227  0.0723 -0.0067  0.7157
 3578TIP3    H232226   4.054   6.526   6.192 -0.0632  0.7038 -2.2257
 3579TIP3   OH232227   5.474   3.438  15.260  0.1539  0.0103 -0.4720
 3579TIP3    H132228   5.564   3.434  15.229  1.0164  1.5508  1.6510
 3579TIP3    H232229   5.447   3.346  15.267  0.5129 -0.4738 -3.7149
 3580TIP3   OH232230   5.803   5.766  14.692  0.0535  0.1848  0.0644
 3580TIP3    H132231   5.758   5.849  14.682 -0.5710 -0.0018  1.1565
 3580TIP3    H232232   5.733   5.702  14.706  0.5934 -0.2199  1.0449
 3581TIP3   OH232233   3.135   1.435  14.401 -0.4527 -0.3740  0.3149
 3581TIP3    H132234   3.079   1.411  14.476  0.2999 -0.8395  0.7350
 3581TIP3    H232235   3.217   1.463  14.440 -1.4922  3.8866 -0.0529
 3582TIP3   OH232236   3.737   4.052   3.337  0.3556 -0.1695  0.2001
 3582TIP3    H132237   3.830   4.063   3.357  0.1019  0.5379  1.0658
 3582TIP3    H232238   3.698   4.138   3.354 -0.2268 -0.0379 -1.5743
 3583TIP3   OH232239   2.851   6.467  11.002  0.2828  0.1619 -0.5279
 3583TIP3    H132240   2.828   6.490  11.092 -1.8306 -0.2593 -0.9183
 3583TIP3    H232241   2.915   6.534  10.976  1.4685 -0.0948  1.4633
 3584TIP3   OH232242   1.955   5.919  13.356  0.1719 -0.1046 -0.2746
 3584TIP3    H132243   1.890   5.914  13.285 -1.3426 -1.4851  1.1124
 3584TIP3    H232244   1.982   5.828  13.370  0.4452  0.1395  0.8955
 3585TIP3   OH232245   1.547   1.207   5.056 -1.1177 -0.1126 -0.4301
 3585TIP3    H132246   1.543   1.183   5.149 -2.4672  1.7473  0.0465
 3585TIP3    H232247   1.641   1.205   5.035 -0.7540 -0.2068  1.0757
 3586TIP3   OH232248   1.924   4.901  11.035 -0.2354 -0.0030 -0.0108
 3586TIP3    H132249   1.879   4.911  11.118 -0.7567  0.7917 -0.3761
 3586TIP3    H232250   1.924   4.807  11.018 -1.4173 -0.0455  0.1810
 3587TIP3   OH232251   0.055   3.955  12.090  0.0663 -0.1575 -0.6505
 3587TIP3    H132252  -0.018   4.013  12.068 -1.5555 -1.6151  0.6133
 3587TIP3    H232253   0.037   3.926  12.179  0.8855 -2.4701 -1.1690
 3588TIP3   OH232254   1.521   6.357  15.937 -0.3004  0.3120  0.2137
 3588TIP3    H132255   1.537   6.444  15.898 -0.7019  1.0958  1.7331
 3588TIP3    H232256   1.578   6.354  16.014 -2.6159  0.5770  2.0444
 3589TIP3   OH232257   5.157   4.141   3.083  0.3659  0.2222  0.1234
 3589TIP3    H132258   5.189   4.063   3.038 -1.2079 -1.0828  1.1422
 3589TIP3    H232259   5.145   4.114   3.174  1.6831  2.2662  0.9810
 3590TIP3   OH232260   2.204   3.698  11.248 -0.1017  0.3839 -0.1227
 3590TIP3    H132261   2.166   3.754  11.316  0.9231  0.5792  0.3106
 3590TIP3    H232262   2.192   3.609  11.281  0.4551  0.4817  0.3608
 3591TIP3   OH232263   0.597   1.480   5.108 -0.1861  0.1856 -0.0117
 3591TIP3    H132264   0.598   1.456   5.201 -0.1246  0.9708  0.1942
 3591TIP3    H232265   0.507   1.510   5.092 -1.0021 -2.4201 -0.8719
 3592TIP3   OH232266   4.763   1.362   5.379  0.6909  0.7211 -0.0306
 3592TIP3    H132267   4.833   1.427   5.388  1.7757 -0.2781 -0.9815
 3592TIP3    H232268   4.737   1.367   5.287  0.1130  0.4664  0.1137
 3593TIP3   OH232269   3.080   4.496   3.002 -0.7326 -0.6761  0.1382
 3593TIP3    H132270   3.159   4.494   3.056 -1.1010  1.2780  0.8223
 3593TIP3    H232271   3.022   4.432   3.041  0.0655 -1.2879  0.3403
 3594TIP3   OH232272   4.377   6.699  14.323  0.2145 -0.0138 -0.2485
 3594TIP3    H132273   4.300   6.720  14.376 -0.4059  0.7940 -1.4228
 3594TIP3    H232274   4.351   6.719  14.234  1.4312 -0.7857 -0.8095
 3595TIP3   OH232275   5.897   4.552   4.477 -0.4908 -0.0864 -0.0346
 3595TIP3    H132276   5.806   4.527   4.457  0.7964 -2.8914 -3.5812
 3595TIP3    H232277   5.927   4.484   4.538 -0.4817  0.2414  0.3277
 3596TIP3   OH232278   0.821   4.818  16.778 -0.8098 -0.3469  0.3729
 3596TIP3    H132279   0.836   4.904  16.739 -1.4245 -0.4563 -0.1197
 3596TIP3    H232280   0.902   4.798  16.824 -0.7360  0.5933  0.6818
 3597TIP3   OH232281   3.828   6.815  11.367  0.1442 -0.4114  0.2614
 3597TIP3    H132282   3.810   6.740  11.311  1.2708 -0.5980  0.1152
 3597TIP3    H232283   3.921   6.807  11.388  0.3025  0.9832  0.1862
 3598TIP3   OH232284   5.326   4.046  16.915  0.2953  0.6319 -0.4335
 3598TIP3    H132285   5.364   4.009  16.994  0.8609  0.9289 -0.5559
 3598TIP3    H232286   5.360   4.136  16.912 -0.5688  0.9694 -0.4544
 3599TIP3   OH232287   3.308   0.492  10.864  0.1487 -0.3641 -0.1674
 3599TIP3    H132288   3.222   0.456  10.840 -0.5532  0.4747  1.0065
 3599TIP3    H232289   3.311   0.577  10.820 -0.2018  0.1856  0.8258
 3600TIP3   OH232290   1.142   4.010  10.320  0.3618  0.2306  0.0519
 3600TIP3    H132291   1.117   4.086  10.267 -1.2621 -2.0620 -2.7086
 3600TIP3    H232292   1.084   4.014  10.396 -0.9815  0.8155 -0.9652
 3601TIP3   OH232293   4.035   5.494  13.383 -0.4720 -0.5176 -0.0077
 3601TIP3    H132294   4.086   5.426  13.340  0.1627 -0.6158  0.8891
 3601TIP3    H232295   3.984   5.535  13.312 -0.2016 -1.3384 -0.6787
 3602TIP3   OH232296   0.370   1.106   2.718 -0.1374 -0.4410  0.3749
 3602TIP3    H132297   0.367   1.016   2.750  1.0169 -0.9924 -0.9246
 3602TIP3    H232298   0.446   1.145   2.762 -0.8831  0.0413  1.2520
 3603TIP3   OH232299   6.770   0.568  16.470  0.1576  0.0110  0.2719
 3603TIP3    H132300   6.684   0.529  16.486  0.1675 -0.1934 -0.1653
 3603TIP3    H232301   6.752   0.662  16.460 -0.2479 -0.2155 -1.4650
 3604TIP3   OH232302   5.492   3.038  16.083  0.7857  0.3905  0.1364
 3604TIP3    H132303   5.572   2.986  16.087  0.6738  0.2408  0.4734
 3604TIP3    H232304   5.421   2.974  16.078  0.6404  0.4976  0.6915
 3605TIP3   OH232305   2.475   1.848   1.751 -0.1324  0.8721 -0.1914
 3605TIP3    H132306   2.387   1.886   1.756 -1.6548 -2.2027 -1.0501
 3605TIP3    H232307   2.475   1.800   1.669  1.8154 -0.5148  0.5574
 3606TIP3   OH232308   1.402   0.363  16.925  0.1312 -0.0868 -0.3393
 3606TIP3    H132309   1.393   0.269  16.942 -1.4680  0.0489 -0.2981
 3606TIP3    H232310   1.427   0.368  16.833  0.8463 -0.5645 -0.1786
 3607TIP3   OH232311   3.514   2.309  12.257 -0.1299 -0.0474  0.7627
 3607TIP3    H132312   3.508   2.360  12.338 -1.0736  0.8557  0.1437
 3607TIP3    H232313   3.435   2.256  12.256  0.6007 -1.2024  1.1475
 3608TIP3   OH232314   2.789   1.559   4.074  0.1546 -0.2497  0.6122
 3608TIP3    H132315   2.821   1.639   4.033 -0.9436 -0.4522 -0.6819
 3608TIP3    H232316   2.723   1.589   4.137 -1.7973 -0.2098 -1.3593
 3609TIP3   OH232317   3.262   6.794   0.950  0.0904 -0.1739  0.6681
 3609TIP3    H132318   3.294   6.824   1.035  0.5521 -0.6398  0.6596
 3609TIP3    H232319   3.169   6.818   0.950  0.5782  1.9125  0.3737
 3610TIP3   OH232320   4.614   5.127   4.349 -0.2129  0.6428  0.1832
 3610TIP3    H132321   4.701   5.110   4.314  0.3716  2.3283  0.7065
 3610TIP3    H232322   4.572   5.184   4.285 -0.6169  0.5111  0.3249
 3611TIP3   OH232323   2.248   2.875  13.355  0.4370  0.4018 -0.4349
 3611TIP3    H132324   2.214   2.796  13.313  0.9553 -0.4939  0.7752
 3611TIP3    H232325   2.194   2.946  13.320 -2.5984 -0.8861  1.2170
 3612TIP3   OH232326   6.457   2.090   2.256  0.0908  0.5161 -0.3804
 3612TIP3    H132327   6.544   2.116   2.286 -0.0209  0.3285  0.1116
 3612TIP3    H232328   6.397   2.151   2.299 -0.1602 -0.4165  0.6505
 3613TIP3   OH232329   3.125   6.432  13.956  0.0076  0.4050  0.7885
 3613TIP3    H132330   3.175   6.431  14.038 -2.5029 -2.5619  2.5250
 3613TIP3    H232331   3.036   6.458  13.983 -0.3607  1.7085 -1.4680
 3614TIP3   OH232332   4.796   4.316  15.069  0.0807 -0.1154 -0.3735
 3614TIP3    H132333   4.746   4.319  15.151  0.1578  0.0047 -0.3316
 3614TIP3    H232334   4.833   4.404  15.060  0.1979 -0.1738 -0.4594
 3615TIP3   OH232335   6.000   2.960   2.087 -0.4980  0.0731 -0.0610
 3615TIP3    H132336   6.095   2.970   2.096 -0.3721 -1.6524  0.9813
 3615TIP3    H232337   5.967   2.973   2.176 -0.7536 -3.3875  0.4945
 3616TIP3   OH232338   0.120   2.168  12.516 -0.0112  0.0819 -0.5144
 3616TIP3    H132339   0.189   2.235  12.525  1.3517 -1.2946 -0.2550
 3616TIP3    H232340   0.039   2.218  12.512  0.9197  1.7375  0.1284
 3617TIP3   OH232341   3.574   1.014   5.738 -0.0553  0.4391  0.0475
 3617TIP3    H132342   3.568   1.045   5.829 -0.9071  0.9645 -0.1778
 3617TIP3    H232343   3.668   1.015   5.719  0.0091  2.3320  0.2551
 3618TIP3   OH232344   1.098   4.343   0.330  0.2819  0.5002  0.2529
 3618TIP3    H132345   1.106   4.417   0.390 -1.4054  0.0406  1.1256
 3618TIP3    H232346   1.043   4.280   0.377 -2.2202  0.6264 -2.2237
 3619TIP3   OH232347   6.348   5.591  16.119  0.4068 -0.1252  0.0624
 3619TIP3    H132348   6.388   5.534  16.184  0.9836 -0.2786 -0.4212
 3619TIP3    H232349   6.317   5.666  16.169  4.1469  1.5960  0.1520
 3620TIP3   OH232350   0.619   3.532  15.753  0.1017 -0.0336  0.1565
 3620TIP3    H132351   0.660   3.609  15.790 -1.1216  0.1334  1.2472
 3620TIP3    H232352   0.573   3.564  15.676  1.0342 -0.0154 -0.4042
 3621TIP3   OH232353   1.634   5.990  12.079  0.1027 -0.4063  0.0118
 3621TIP3    H132354   1.594   5.957  11.998 -0.9928  0.5941  0.1293
 3621TIP3    H232355   1.572   6.054  12.113  2.1140  1.7928 -0.1800
 3622TIP3   OH232356   4.548   5.373  13.593 -0.6852 -0.0083 -0.2888
 3622TIP3    H132357   4.493   5.424  13.534 -2.0730 -1.2766 -0.1532
 3622TIP3    H232358   4.487   5.338  13.658  0.3347 -1.1964  0.0596
 3623TIP3   OH232359   3.853   4.383  17.067  0.3566 -0.8040 -0.5515
 3623TIP3    H132360   3.923   4.345  17.120  0.2881 -2.0266 -1.3027
 3623TIP3    H232361   3.773   4.340  17.097 -0.1363  0.7159  0.4261
 3624TIP3   OH232362   5.183   3.473   5.687  0.1662  0.0273  0.7616
 3624TIP3    H132363   5.152   3.563   5.684  0.6883  0.1931 -0.1443
 3624TIP3    H232364   5.106   3.422   5.714 -0.0219  0.7768  1.6837
 3625TIP3   OH232365   2.185   6.084   6.263  0.2305  0.8922  0.6390
 3625TIP3    H132366   2.113   6.076   6.200  0.0440 -0.6960  1.0187
 3625TIP3    H232367   2.241   6.153   6.226  0.5647 -0.5404 -1.7347
 3626TIP3   OH232368   3.219   1.218  16.065 -0.1842 -0.1689 -0.4407
 3626TIP3    H132369   3.297   1.162  16.062 -0.3773 -0.4303 -0.6191
 3626TIP3    H232370   3.254   1.307  16.070  0.1272 -0.3740  1.8929
 3627TIP3   OH232371   2.299   6.119   0.692 -0.3087  0.0849  0.2395
 3627TIP3    H132372   2.379   6.123   0.743 -0.2901  0.1548  0.2046
 3627TIP3    H232373   2.283   6.025   0.680 -1.5387 -0.0190  2.2786
 3628TIP3   OH232374   0.344   5.805  10.527 -0.7403  0.4646 -0.5889
 3628TIP3    H132375   0.251   5.784  10.517 -0.8593  0.8144 -0.2872
 3628TIP3    H232376   0.354   5.824  10.621 -0.2362 -0.1587 -0.5128
 3629TIP3   OH232377   5.330   1.185   0.159 -0.4441  0.3217  0.5992
 3629TIP3    H132378   5.357   1.104   0.117 -3.1259  0.3033 -1.3782
 3629TIP3    H232379   5.373   1.254   0.108  1.1675  0.2300  1.7607
 3630TIP3   OH232380   4.772   2.371   3.365 -0.0305  0.0347  0.3644
 3630TIP3    H132381   4.860   2.389   3.334  0.3159 -0.9217  0.7437
 3630TIP3    H232382   4.775   2.279   3.392 -0.6146  0.4958  2.1465
 3631TIP3   OH232383   6.256   6.213  15.440 -0.6006 -0.3964 -0.3510
 3631TIP3    H132384   6.201   6.184  15.513 -1.1008 -0.2780 -0.6757
 3631TIP3    H232385   6.209   6.287  15.402 -0.8989 -1.1136 -1.4529
 3632TIP3   OH232386   1.896   4.834  16.066 -0.4787  0.0950 -0.2473
 3632TIP3    H132387   1.921   4.816  16.157 -1.5279  1.2455  0.2998
 3632TIP3    H232388   1.851   4.918  16.070  0.4941  0.7543 -2.0333
 3633TIP3   OH232389   6.466   2.085   1.813  0.1590 -0.0495  0.3843
 3633TIP3    H132390   6.476   2.120   1.902  0.9264  1.2139 -0.1577
 3633TIP3    H232391   6.373   2.096   1.793 -0.1626 -1.0132  1.2776
 3634TIP3   OH232392   1.709   2.706   2.765  0.3361 -0.0128  0.6136
 3634TIP3    H132393   1.767   2.730   2.838  0.5649  0.7152  0.1977
 3634TIP3    H232394   1.738   2.760   2.692  0.3727 -1.0257 -0.1458
 3635TIP3   OH232395   1.216   4.466   4.819  0.1011 -0.0333  0.0036
 3635TIP3    H132396   1.238   4.395   4.879 -2.7329 -1.8036 -0.8783
 3635TIP3    H232397   1.279   4.457   4.748  1.0316 -0.3481  0.8313
 3636TIP3   OH232398   4.005   2.778  13.274 -0.2428  0.1658  0.1391
 3636TIP3    H132399   3.986   2.720  13.201 -1.6909  0.5443  0.1862
 3636TIP3    H232400   3.977   2.730  13.352  0.4060  0.1454  0.3683
 3637TIP3   OH232401   4.574   3.770   3.761  0.3783 -0.1330  0.8874
 3637TIP3    H132402   4.574   3.679   3.729 -2.4880  0.2486 -0.4661
 3637TIP3    H232403   4.580   3.761   3.857 -0.9960 -1.8300  0.8664
 3638TIP3   OH232404   4.161   1.824  10.735 -0.2277 -0.1337  0.4523
 3638TIP3    H132405   4.187   1.875  10.658  1.1565 -0.5390  0.6234
 3638TIP3    H232406   4.167   1.887  10.807  2.4245 -0.6768  0.8165
 3639TIP3   OH232407   6.303   1.626   3.555  0.2627  0.0858  0.1543
 3639TIP3    H132408   6.296   1.562   3.626  0.1780 -0.1466 -0.0585
 3639TIP3    H232409   6.348   1.579   3.485  0.6623  0.4283  0.1845
 3640TIP3   OH232410   2.101   3.709  12.843 -0.6809 -0.1776 -0.0344
 3640TIP3    H132411   2.132   3.737  12.929 -0.8292  1.0106 -0.3491
 3640TIP3    H232412   2.006   3.718  12.848 -0.5903  1.4277 -0.8200
 3641TIP3   OH232413   1.068   6.066  15.786  0.0722  0.1627  0.1605
 3641TIP3    H132414   1.041   6.155  15.811 -0.6670  0.9360 -2.9474
 3641TIP3    H232415   1.162   6.064  15.803 -0.3649  0.4553  3.0216
 3642TIP3   OH232416   3.091   6.071   2.526 -0.2847  0.2809  0.0685
 3642TIP3    H132417   3.161   6.086   2.463 -0.9046 -0.7026 -0.8872
 3642TIP3    H232418   3.092   5.977   2.542 -1.1135  0.3083  0.3552
 3643TIP3   OH232419   0.708   2.060   1.595  0.1956  0.3597  0.3812
 3643TIP3    H132420   0.626   2.108   1.607 -0.0621 -0.0697  0.3722
 3643TIP3    H232421   0.708   2.036   1.502  0.3812  0.4453  0.3591
 3644TIP3   OH232422   2.275   3.484  12.392  0.4315  0.7240 -0.5928
 3644TIP3    H132423   2.352   3.536  12.415 -0.9117  2.7441 -0.4623
 3644TIP3    H232424   2.284   3.467  12.298  1.1663  0.6793 -0.5219
 3645TIP3   OH232425   0.619   4.228   5.389  0.3472 -0.6763  0.5894
 3645TIP3    H132426   0.622   4.303   5.329 -1.0964 -0.6901  0.4677
 3645TIP3    H232427   0.644   4.153   5.335  2.5053 -0.2197  0.8817
 3646TIP3   OH232428   3.230   4.196  15.959 -0.2151 -0.9319  0.2924
 3646TIP3    H132429   3.237   4.124  16.021  0.5805 -1.7824 -0.7608
 3646TIP3    H232430   3.137   4.200  15.937 -0.2629 -1.6424  0.3542
 3647TIP3   OH232431   3.903   6.515   4.295 -0.3416  0.2552  0.1590
 3647TIP3    H132432   3.983   6.515   4.347 -0.1181  0.8654 -0.1741
 3647TIP3    H232433   3.881   6.422   4.285  1.7374 -0.1111 -1.9039
 3648TIP3   OH232434   3.033   6.054  11.301  0.1623 -0.1844 -0.4371
 3648TIP3    H132435   3.059   6.146  11.312 -1.4467  0.1716  0.6738
 3648TIP3    H232436   3.027   6.020  11.390 -1.4994 -0.6891 -0.7124
 3649TIP3   OH232437   1.583   2.229   5.851 -0.7585 -0.4208 -0.0078
 3649TIP3    H132438   1.541   2.212   5.935  0.3126  0.1484  0.6481
 3649TIP3    H232439   1.512   2.264   5.796 -1.6532 -1.5343  0.3854
 3650TIP3   OH232440   2.595   1.725   5.011 -0.8330  0.1047  0.2220
 3650TIP3    H132441   2.516   1.775   4.989 -0.7048 -1.1646 -3.8048
 3650TIP3    H232442   2.661   1.791   5.030 -1.9759  1.2831  0.2511
 3651TIP3   OH232443   3.683   4.794   1.654 -0.1067 -0.2361  0.5186
 3651TIP3    H132444   3.618   4.776   1.722 -1.2533  3.6574  0.7070
 3651TIP3    H232445   3.733   4.712   1.647 -2.9545 -2.3999  2.5976
 3652TIP3   OH232446   5.456   0.460  14.291 -0.6544  0.5011 -0.3781
 3652TIP3    H132447   5.438   0.515  14.367  0.5186 -1.5182  1.4702
 3652TIP3    H232448   5.536   0.497  14.253 -0.0497  0.3069  0.6617
 3653TIP3   OH232449   4.329   3.422   0.979 -0.0638  0.2002  0.0425
 3653TIP3    H132450   4.366   3.382   1.057  1.5599  2.7167  0.6750
 3653TIP3    H232451   4.236   3.398   0.982  0.3039 -1.2418  1.7427
 3654TIP3   OH232452   5.093   3.211  16.076  0.0137  0.2250 -0.5091
 3654TIP3    H132453   5.152   3.158  16.022  0.6998 -0.0979  0.5374
 3654TIP3    H232454   5.094   3.169  16.162 -1.4198  0.4650 -0.3435
 3655TIP3   OH232455   1.128   2.341   2.268  0.1019  0.3688 -0.6424
 3655TIP3    H132456   1.095   2.252   2.278 -2.7826  1.5707  2.9011
 3655TIP3    H232457   1.056   2.389   2.226 -0.2685  1.7983  1.4562
 3656TIP3   OH232458   2.478   3.368   2.593  0.6160 -0.2510 -0.4354
 3656TIP3    H132459   2.510   3.312   2.522  0.4123  1.6822 -2.1528
 3656TIP3    H232460   2.423   3.433   2.549  0.3333  0.9110  1.5293
 3657TIP3   OH232461   0.329   3.060  13.313  0.8090 -0.1033  0.1065
 3657TIP3    H132462   0.299   3.083  13.225  0.1515 -1.1692  0.0369
 3657TIP3    H232463   0.248   3.047  13.363  1.1310 -2.2439  0.1245
 3658TIP3   OH232464   4.960   1.135  11.814 -0.0594  0.3345  0.5902
 3658TIP3    H132465   4.962   1.145  11.909 -0.9423  0.5954  0.5904
 3658TIP3    H232466   4.937   1.222  11.781 -0.6755  0.0197  0.1869
 3659TIP3   OH232467   2.687   1.004   2.361  0.4204  0.8170 -0.0178
 3659TIP3    H132468   2.640   0.947   2.301 -1.0895  0.7477  1.1859
 3659TIP3    H232469   2.724   0.945   2.427  0.1239  1.0863  0.3959
 3660TIP3   OH232470   2.373   0.666  16.164 -0.4197 -0.4335  0.3272
 3660TIP3    H132471   2.432   0.668  16.089 -2.4537  3.2736 -1.4502
 3660TIP3    H232472   2.428   0.692  16.238  1.1243 -1.7897 -0.2953
 3661TIP3   OH232473   5.001   6.835  12.893  0.0489  0.0804  1.0631
 3661TIP3    H132474   4.919   6.827  12.942 -0.3419  3.4387  1.1749
 3661TIP3    H232475   4.974   6.836  12.801  0.1475 -0.2691  1.0283
 3662TIP3   OH232476   1.100   0.340   5.575 -0.1385 -0.3300  0.1958
 3662TIP3    H132477   1.170   0.377   5.521  0.2466 -0.4589  0.5972
 3662TIP3    H232478   1.020   0.380   5.541  0.2048  0.3892  0.2163
 3663TIP3   OH232479   1.977   2.706   2.204 -0.7175 -0.4119 -0.0850
 3663TIP3    H132480   2.033   2.755   2.144 -1.8144 -1.1670 -1.7898
 3663TIP3    H232481   1.889   2.741   2.190 -0.6871  1.2558  3.0689
 3664TIP3   OH232482   5.092   5.949   2.010  0.2677  0.3873 -0.1523
 3664TIP3    H132483   5.002   5.953   1.977  0.1570  1.6051  0.2286
 3664TIP3    H232484   5.083   5.916   2.099  0.3256 -0.6159 -0.5100
 3665TIP3   OH232485   5.520   5.992   3.929  0.1086 -0.1369 -0.2232
 3665TIP3    H132486   5.547   6.031   4.012 -0.7892 -1.5024  0.7376
 3665TIP3    H232487   5.430   6.021   3.916 -0.8077 -2.3155  0.8359
 3666TIP3   OH232488   3.160   2.493  11.953  0.3149  0.0082 -0.2124
 3666TIP3    H132489   3.159   2.405  11.991  0.2930 -0.5597 -1.4501
 3666TIP3    H232490   3.251   2.522  11.961  0.7289 -0.8792 -1.3720
 3667TIP3   OH232491   1.016   3.734   6.752 -0.2798  0.0798 -0.0266
 3667TIP3    H132492   0.979   3.646   6.745  0.6145 -0.2384 -1.0613
 3667TIP3    H232493   0.942   3.793   6.738 -1.0653 -0.4796  1.5897
 3668TIP3   OH232494   2.668   4.531   0.251  1.0225  0.2213 -0.0745
 3668TIP3    H132495   2.712   4.455   0.289  0.3746 -0.8388 -1.4037
 3668TIP3    H232496   2.588   4.496   0.212 -0.0073  1.8071  0.5030
 3669TIP3   OH232497   4.156   5.240  12.990  0.2687 -0.4800 -0.4105
 3669TIP3    H132498   4.078   5.292  12.969 -0.6429 -1.6206  0.0242
 3669TIP3    H232499   4.228   5.303  12.988 -0.8089  0.8251  0.2714
 3670TIP3   OH232500   5.301   2.917  14.351 -0.3823  0.0475  0.3669
 3670TIP3    H132501   5.229   2.915  14.288  0.0563 -0.5300 -0.1354
 3670TIP3    H232502   5.375   2.880  14.304 -0.7919 -3.5185  2.1117
 3671TIP3   OH232503   5.132   2.710   3.405  0.1747 -0.5141  0.4510
 3671TIP3    H132504   5.186   2.779   3.365 -1.0265  0.4728  0.4538
 3671TIP3    H232505   5.104   2.748   3.489 -1.4617 -0.5068 -0.0629
 3672TIP3   OH232506   2.419   2.492   3.136  0.4876 -0.1130 -0.4257
 3672TIP3    H132507   2.404   2.495   3.231 -3.5952  0.6070 -0.9202
 3672TIP3    H232508   2.416   2.399   3.114 -0.4401 -0.1922 -0.0280
 3673TIP3   OH232509   5.035   4.293  16.478 -0.1827  0.4163 -0.2754
 3673TIP3    H132510   4.958   4.269  16.425 -0.6665 -0.7086  0.8844
 3673TIP3    H232511   5.018   4.383  16.506 -2.7457 -0.7762  2.6028
 3674TIP3   OH232512   6.714   1.264  12.114  0.1192  0.3005 -0.1540
 3674TIP3    H132513   6.687   1.215  12.192 -2.4148  2.3215  0.3697
 3674TIP3    H232514   6.663   1.225  12.042  0.0992  0.4679 -0.2300
 3675TIP3   OH232515   4.525   4.595  15.244 -0.2704 -0.2629  0.3763
 3675TIP3    H132516   4.452   4.570  15.302 -1.9951  1.9895 -0.6638
 3675TIP3    H232517   4.509   4.547  15.163 -0.2993 -0.1357  0.3075
 3676TIP3   OH232518   5.992   5.625  16.499 -0.2256  0.1172 -0.0112
 3676TIP3    H132519   6.086   5.606  16.499 -0.1169  0.5938  0.9281
 3676TIP3    H232520   5.985   5.712  16.459 -0.4137 -0.4647 -1.3101
 3677TIP3   OH232521   3.783   4.732   0.491 -0.4552 -0.1768  0.4240
 3677TIP3    H132522   3.784   4.826   0.478 -1.9770 -0.1542  0.2698
 3677TIP3    H232523   3.874   4.709   0.509 -0.0307  1.2808  0.2593
 3678TIP3   OH232524   2.566   3.922   6.423 -0.1439  0.0651  0.2996
 3678TIP3    H132525   2.523   3.837   6.436 -1.4759  0.6737  0.0790
 3678TIP3    H232526   2.538   3.975   6.498  0.8391  0.2524  0.5411
 3679TIP3   OH232527   3.799   4.797   3.755 -0.3771 -0.2398 -0.9065
 3679TIP3    H132528   3.742   4.873   3.759 -0.1354 -0.0666 -0.7784
 3679TIP3    H232529   3.884   4.828   3.785 -0.5331 -0.7983  0.1891
 3680TIP3   OH232530   5.731   1.082   3.458  0.1478 -0.2570  0.2037
 3680TIP3    H132531   5.811   1.135   3.456  0.2065 -0.3656 -0.5739
 3680TIP3    H232532   5.710   1.074   3.551  1.4943 -0.9036  0.4744
 3681TIP3   OH232533   4.317   1.553  13.155  0.3977  0.2929 -0.6072
 3681TIP3    H132534   4.232   1.519  13.129  0.2115  0.7610 -0.6350
 3681TIP3    H232535   4.306   1.578  13.247  0.5816  0.1171 -0.5360
 3682TIP3   OH232536   4.590   6.092   1.242  0.3669  0.1565  0.1673
 3682TIP3    H132537   4.561   6.152   1.174  0.6850 -0.1953 -0.2835
 3682TIP3    H232538   4.663   6.137   1.285  2.6665 -1.1141 -2.1573
 3683TIP3   OH232539   5.160   6.623   0.800  0.0599 -0.3977  0.1423
 3683TIP3    H132540   5.196   6.583   0.879 -0.3192  1.2285  1.1850
 3683TIP3    H232541   5.068   6.595   0.799  0.1963 -0.8456 -0.0177
 3684TIP3   OH232542   6.616   2.620  11.023 -0.1401  0.2249 -0.4305
 3684TIP3    H132543   6.685   2.655  10.966 -0.4584  0.5229 -0.6398
 3684TIP3    H232544   6.639   2.650  11.110 -0.9908  1.9276 -0.7476
 3685TIP3   OH232545   4.310   2.726   4.886  0.0070  0.2250  0.1857
 3685TIP3    H132546   4.308   2.688   4.797  0.9828  1.1099 -0.2299
 3685TIP3    H232547   4.226   2.701   4.924 -0.4427 -0.1548 -1.0014
 3686TIP3   OH232548   4.740   5.426  12.640  0.9651  0.9431  0.2480
 3686TIP3    H132549   4.760   5.396  12.551  0.1307  0.9885  0.0338
 3686TIP3    H232550   4.644   5.429  12.643  0.8965 -0.7397  1.6985
 3687TIP3   OH232551   5.318   3.976   5.030 -0.2860  0.9387  0.1588
 3687TIP3    H132552   5.310   3.900   4.972 -1.9917  0.6707  0.6610
 3687TIP3    H232553   5.405   3.968   5.069 -0.1137 -0.2948 -0.4309
 3688TIP3   OH232554   3.519   0.898   4.592 -0.2069  0.2728  0.2319
 3688TIP3    H132555   3.597   0.905   4.537 -1.6395  0.0499 -1.9400
 3688TIP3    H232556   3.538   0.826   4.652  0.9444 -0.2800 -0.7543
 3689TIP3   OH232557   4.315   1.248   4.359  0.7982 -0.4641  0.1764
 3689TIP3    H132558   4.295   1.168   4.407  2.0077 -1.4658 -0.9526
 3689TIP3    H232559   4.277   1.318   4.413  0.4668 -1.7042  1.6037
 3690TIP3   OH232560   0.891   5.381  16.723  0.3722 -0.0716 -0.7415
 3690TIP3    H132561   0.804   5.362  16.761  1.0228 -1.8578 -0.0202
 3690TIP3    H232562   0.882   5.468  16.684 -1.4603  0.1973  0.1770
 3691TIP3   OH232563   0.590   6.540  11.093  0.0507  0.1769 -0.6857
 3691TIP3    H132564   0.494   6.538  11.097  0.0979 -0.2595  0.9395
 3691TIP3    H232565   0.612   6.488  11.016 -0.9921 -0.7496 -0.3783
 3692TIP3   OH232566   5.358   1.404  16.187 -0.1729 -0.6502 -0.5006
 3692TIP3    H132567   5.392   1.452  16.263  0.8133 -0.0195 -1.3128
 3692TIP3    H232568   5.265   1.428  16.183 -0.2731 -0.8098  0.5806
 3693TIP3   OH232569   5.479   3.846   1.094 -0.3806  0.5468  0.1010
 3693TIP3    H132570   5.391   3.815   1.073  0.0355 -0.8288  0.2512
 3693TIP3    H232571   5.535   3.802   1.031  0.3073  0.6067  0.6555
 3694TIP3   OH232572   2.994   0.496  15.916 -0.1458 -0.4600 -0.2568
 3694TIP3    H132573   2.986   0.542  15.833  0.8725 -1.2171 -0.7923
 3694TIP3    H232574   2.924   0.533  15.970 -0.8030  0.0708 -1.4239
 3695TIP3   OH232575   3.599   5.014  15.814 -0.6067  0.3429  0.4665
 3695TIP3    H132576   3.694   5.002  15.822 -0.6910  0.0948  1.1989
 3695TIP3    H232577   3.581   5.096  15.860 -0.5321  1.3495 -1.2187
 3696TIP3   OH232578   3.157   5.754   1.485  0.0185  1.1301 -0.6270
 3696TIP3    H132579   3.137   5.722   1.573  3.1321 -0.3775 -0.3233
 3696TIP3    H232580   3.226   5.818   1.498  0.8076  0.6019 -1.9667
 3697TIP3   OH232581   6.268   4.469  17.042  0.0990  0.0213 -0.2148
 3697TIP3    H132582   6.264   4.429  17.129  1.8005  2.6954  1.2436
 3697TIP3    H232583   6.349   4.437  17.004 -0.6121 -1.0951 -0.8586
 3698TIP3   OH232584   5.479   0.108   1.927 -0.3295  0.2336  1.0594
 3698TIP3    H132585   5.487   0.203   1.935  0.5001  0.2647 -0.0380
 3698TIP3    H232586   5.569   0.077   1.920 -0.6174 -0.5940  0.9527
 3699TIP3   OH232587   6.233   5.989   3.781  0.1822  0.4392  0.1364
 3699TIP3    H132588   6.197   6.060   3.833  0.4731  0.2609  0.5868
 3699TIP3    H232589   6.232   6.022   3.691 -1.4194  0.3189  0.0757
 3700TIP3   OH232590   1.085   4.154   6.056 -0.1168  0.5573  0.3301
 3700TIP3    H132591   1.018   4.122   6.117 -0.2103  2.5822  1.4093
 3700TIP3    H232592   1.039   4.219   6.002  0.8030  1.5816  0.7261
 3701TIP3   OH232593   2.512   6.446  15.859 -0.5931  0.1989 -0.0905
 3701TIP3    H132594   2.504   6.351  15.847 -0.8483  0.1569  0.3853
 3701TIP3    H232595   2.596   6.457  15.903 -1.8339 -0.0720  2.5312
 3702TIP3   OH232596   0.800   3.559   1.740  0.2862  0.2053 -0.1691
 3702TIP3    H132597   0.730   3.582   1.679 -0.3609  0.2177  0.5612
 3702TIP3    H232598   0.756   3.553   1.825  0.9873 -0.7614  0.1388
 3703TIP3   OH232599   2.705   0.509   3.935 -0.5354 -0.8755 -0.0351
 3703TIP3    H132600   2.766   0.567   3.891  0.0156 -0.3426  1.3984
 3703TIP3    H232601   2.653   0.566   3.992 -0.4556 -1.6837  0.8732
 3704TIP3   OH232602   1.048   5.916   0.493 -0.1180 -0.4639 -0.7379
 3704TIP3    H132603   0.993   5.841   0.472 -2.2019  1.0226 -0.9217
 3704TIP3    H232604   1.025   5.981   0.426 -0.0512  1.1156  0.7312
 3705TIP3   OH232605   3.754   4.438   5.231 -0.6187  0.1979 -0.5432
 3705TIP3    H132606   3.668   4.396   5.225 -0.3180 -0.3091 -1.4728
 3705TIP3    H232607   3.738   4.519   5.281 -1.1826 -1.0481  1.4272
 3706TIP3   OH232608   4.348   4.650  11.683 -0.0951  1.1513 -0.4732
 3706TIP3    H132609   4.384   4.731  11.720 -0.1664  0.9384  0.0678
 3706TIP3    H232610   4.254   4.665  11.680 -0.0543  1.3225 -0.9497
 3707TIP3   OH232611   0.220   5.132   2.326 -0.6486 -0.5608 -0.2912
 3707TIP3    H132612   0.296   5.124   2.268  0.4643  0.3579  0.9708
 3707TIP3    H232613   0.251   5.100   2.411 -1.5110  0.2927  0.3672
 3708TIP3   OH232614   5.685   3.555   4.118  0.0288 -0.3993  0.1344
 3708TIP3    H132615   5.606   3.506   4.142 -1.1249  0.4856 -1.6376
 3708TIP3    H232616   5.655   3.618   4.052  1.5989  2.0702  1.5918
 3709TIP3   OH232617   0.319   0.805  15.385  0.2357 -0.3301  0.0736
 3709TIP3    H132618   0.224   0.815  15.380  0.3902  1.4982 -0.0712
 3709TIP3    H232619   0.336   0.789  15.478 -0.1249  0.9519  0.3806
 3710TIP3   OH232620   3.241   1.933   1.556  0.6330  0.3077 -0.0326
 3710TIP3    H132621   3.241   1.975   1.642 -0.9450 -1.1613  0.7298
 3710TIP3    H232622   3.326   1.889   1.551  0.7758  0.4919  0.7024
 3711TIP3   OH232623   0.518   4.198  11.957 -0.0810 -0.1998  0.0159
 3711TIP3    H132624   0.590   4.256  11.982  1.1168 -0.1284 -3.1443
 3711TIP3    H232625   0.461   4.253  11.903 -1.0912 -0.9823  0.2579
 3712TIP3   OH232626   2.064   4.591  14.097 -0.0789 -0.5482  0.8159
 3712TIP3    H132627   2.035   4.508  14.061  0.9500 -1.3493  1.7482
 3712TIP3    H232628   2.118   4.630  14.028  0.1996 -1.1092  0.7120
 3713TIP3   OH232629   5.711   1.053   1.518  0.2628 -0.0513 -0.0930
 3713TIP3    H132630   5.658   0.989   1.565 -1.0949 -0.9513 -2.6278
 3713TIP3    H232631   5.652   1.126   1.501  1.2966  1.1471  1.2175
 3714TIP3   OH232632   2.007   2.038  14.478  0.3561 -0.3599 -0.2853
 3714TIP3    H132633   2.097   2.012  14.498  0.8708  1.0443 -0.6678
 3714TIP3    H232634   1.970   2.063  14.563  0.4029 -0.6944 -0.1649
 3715TIP3   OH232635   5.842   3.933  14.983 -0.4584 -0.6460 -0.1455
 3715TIP3    H132636   5.841   3.946  15.078  1.0603  2.5267 -0.4174
 3715TIP3    H232637   5.752   3.949  14.955 -0.7764 -0.9357  0.6955
 3716TIP3   OH232638   4.618   0.524  15.936  0.5397 -0.0047 -0.1994
 3716TIP3    H132639   4.651   0.438  15.962  0.4153 -0.5705 -1.8077
 3716TIP3    H232640   4.692   0.568  15.895  1.0559  1.3317  2.0265
 3717TIP3   OH232641   5.211   5.998  15.487 -0.0202  0.4663 -0.0158
 3717TIP3    H132642   5.287   5.988  15.544 -1.4498  0.4814  2.0249
 3717TIP3    H232643   5.179   5.908  15.475  1.1705  0.2827 -2.1882
 3718TIP3   OH232644   2.749   2.565   5.417  0.6498 -0.1648  0.1648
 3718TIP3    H132645   2.810   2.548   5.346  0.6887  0.4736  0.0488
 3718TIP3    H232646   2.719   2.655   5.404  0.9785  0.1136  1.1923
 3719TIP3   OH232647   4.157   5.294  14.678 -0.0684  0.0457  0.1418
 3719TIP3    H132648   4.214   5.254  14.612  0.4228  0.2220  0.4559
 3719TIP3    H232649   4.092   5.342  14.626  1.3326  1.6217 -0.2374
 3720TIP3   OH232650   0.162   4.107  11.619  0.0371  0.1993  0.6774
 3720TIP3    H132651   0.185   4.193  11.652 -0.0831  1.0806 -1.4161
 3720TIP3    H232652   0.243   4.072  11.583 -0.0033 -0.4389  1.1616
 3721TIP3   OH232653   6.672   4.249   2.036  0.1919 -0.4423 -0.3563
 3721TIP3    H132654   6.672   4.313   2.107  0.8642 -1.0402  0.1933
 3721TIP3    H232655   6.729   4.179   2.066  0.6177 -0.6383 -1.5521
 3722TIP3   OH232656   4.967   4.818  16.958 -0.0116  0.0588 -0.1275
 3722TIP3    H132657   5.031   4.803  16.888  1.1554 -1.6640  1.2104
 3722TIP3    H232658   4.892   4.764  16.934 -0.2250  0.6523 -0.8018
 3723TIP3   OH232659   2.273   4.858  12.661 -0.2389 -0.4791 -0.3963
 3723TIP3    H132660   2.263   4.858  12.756  1.2499 -0.2014 -0.2031
 3723TIP3    H232661   2.344   4.921  12.646 -1.1693  0.2615 -1.7762
 3724TIP3   OH232662   6.752   2.365   6.908 -0.1298  0.1617  0.0856
 3724TIP3    H132663   6.775   2.457   6.894  1.0585 -0.0515  0.5473
 3724TIP3    H232664   6.772   2.323   6.825  0.3948  0.1266  0.2261
 3725TIP3   OH232665   5.179   1.060   4.538  0.0665  0.7852  0.1168
 3725TIP3    H132666   5.125   1.105   4.603  1.0705  0.9173  0.8957
 3725TIP3    H232667   5.269   1.072   4.570  0.4459 -0.7452 -0.2999
 3726TIP3   OH232668   2.623   4.251   3.957 -0.0326  0.0921 -0.2565
 3726TIP3    H132669   2.560   4.183   3.934 -0.1309  0.3759 -0.8607
 3726TIP3    H232670   2.708   4.209   3.948 -0.1136 -0.1515  0.0793
 3727TIP3   OH232671   5.351   4.823  14.250 -0.0014 -0.1084  0.3772
 3727TIP3    H132672   5.383   4.733  14.254 -2.1578 -0.8949  1.1944
 3727TIP3    H232673   5.400   4.862  14.178  1.6180 -1.6392  0.5564
 3728TIP3   OH232674   3.243   0.804  15.965  0.7674 -0.0988  0.1495
 3728TIP3    H132675   3.193   0.774  16.042 -1.9065 -1.0642 -1.7866
 3728TIP3    H232676   3.311   0.738  15.954  0.8018 -0.2850  1.3056
 3729TIP3   OH232677   4.988   2.820  14.569  0.3068 -0.1048 -0.4531
 3729TIP3    H132678   5.060   2.880  14.588 -0.1395  0.6692 -1.1506
 3729TIP3    H232679   4.912   2.877  14.559 -0.0701 -0.7567 -1.3921
 3730TIP3   OH232680   3.205   1.943   3.811 -0.2835 -0.6791 -0.6120
 3730TIP3    H132681   3.196   1.863   3.863  0.5101  0.2279  0.9673
 3730TIP3    H232682   3.115   1.975   3.800 -0.3920 -0.3263  1.1168
 3731TIP3   OH232683   2.877   0.685   2.273 -0.0467 -0.4499 -0.5090
 3731TIP3    H132684   2.866   0.727   2.358  1.2123  0.7030 -0.8786
 3731TIP3    H232685   2.932   0.745   2.223  2.5109 -2.8421 -0.8410
 3732TIP3   OH232686   3.469   1.413   1.431  0.7710 -0.3250 -0.0286
 3732TIP3    H132687   3.559   1.380   1.444  0.6672 -1.1617 -1.2417
 3732TIP3    H232688   3.449   1.460   1.511  1.4210 -2.1796  1.2889
 3733TIP3   OH232689   5.119   3.511  11.931 -0.3096  0.5238 -0.5627
 3733TIP3    H132690   5.121   3.597  11.974  0.9395 -0.0546  0.6110
 3733TIP3    H232691   5.065   3.524  11.854 -0.7943  2.1744  0.0166
 3734TIP3   OH232692   4.547   1.829   1.249  0.1842  0.1454  0.7031
 3734TIP3    H132693   4.469   1.808   1.198  0.7018  0.1434 -0.1111
 3734TIP3    H232694   4.534   1.919   1.277 -0.8088 -0.3443  1.9031
 3735TIP3   OH232695   2.484   1.338   1.829 -0.4258  0.5632 -0.1530
 3735TIP3    H132696   2.398   1.377   1.817 -0.6695 -0.1415 -0.8077
 3735TIP3    H232697   2.496   1.334   1.923 -0.5058  1.9414 -0.0551
 3736TIP3   OH232698   1.756   3.062  16.329  0.0884  0.3678  0.1763
 3736TIP3    H132699   1.737   3.133  16.267 -0.9933 -0.9956 -1.1332
 3736TIP3    H232700   1.678   3.006  16.325 -0.3463  0.5930  3.3714
 3737TIP3   OH232701   1.234   1.838  15.229  0.0575  0.9694 -0.7935
 3737TIP3    H132702   1.317   1.856  15.273  0.1448 -0.1058 -0.4903
 3737TIP3    H232703   1.231   1.743  15.221 -0.6918  1.0497 -1.6972
 3738TIP3   OH232704   0.098   5.471   0.593  0.5209  0.4202  0.3576
 3738TIP3    H132705   0.145   5.421   0.526 -2.4560 -1.0825 -0.7496
 3738TIP3    H232706   0.124   5.430   0.676  0.2992 -1.1488 -0.3102
 3739TIP3   OH232707   4.522   4.594  16.530  0.3459  0.3285  0.5155
 3739TIP3    H132708   4.602   4.626  16.489 -0.7749  2.2426 -0.2992
 3739TIP3    H232709   4.454   4.606  16.465 -1.0646  1.1745  2.0663
 3740TIP3   OH232710   5.870   1.332   5.414 -0.3691  0.4836  0.3764
 3740TIP3    H132711   5.952   1.370   5.382  0.0343  0.5096  1.4238
 3740TIP3    H232712   5.808   1.347   5.343  0.1369  1.8318  0.1894
 3741TIP3   OH232713   3.724   1.246  14.416 -0.5838  0.0835 -0.2013
 3741TIP3    H132714   3.798   1.294  14.453 -0.5624  0.4158 -0.6706
 3741TIP3    H232715   3.658   1.313  14.399 -0.9939 -0.2093  0.2005
 3742TIP3   OH232716   1.028   3.739  14.093  0.2797 -0.2184  0.3030
 3742TIP3    H132717   1.027   3.803  14.023  0.0326 -0.0581  0.4537
 3742TIP3    H232718   1.104   3.683  14.073  0.2032 -0.1828 -0.0956
 3743TIP3   OH232719   6.411   5.669   0.478 -0.3944  0.0611 -0.1763
 3743TIP3    H132720   6.353   5.744   0.494  0.7738  0.6336  1.6684
 3743TIP3    H232721   6.363   5.594   0.510  0.1902  0.6593  2.2847
 3744TIP3   OH232722   3.440   0.919  16.764  0.0002 -0.3712 -0.2663
 3744TIP3    H132723   3.402   0.986  16.707  0.7313  1.3555  1.1967
 3744TIP3    H232724   3.459   0.846  16.705 -1.7945  0.2734 -1.7242
 3745TIP3   OH232725   3.684   2.053  12.576 -0.0710 -0.0207  0.2980
 3745TIP3    H132726   3.655   1.963  12.591 -0.4190  0.4273  2.8107
 3745TIP3    H232727   3.687   2.062  12.481 -2.3986 -1.9236 -0.0490
 3746TIP3   OH232728   2.274   3.989  12.713 -0.1269  0.0374 -0.0053
 3746TIP3    H132729   2.278   3.894  12.700 -0.4341 -0.4065  2.6631
 3746TIP3    H232730   2.292   4.002  12.806 -2.2336  2.4136  0.1875
 3747TIP3   OH232731   1.762   0.356  16.917 -0.2256  0.4212 -0.1024
 3747TIP3    H132732   1.726   0.444  16.931 -1.0439  0.0639  0.0957
 3747TIP3    H232733   1.856   0.370  16.907 -0.1117  1.1650  1.6096
 3748TIP3   OH232734   4.330   1.142   2.373 -0.0917 -0.2750 -0.1862
 3748TIP3    H132735   4.334   1.057   2.329 -2.1651 -0.5565  0.0864
 3748TIP3    H232736   4.237   1.161   2.379  0.3291  2.6486 -1.4291
 3749TIP3   OH232737   0.382   3.029   4.407 -0.2863 -0.3567  0.2258
 3749TIP3    H132738   0.453   3.077   4.450  0.9931 -2.7609  0.9909
 3749TIP3    H232739   0.397   3.042   4.314  0.6249 -0.0651  0.3996
 3750TIP3   OH232740   6.610   1.161  14.350  0.4660  0.3592 -0.0963
 3750TIP3    H132741   6.644   1.248  14.370 -0.1894  0.9653 -1.5023
 3750TIP3    H232742   6.599   1.120  14.435  1.1982  1.4833  0.5730
 3751TIP3   OH232743   5.356   1.174   0.604 -0.0610 -0.2075  0.1112
 3751TIP3    H132744   5.416   1.121   0.552  2.3267  0.8776  1.5760
 3751TIP3    H232745   5.368   1.143   0.694 -0.8370  0.8173  0.5922
 3752TIP3   OH232746   6.165   2.421   3.747 -0.0544 -0.3252  0.0551
 3752TIP3    H132747   6.240   2.464   3.788  0.0233 -0.5544  0.1526
 3752TIP3    H232748   6.200   2.337   3.716 -0.0986 -0.1345 -0.5200
 3753TIP3   OH232749   2.826   6.801  12.063 -0.1255 -0.7719  0.1394
 3753TIP3    H132750   2.844   6.768  11.975  1.6916 -0.4572  0.3383
 3753TIP3    H232751   2.810   6.895  12.050  1.1909 -0.5097  0.2035
 3754TIP3   OH232752   1.733   6.580   5.749 -0.5130 -0.4803  0.3309
 3754TIP3    H132753   1.754   6.609   5.837 -0.3952 -0.8392  0.4226
 3754TIP3    H232754   1.816   6.580   5.702 -0.7399  0.8189 -0.1169
 3755TIP3   OH232755   5.793   0.488  13.988 -0.5537 -0.0166 -0.2360
 3755TIP3    H132756   5.709   0.499  14.032  1.4011  0.8482  3.8611
 3755TIP3    H232757   5.819   0.397  14.009  0.7228  0.6322  1.2513
 3756TIP3   OH232758   1.605   0.234   0.002  0.4489  0.0440  0.0422
 3756TIP3    H132759   1.674   0.235  -0.063  0.3279  2.1771 -0.1475
 3756TIP3    H232760   1.579   0.326   0.011  0.3971 -0.1483  3.0223
 3757TIP3   OH232761   4.684   6.598  16.123  0.0233  0.2380  0.0081
 3757TIP3    H132762   4.755   6.626  16.181 -0.9016 -2.4960  2.7391
 3757TIP3    H232763   4.708   6.508  16.098 -1.5012 -0.0076 -0.6452
 3758TIP3   OH232764   4.894   4.173   1.810 -0.1423  0.1525 -0.2286
 3758TIP3    H132765   4.840   4.113   1.758 -0.3060  1.4022 -1.5344
 3758TIP3    H232766   4.933   4.233   1.747 -0.9508  2.2160  1.0996
 3759TIP3   OH232767   1.672   6.417   6.195  0.3117 -0.0683  0.1176
 3759TIP3    H132768   1.678   6.324   6.174 -0.6236 -0.3147  0.8768
 3759TIP3    H232769   1.680   6.421   6.290  1.4071  0.7393  0.0113
 3760TIP3   OH232770   2.859   3.540   3.055 -0.0622  0.3563 -0.1010
 3760TIP3    H132771   2.778   3.539   3.004 -0.3187 -0.6954  0.2916
 3760TIP3    H232772   2.887   3.449   3.057  0.7905  0.6172  0.3066
 3761TIP3   OH232773   4.979   0.190  16.704 -0.0938  0.4224 -0.5402
 3761TIP3    H132774   4.927   0.245  16.646  0.4358  0.4783 -0.9770
 3761TIP3    H232775   4.920   0.168  16.776 -0.1849  1.9678 -0.0970
 3762TIP3   OH232776   0.399   6.208   3.815  0.2664  0.0311 -0.2918
 3762TIP3    H132777   0.431   6.189   3.903 -0.2684 -3.7245 -0.7345
 3762TIP3    H232778   0.469   6.178   3.758 -0.5992 -0.3626 -1.1667
 3763TIP3   OH232779   5.500   5.808   1.129 -0.5508 -0.2600  0.1979
 3763TIP3    H132780   5.505   5.712   1.137  0.5001 -0.2086  0.2600
 3763TIP3    H232781   5.408   5.828   1.148 -0.7648 -1.2454  0.2912
 3764TIP3   OH232782   3.214   4.134  14.390  0.3432 -0.4790  0.3713
 3764TIP3    H132783   3.141   4.190  14.415 -0.5923 -1.2755 -0.4713
 3764TIP3    H232784   3.283   4.194  14.362 -0.0028  0.2789  1.1064
 3765TIP3   OH232785   4.272   4.246  14.051  0.8602 -0.0431 -0.2621
 3765TIP3    H132786   4.230   4.327  14.024 -0.3928 -0.2642  0.9227
 3765TIP3    H232787   4.293   4.201  13.969 -1.6083 -0.1071 -0.9439
 3766TIP3   OH232788   0.510   2.463   1.670 -0.3511  0.6968 -0.3842
 3766TIP3    H132789   0.587   2.407   1.677 -0.7287  0.2207  0.1565
 3766TIP3    H232790   0.541   2.543   1.628  0.3693  0.3970 -0.4374
 3767TIP3   OH232791   4.674   6.252  14.400 -0.3000 -0.3677  1.0068
 3767TIP3    H132792   4.606   6.320  14.402 -0.8320 -0.8223 -0.5661
 3767TIP3    H232793   4.751   6.295  14.363 -0.1558 -0.2358  1.4480
 3768TIP3   OH232794   6.663   1.500  15.179 -0.5287 -0.1563  0.0079
 3768TIP3    H132795   6.658   1.421  15.232 -0.2562 -0.4451 -0.3952
 3768TIP3    H232796   6.697   1.471  15.094  1.2187  0.6373  0.3889
 3769TIP3   OH232797   2.467   5.042   1.786 -0.3507 -0.0979  0.0916
 3769TIP3    H132798   2.451   5.111   1.851 -0.4543  0.3145 -0.3600
 3769TIP3    H232799   2.382   4.998   1.776 -1.1083  1.6317 -1.7834
 3770TIP3   OH232800   3.672   5.423   4.331  0.0265 -0.0135  0.0041
 3770TIP3    H132801   3.691   5.357   4.264 -0.6166 -1.8518  1.5171
 3770TIP3    H232802   3.757   5.460   4.354  0.3385  0.0748 -1.2736
 3771TIP3   OH232803   3.958   4.238   5.236 -1.0036 -0.3470 -0.1544
 3771TIP3    H132804   3.987   4.226   5.146  1.5843  1.0946  0.3712
 3771TIP3    H232805   3.891   4.306   5.230  1.0825  1.8073 -0.8566
 3772TIP3   OH232806   2.705   6.013   3.111  0.1322  0.5616 -0.0223
 3772TIP3    H132807   2.800   5.997   3.113 -0.1036 -1.2019 -0.7509
 3772TIP3    H232808   2.679   6.017   3.202  0.8514  0.5905  0.1892
 3773TIP3   OH232809   2.977   1.010  11.591 -0.0121 -0.2565  0.3504
 3773TIP3    H132810   2.957   1.032  11.682 -0.1276 -1.2852  0.5883
 3773TIP3    H232811   2.968   1.093  11.544 -2.5676 -0.1626  0.8240
 3774TIP3   OH232812   6.769   3.496  14.701 -0.3131 -0.3369  0.0616
 3774TIP3    H132813   6.695   3.552  14.677 -1.7755 -2.6413 -1.0904
 3774TIP3    H232814   6.745   3.460  14.786 -0.5267 -1.0714 -0.3036
 3775TIP3   OH232815   0.654   2.854  14.150  0.0761 -0.0838 -0.5058
 3775TIP3    H132816   0.597   2.868  14.226 -0.4635  1.6524 -1.1814
 3775TIP3    H232817   0.720   2.924  14.156  1.4730 -1.3543 -0.3817
 3776TIP3   OH232818   5.274   2.430  15.210 -0.5337 -0.9883 -0.2776
 3776TIP3    H132819   5.289   2.406  15.119  0.7011 -1.6595  0.0756
 3776TIP3    H232820   5.305   2.354  15.260  0.5791  0.1108  0.7653
 3777TIP3   OH232821   3.947   6.589  14.929 -0.5405 -0.0140 -0.1890
 3777TIP3    H132822   4.014   6.650  14.961  0.0596 -1.1855  0.8712
 3777TIP3    H232823   3.936   6.613  14.836  0.6970  0.7747 -0.1620
 3778TIP3   OH232824   0.010   4.662  13.798  0.1081 -0.2328 -0.1747
 3778TIP3    H132825  -0.039   4.690  13.721 -0.4187  1.0057  0.5759
 3778TIP3    H232826   0.093   4.630  13.764  0.5419  1.8034 -1.1634
 3779TIP3   OH232827   1.471   5.712   5.253  0.2029 -0.2971 -0.3714
 3779TIP3    H132828   1.483   5.794   5.301  1.7739 -0.9410  0.4295
 3779TIP3    H232829   1.548   5.660   5.276 -1.3007 -2.4603  0.0818
 3780TIP3   OH232830   5.354   4.878   4.716  0.3579  0.8770 -0.2570
 3780TIP3    H132831   5.333   4.921   4.799 -0.7226  1.5938 -0.8730
 3780TIP3    H232832   5.308   4.930   4.650  0.5748 -0.1219 -1.2284
 3781TIP3   OH232833   4.196   5.712   5.785  0.5411  0.3353  0.2047
 3781TIP3    H132834   4.223   5.738   5.697 -1.9489  0.6321 -0.5404
 3781TIP3    H232835   4.205   5.616   5.785 -0.7349  0.1803 -0.9111
 3782TIP3   OH232836   0.700   4.332  16.755 -0.6361  0.0140  0.2191
 3782TIP3    H132837   0.629   4.385  16.718  0.4550  1.7818  0.5731
 3782TIP3    H232838   0.687   4.245  16.716 -1.1992  1.0555 -2.1166
 3783TIP3   OH232839   1.762   2.167   6.319  0.3866  1.0437  0.3225
 3783TIP3    H132840   1.796   2.226   6.252 -0.2002  0.7055 -0.2979
 3783TIP3    H232841   1.707   2.223   6.374  0.8888  1.3300  0.5308
 3784TIP3   OH232842   4.024   0.684   1.858 -0.8085  0.0515  0.4145
 3784TIP3    H132843   3.972   0.721   1.929 -1.0474  0.4089  0.0544
 3784TIP3    H232844   4.017   0.747   1.787  0.2350  0.1710  0.4091
 3785TIP3   OH232845   2.491   5.924   5.127  0.6384  0.5010 -0.1204
 3785TIP3    H132846   2.402   5.952   5.106  0.2068  0.3510  1.4027
 3785TIP3    H232847   2.534   6.003   5.157  0.0381  0.0204  2.1843
 3786TIP3   OH232848   4.107   6.592   3.888 -0.1078  0.3784 -0.0364
 3786TIP3    H132849   4.080   6.656   3.823  0.4693  1.1435  0.4495
 3786TIP3    H232850   4.027   6.571   3.937 -0.9288 -1.5169 -2.0375
 3787TIP3   OH232851   6.077   5.161   3.905 -1.0834 -0.5910 -0.2352
 3787TIP3    H132852   6.139   5.213   3.957 -2.0066 -0.5777  0.8793
 3787TIP3    H232853   6.019   5.226   3.866 -1.6008 -0.7240  0.3138
 3788TIP3   OH232854   3.294   3.883  11.294  0.5905 -0.1162 -0.0384
 3788TIP3    H132855   3.328   3.879  11.383 -1.5070 -1.0241  0.7880
 3788TIP3    H232856   3.370   3.866  11.238  1.7095 -0.8679  1.6364
 3789TIP3   OH232857   3.147   3.490  14.643 -0.0729 -0.4217  0.1866
 3789TIP3    H132858   3.157   3.564  14.703  0.9611  0.2047 -0.7220
 3789TIP3    H232859   3.105   3.528  14.565  0.2068 -0.8559 -0.1787
 3790TIP3   OH232860   6.311   4.059  15.011 -0.5267 -0.2015 -0.1717
 3790TIP3    H132861   6.236   4.109  15.045 -0.8694  0.7441 -2.1528
 3790TIP3    H232862   6.317   4.086  14.920  1.5481 -1.1386 -0.3496
 3791TIP3   OH232863   3.576   6.225   2.221 -0.3711  0.0844  0.4718
 3791TIP3    H132864   3.511   6.178   2.273  1.1023 -0.6529  1.7140
 3791TIP3    H232865   3.528   6.251   2.142 -2.8423  1.6275  2.3004
 3792TIP3   OH232866   3.757   2.871  11.811  0.1318 -0.1200  0.0290
 3792TIP3    H132867   3.824   2.869  11.743  1.8720  2.2790  1.5330
 3792TIP3    H232868   3.801   2.836  11.889 -1.0177 -0.4121  0.5740
 3793TIP3   OH232869   2.140   3.398  13.188 -0.3374  0.0870 -0.7667
 3793TIP3    H132870   2.141   3.442  13.103 -1.1519  0.3711 -0.6366
 3793TIP3    H232871   2.210   3.441  13.238 -0.3382  0.4184 -1.0445
 3794TIP3   OH232872   6.096   1.473   1.352  0.2536 -0.3350 -0.3030
 3794TIP3    H132873   6.067   1.556   1.391  0.1678 -0.2409 -0.5701
 3794TIP3    H232874   6.024   1.413   1.368  1.6008 -1.3455  2.9563
 3795TIP3   OH232875   0.661   1.095   4.839  0.4714 -0.5333 -0.0710
 3795TIP3    H132876   0.581   1.108   4.889 -0.0149  0.6543 -1.1200
 3795TIP3    H232877   0.641   1.128   4.751  0.7757 -3.9893 -1.6029
 3796TIP3   OH232878   5.287   2.056  14.422  0.4979  0.4179  0.1191
 3796TIP3    H132879   5.365   2.089  14.467  1.1955 -0.0221 -0.7277
 3796TIP3    H232880   5.230   2.132  14.414  0.2779  0.4637  1.8802
 3797TIP3   OH232881   5.777   5.229  15.563 -0.8073 -0.6690  0.0221
 3797TIP3    H132882   5.771   5.147  15.514  0.2578 -1.5049  1.2342
 3797TIP3    H232883   5.868   5.233  15.594 -0.0013  2.3356 -2.2751
 3798TIP3   OH232884   3.721   1.579  13.847  0.2469 -0.3912 -0.5452
 3798TIP3    H132885   3.656   1.541  13.787 -0.5546  0.0762  0.0079
 3798TIP3    H232886   3.799   1.591  13.793 -0.2477 -0.6144 -1.3293
 3799TIP3   OH232887   5.574   3.895   1.816  0.0722  0.1792 -0.1275
 3799TIP3    H132888   5.592   3.911   1.724 -1.8008 -0.2743 -0.6228
 3799TIP3    H232889   5.659   3.900   1.859  0.5955  4.5617 -1.1993
 3800TIP3   OH232890   4.214   3.704  15.100 -0.0581 -0.2186  0.3440
 3800TIP3    H132891   4.274   3.761  15.150  0.2362 -2.9495  3.4770
 3800TIP3    H232892   4.272   3.653  15.044  0.0126  0.3311 -0.0934
 3801TIP3   OH232893   2.163   4.878  14.801 -0.3461  0.0319  0.7594
 3801TIP3    H132894   2.157   4.782  14.796 -1.2984  0.1610 -1.7118
 3801TIP3    H232895   2.248   4.899  14.763 -1.0842  0.2543 -0.8206
 3802TIP3   OH232896   0.813   5.002  13.729  0.5035 -0.2145  0.0876
 3802TIP3    H132897   0.898   4.958  13.724  0.5642 -0.1068  0.1514
 3802TIP3    H232898   0.831   5.081  13.781  0.4945  0.1115 -0.3899
 3803TIP3   OH232899   4.340   5.081  13.799 -0.2314  0.1293 -0.0078
 3803TIP3    H132900   4.344   5.176  13.786  0.8062  0.4422  2.0722
 3803TIP3    H232901   4.258   5.067  13.847  0.3013  0.1867  0.9422
 3804TIP3   OH232902   5.475   1.088   1.716  0.0834  0.0276 -0.5355
 3804TIP3    H132903   5.510   1.008   1.677  1.1092 -0.9815  2.2413
 3804TIP3    H232904   5.443   1.061   1.802 -2.2959  2.0760 -0.6657
 3805TIP3   OH232905   3.869   5.832  16.254  0.1456 -0.3197 -0.1832
 3805TIP3    H132906   3.785   5.863  16.289  0.8085  2.6463 -0.9332
 3805TIP3    H232907   3.931   5.846  16.326  0.6152  1.0928 -0.8189
 3806TIP3   OH232908   6.615   2.746   5.068  0.2912 -0.0522 -0.3233
 3806TIP3    H132909   6.687   2.789   5.021  0.9850  1.0819  1.6570
 3806TIP3    H232910   6.542   2.747   5.006  1.4246  0.4693 -1.7161
 3807TIP3   OH232911   2.450   1.611   2.048  0.0713  0.5696  0.1637
 3807TIP3    H132912   2.480   1.613   1.957  1.5130  0.1295  0.6041
 3807TIP3    H232913   2.482   1.693   2.086  3.1544 -1.0184  1.3218
 3808TIP3   OH232914   3.068   0.866  12.588 -0.1615  0.2808 -0.1635
 3808TIP3    H132915   3.116   0.788  12.559  0.1982  0.6681 -0.6212
 3808TIP3    H232916   3.000   0.878  12.521 -0.2533  0.3241 -0.0617
 3809TIP3   OH232917   4.050   2.811  16.367 -0.6120 -0.6009  0.8468
 3809TIP3    H132918   3.978   2.769  16.414 -1.5381 -0.1000 -0.1051
 3809TIP3    H232919   4.008   2.862  16.298  0.6026  0.3381  0.7627
 3810TIP3   OH232920   4.262   0.543   1.788  0.2094  0.4954  0.2442
 3810TIP3    H132921   4.308   0.552   1.871 -1.6487  2.3640  1.1727
 3810TIP3    H232922   4.191   0.607   1.793 -1.4669 -1.0469 -1.7702
 3811TIP3   OH232923   2.038   2.412   3.381  0.3315  0.0681 -0.2618
 3811TIP3    H132924   1.972   2.454   3.326  1.1209  2.5722  0.5762
 3811TIP3    H232925   2.106   2.383   3.320 -0.0420  0.3989 -0.8406
 3812TIP3   OH232926   2.237   6.849  14.033 -0.3866  0.1780  0.5491
 3812TIP3    H132927   2.214   6.783  14.099 -3.6136  0.1878 -0.3764
 3812TIP3    H232928   2.250   6.799  13.953 -2.2671  0.5159 -0.0244
 3813TIP3   OH232929   2.427   1.121  12.204 -0.4474 -0.6645 -0.0937
 3813TIP3    H132930   2.470   1.037  12.216 -2.9036 -2.0379 -0.2361
 3813TIP3    H232931   2.425   1.134  12.109  0.2582 -0.2499 -0.0546
 3814TIP3   OH232932   6.660   3.636   4.358  0.3218 -0.2616  0.0386
 3814TIP3    H132933   6.655   3.721   4.401 -0.9576 -0.1292 -0.3230
 3814TIP3    H232934   6.621   3.575   4.421  2.4627 -0.8416  0.8614
 3815TIP3   OH232935   0.329   3.602  15.839 -0.0473 -0.3754 -0.2506
 3815TIP3    H132936   0.257   3.665  15.842 -0.3002 -0.6271 -0.9749
 3815TIP3    H232937   0.404   3.652  15.807  0.2157 -0.0153  0.8828
 3816TIP3   OH232938   1.278   1.554  15.249  0.7157 -0.3006  0.2302
 3816TIP3    H132939   1.300   1.515  15.333  0.2400 -2.1168 -0.4343
 3816TIP3    H232940   1.219   1.491  15.208  0.6162  0.7245 -1.2945
 3817TIP3   OH232941   3.287   3.071   6.343 -0.7956  0.1862  0.6948
 3817TIP3    H132942   3.254   2.981   6.340  1.0050 -0.5018  0.3602
 3817TIP3    H232943   3.364   3.066   6.400 -0.3243  1.4017  0.1863
 3818TIP3   OH232944   3.425   0.605   1.353  0.3387  0.5895  0.3324
 3818TIP3    H132945   3.514   0.626   1.325  0.8363 -0.2121  1.2257
 3818TIP3    H232946   3.384   0.566   1.276  0.9653  0.3936  0.0900
 3819TIP3   OH232947   0.264   4.084   5.366  0.4010  0.7259 -0.1361
 3819TIP3    H132948   0.340   4.070   5.423 -0.2719 -1.3921  0.3588
 3819TIP3    H232949   0.300   4.095   5.279  1.3107 -0.0560  0.1240
 3820TIP3   OH232950   5.426   2.797  11.922 -0.1545 -0.1700  0.2643
 3820TIP3    H132951   5.500   2.841  11.965  0.5533  0.7917 -1.7538
 3820TIP3    H232952   5.444   2.809  11.828 -1.9610 -1.5103 -0.2971
 3821TIP3   OH232953   6.218   1.751   0.707 -0.3950 -0.0755 -0.1114
 3821TIP3    H132954   6.238   1.669   0.752 -2.1912 -0.6716 -0.3095
 3821TIP3    H232955   6.219   1.818   0.777 -0.5699 -0.5578  0.3613
 3822TIP3   OH232956   3.359   6.102   4.792  0.4428  0.5327 -0.5479
 3822TIP3    H132957   3.299   6.166   4.753  0.1302 -0.0598 -1.0614
 3822TIP3    H232958   3.303   6.049   4.849  0.6045  0.3830 -0.5304
 3823TIP3   OH232959   6.375   0.265  13.049  0.1931  0.9628 -0.3041
 3823TIP3    H132960   6.442   0.263  12.980  0.5109 -1.3143 -0.0266
 3823TIP3    H232961   6.408   0.329  13.112  1.8208  0.3517 -0.4840
 3824TIP3   OH232962   4.094   2.869   6.132  0.1410  0.4363 -0.1932
 3824TIP3    H132963   4.182   2.905   6.123 -0.2122  1.0225 -1.6460
 3824TIP3    H232964   4.041   2.943   6.161 -0.0446  0.3537 -0.3142
 3825TIP3   OH232965   3.974   0.803  15.925  0.2084  0.0369  0.0531
 3825TIP3    H132966   3.928   0.852  15.993 -1.4338 -0.3581 -0.7141
 3825TIP3    H232967   3.986   0.866  15.854 -0.3696 -0.2114 -0.2699
 3826TIP3   OH232968   0.534   4.350   2.347 -0.4929  0.1190  0.4827
 3826TIP3    H132969   0.505   4.406   2.276 -0.0334  0.8711  0.8633
 3826TIP3    H232970   0.600   4.403   2.393  0.4317 -0.9779  0.4715
 3827TIP3   OH232971   6.336   2.966   3.285  0.6015  0.0105 -0.2503
 3827TIP3    H132972   6.355   3.060   3.286 -1.8628  0.5707  0.7742
 3827TIP3    H232973   6.323   2.944   3.377 -1.6067 -0.6728 -0.6849
 3828TIP3   OH232974   5.258   0.986   3.386 -0.6443 -0.1080  0.4404
 3828TIP3    H132975   5.169   1.007   3.356 -0.2487  0.0940 -0.6065
 3828TIP3    H232976   5.312   1.058   3.354  0.3501 -1.5180 -1.2285
 3829TIP3   OH232977   4.927   5.520   1.445  0.3258  0.3581  0.2078
 3829TIP3    H132978   4.889   5.437   1.472 -0.3945  0.5597 -0.1580
 3829TIP3    H232979   4.893   5.534   1.356  0.0224  1.2859  0.4578
 3830TIP3   OH232980   2.403   0.849   6.125 -0.8880 -0.6083 -0.2934
 3830TIP3    H132981   2.470   0.881   6.064 -0.3393  0.3358  0.7797
 3830TIP3    H232982   2.321   0.862   6.078 -0.3826 -1.2504 -1.4043
 3831TIP3   OH232983   1.946   6.267  11.857 -0.2871 -0.7541 -0.5035
 3831TIP3    H132984   1.901   6.218  11.926  0.2470  0.3408  0.6786
 3831TIP3    H232985   1.992   6.336  11.904  2.1225 -1.4361 -1.6955
 3832TIP3   OH232986   6.698   1.543  11.810 -0.2230 -0.3258  0.6058
 3832TIP3    H132987   6.636   1.591  11.756 -0.2367  0.6330  1.4416
 3832TIP3    H232988   6.780   1.544  11.761 -0.2306  0.5482  0.6020
 3833TIP3   OH232989   4.615   5.216  10.443 -0.0164 -0.0793 -0.2854
 3833TIP3    H132990   4.594   5.293  10.496 -0.6446  0.8999 -1.8906
 3833TIP3    H232991   4.530   5.184  10.412  0.2811 -1.1097 -0.0715
 3834TIP3   OH232992   0.140   5.946  12.134 -0.0556  0.2931 -0.3690
 3834TIP3    H132993   0.150   5.857  12.101 -0.0277  0.1939 -0.0980
 3834TIP3    H232994   0.120   5.935  12.227  0.6843  0.5932 -0.1721
 3835TIP3   OH232995   0.768   3.116  16.434  0.4036 -0.1074  0.4694
 3835TIP3    H132996   0.748   3.210  16.423  0.1233  0.0029  1.8257
 3835TIP3    H232997   0.710   3.073  16.372 -1.0380  0.5005  1.3368
 3836TIP3   OH232998   4.388   5.220   1.001  0.0403 -0.0165 -0.2907
 3836TIP3    H132999   4.464   5.247   1.052  0.3785 -0.3788 -0.6004
 3836TIP3    H233000   4.368   5.294   0.944  0.3054 -0.0131 -0.3766
 3837TIP3   OH233001   6.572   3.052   4.308  0.5054  0.7916 -0.4230
 3837TIP3    H133002   6.606   2.963   4.305  1.1590  0.9587  1.0659
 3837TIP3    H233003   6.582   3.084   4.218 -0.9825 -1.0388 -1.3007
 3838TIP3   OH233004   4.230   4.001   2.925  0.1736  0.0432  0.3111
 3838TIP3    H133005   4.139   4.022   2.904  0.0501 -0.8768 -0.1699
 3838TIP3    H233006   4.281   4.072   2.887 -0.4109  1.2223  1.6614
 3839TIP3   OH233007   3.891   5.080  17.102 -0.1017  0.2376  0.2188
 3839TIP3    H133008   3.935   5.128  17.033 -1.4423  0.9723 -0.1659
 3839TIP3    H233009   3.822   5.031  17.057  0.0292 -0.5573  0.8496
 3840TIP3   OH233010   0.059   1.103   6.636  0.4346  0.2672  0.2907
 3840TIP3    H133011   0.011   1.038   6.687 -2.8268  2.4562  0.3318
 3840TIP3    H233012   0.044   1.077   6.545 -0.2956  0.5697  0.3198
 3841TIP3   OH233013   0.998   2.724   3.359 -0.2021  0.2438  0.5959
 3841TIP3    H133014   1.001   2.734   3.454  0.7898 -2.8453  1.0255
 3841TIP3    H233015   0.992   2.629   3.345  0.0180  0.5599 -2.4409
 3842TIP3   OH233016   6.127   4.066  11.201 -0.2403 -0.0169  0.1462
 3842TIP3    H133017   6.129   3.973  11.225  0.2093  0.2387  1.1358
 3842TIP3    H233018   6.219   4.090  11.188 -0.3307  0.3634  0.1908
 3843TIP3   OH233019   0.010   2.748  14.608 -0.1210 -0.1582 -0.3926
 3843TIP3    H133020  -0.049   2.676  14.585  2.1804 -2.2502 -0.1560
 3843TIP3    H233021   0.097   2.716  14.584  1.2170  1.7270  1.6221
 3844TIP3   OH233022   0.289   6.042   0.116  0.4984  0.1826  0.0313
 3844TIP3    H133023   0.321   5.977   0.054  0.6265 -0.4924  0.7907
 3844TIP3    H233024   0.193   6.036   0.110  0.4926  0.9912 -0.9828
 3845TIP3   OH233025   3.644   6.616   2.557  0.3493  0.0198 -0.7493
 3845TIP3    H133026   3.562   6.646   2.517 -0.1065  2.3152  1.5734
 3845TIP3    H233027   3.654   6.526   2.528 -3.0020 -0.3370 -1.1873
 3846TIP3   OH233028   2.546   1.279  15.110  0.0213  0.2339  0.7726
 3846TIP3    H133029   2.504   1.351  15.157  1.5079  0.7638  1.3303
 3846TIP3    H233030   2.497   1.274  15.028 -1.2326  0.7083  1.4529
 3847TIP3   OH233031   3.655   1.633  15.700 -0.2021  0.0107  0.2417
 3847TIP3    H133032   3.672   1.562  15.638 -1.3039 -0.9067  0.9475
 3847TIP3    H233033   3.707   1.707  15.667  0.1703 -0.8068 -1.0789
 3848TIP3   OH233034   4.777   3.592  13.151 -0.0785 -0.6273  0.2077
 3848TIP3    H133035   4.868   3.578  13.176  0.3242  1.1146 -0.1815
 3848TIP3    H233036   4.760   3.684  13.171 -1.5738 -0.7707 -0.2740
 3849TIP3   OH233037   3.788   5.889   5.029 -0.0798 -0.3127 -0.2544
 3849TIP3    H133038   3.840   5.947   4.974  2.0463 -0.6078  1.2979
 3849TIP3    H233039   3.841   5.879   5.109 -1.9212 -1.7560  0.8556
 3850TIP3   OH233040   3.271   2.298   4.511 -0.1647  0.0683 -0.2506
 3850TIP3    H133041   3.315   2.307   4.427 -0.6480  1.8831 -0.3584
 3850TIP3    H233042   3.330   2.340   4.574 -1.7217  2.8385 -0.4467
 3851TIP3   OH233043   2.035   3.832  11.757 -0.8303  0.1332  0.1590
 3851TIP3    H133044   2.049   3.743  11.787 -1.3891 -0.2959 -0.8145
 3851TIP3    H233045   1.973   3.870  11.819 -0.6805 -0.1856  0.5062
 3852TIP3   OH233046   3.628   5.483  11.363 -0.6038 -0.2466  0.2466
 3852TIP3    H133047   3.670   5.426  11.298 -0.7241 -1.0393  0.8532
 3852TIP3    H233048   3.553   5.520  11.317 -0.7254 -0.8543 -0.0479
 3853TIP3   OH233049   5.154   3.858   3.152 -0.6033  0.1811  0.5133
 3853TIP3    H133050   5.196   3.802   3.217  1.3774  1.3615  0.3423
 3853TIP3    H233051   5.087   3.802   3.112  1.0162 -1.9707  0.5904
 3854TIP3   OH233052   1.933   2.288   6.105  0.0612 -0.0335  0.0359
 3854TIP3    H133053   1.898   2.260   6.020  1.3468 -1.2025 -0.1506
 3854TIP3    H233054   1.997   2.220   6.128  1.4906  1.4902  0.7913
 3855TIP3   OH233055   6.263   2.138   4.556  0.0188  0.3330 -0.1453
 3855TIP3    H133056   6.212   2.064   4.524 -2.9173  2.7788 -1.6119
 3855TIP3    H233057   6.218   2.167   4.635  1.5179  0.2176  0.7920
 3856TIP3   OH233058   4.769   6.716  13.001 -0.1097 -0.1687  0.0664
 3856TIP3    H133059   4.769   6.748  13.091  2.9114 -0.1577  0.1627
 3856TIP3    H233060   4.756   6.622  13.009 -0.4298 -0.0896  0.4677
 3857TIP3   OH233061   6.683   3.195   0.367  0.4323  0.1822 -0.0818
 3857TIP3    H133062   6.597   3.177   0.327  0.0805  2.3036 -0.3909
 3857TIP3    H233063   6.717   3.270   0.317  2.4544 -0.5741  0.0852
 3858TIP3   OH233064   0.738   1.924  11.641 -0.4759  0.4130 -0.7880
 3858TIP3    H133065   0.719   2.014  11.668 -1.0942 -0.4900  2.0505
 3858TIP3    H233066   0.657   1.876  11.656  0.2961 -0.9369 -0.7807
 3859TIP3   OH233067   4.426   5.795  13.815  0.3281  0.8298 -0.4576
 3859TIP3    H133068   4.353   5.847  13.780 -0.6070 -0.7776 -1.0187
 3859TIP3    H233069   4.410   5.707  13.781  1.6694  0.0975  0.7364
 3860TIP3   OH233070   0.886   0.711  15.593 -0.1726 -0.0484  0.0080
 3860TIP3    H133071   0.899   0.777  15.525  1.2367 -1.1261 -0.8273
 3860TIP3    H233072   0.798   0.677  15.576  0.2487 -0.4735 -1.4649
 3861TIP3   OH233073   6.624   2.542  14.053 -0.0968  0.2710  0.2551
 3861TIP3    H133074   6.662   2.488  13.984  0.0787 -0.7119  1.0997
 3861TIP3    H233075   6.696   2.556  14.115 -0.1571  1.4358  0.0874
 3862TIP3   OH233076   4.127   2.020   4.017 -0.2257  0.5386 -0.3388
 3862TIP3    H133077   4.220   2.034   4.036 -0.2531  1.0572 -0.5641
 3862TIP3    H233078   4.124   2.008   3.922 -0.4232  0.8361 -0.3725
 3863TIP3   OH233079   1.946   2.243  13.432  0.4635  0.0627  0.7763
 3863TIP3    H133080   2.002   2.167  13.418  0.5676  0.1412  0.7624
 3863TIP3    H233081   1.890   2.219  13.506  0.5693  0.0131  0.8409
 3864TIP3   OH233082   2.607   1.758   0.035 -0.0232 -0.4414  0.7333
 3864TIP3    H133083   2.671   1.691   0.058  0.3857  0.7151  3.2824
 3864TIP3    H233084   2.660   1.838   0.025 -0.7963  0.0323  0.3564
 3865TIP3   OH233085   3.338   5.462  14.270 -0.0667 -0.4993 -0.6610
 3865TIP3    H133086   3.371   5.389  14.218 -0.3536 -1.0760 -0.0545
 3865TIP3    H233087   3.415   5.512  14.294  0.2453 -1.1928 -0.2061
 3866TIP3   OH233088   4.585   0.993  16.583  0.4601 -0.0874 -0.2983
 3866TIP3    H133089   4.520   1.017  16.650  0.2132 -0.8639 -0.2514
 3866TIP3    H233090   4.557   1.039  16.504 -1.8007 -2.5332 -1.0718
 3867TIP3   OH233091   2.526   0.732  11.164  0.3828  0.1098  0.6585
 3867TIP3    H133092   2.513   0.647  11.121  1.3829  1.0148 -1.5453
 3867TIP3    H233093   2.479   0.794  11.109  0.8513  1.1898  1.4535
 3868TIP3   OH233094   4.899   2.197   0.162  0.0570 -0.0578  0.3867
 3868TIP3    H133095   4.975   2.255   0.162  0.9995 -1.2576  0.1037
 3868TIP3    H233096   4.845   2.229   0.234  0.3097  1.4471 -0.0447
 3869TIP3   OH233097   5.703   3.751  11.928  0.5196  0.2190  0.2939
 3869TIP3    H133098   5.633   3.802  11.887  0.7685  0.9709  0.7909
 3869TIP3    H233099   5.780   3.768  11.873  0.4543 -0.1541  0.0807
 3870TIP3   OH233100   2.721   1.792  16.339  1.0212 -0.0408  0.9753
 3870TIP3    H133101   2.789   1.844  16.295  0.9684 -1.7792 -1.3504
 3870TIP3    H233102   2.767   1.716  16.374  0.3350 -1.4128 -0.9225
 3871TIP3   OH233103   1.870   0.966  13.194  0.0377  0.6615 -0.0956
 3871TIP3    H133104   1.960   0.972  13.163 -0.0255  0.8604 -0.2424
 3871TIP3    H233105   1.876   0.979  13.288  0.1812  0.5107 -0.0835
 3872TIP3   OH233106   6.354   1.777  12.267  0.0972 -0.2674 -0.4703
 3872TIP3    H133107   6.313   1.744  12.347 -1.7180 -0.8136 -1.5771
 3872TIP3    H233108   6.316   1.864  12.255  0.3503 -0.1962 -0.7718
 3873TIP3   OH233109   0.119   3.842  14.548 -0.3952  0.5417 -0.2761
 3873TIP3    H133110   0.152   3.763  14.591  0.9571 -0.9828 -3.6783
 3873TIP3    H233111   0.196   3.899  14.541 -0.2993  0.2962 -1.4906
 3874TIP3   OH233112   1.702   6.579   2.034  0.1999 -0.2707 -0.0240
 3874TIP3    H133113   1.647   6.513   2.075  0.8970 -0.0706  1.3064
 3874TIP3    H233114   1.790   6.562   2.070  0.8638 -0.1231 -1.5129
 3875TIP3   OH233115   1.270   3.794  12.157 -0.3945 -0.5874 -0.2465
 3875TIP3    H133116   1.349   3.824  12.112 -1.1714 -0.2835 -1.4564
 3875TIP3    H233117   1.207   3.865  12.144 -0.3372  0.0027  2.2750
 3876TIP3   OH233118   4.569   0.528   2.596  0.1765 -0.0448  0.2915
 3876TIP3    H133119   4.614   0.474   2.661 -0.8283 -0.9891  0.2407
 3876TIP3    H233120   4.533   0.465   2.534 -0.3742  0.7368 -0.2057
 3877TIP3   OH233121   2.195   6.731  14.769 -0.1410 -0.1189  0.5459
 3877TIP3    H133122   2.107   6.693  14.773 -0.3434  0.3126  0.2512
 3877TIP3    H233123   2.181   6.821  14.740  0.4261 -0.1502  0.1663
 3878TIP3   OH233124   5.590   5.459  12.232 -0.0356 -0.5446  0.1800
 3878TIP3    H133125   5.638   5.501  12.160 -0.8088  0.3617  0.1735
 3878TIP3    H233126   5.624   5.370  12.235  0.3013 -0.4718 -1.0513
 3879TIP3   OH233127   0.311   2.635  16.153 -0.2279  0.0292  0.0796
 3879TIP3    H133128   0.245   2.576  16.118 -0.2307 -1.3344  2.1717
 3879TIP3    H233129   0.318   2.705  16.088 -1.6219 -1.2679 -1.5681
 3880TIP3   OH233130   4.491   1.231   1.984  0.2679  0.1380  0.1656
 3880TIP3    H133131   4.553   1.194   2.047  0.1128  1.1431  0.9249
 3880TIP3    H233132   4.536   1.307   1.947 -0.7439  1.2853  1.2205
 3881TIP3   OH233133   2.835   3.444  13.473 -0.4680 -0.1241  0.8326
 3881TIP3    H133134   2.760   3.469  13.527 -1.5194 -1.6648  0.1525
 3881TIP3    H233135   2.863   3.360  13.509  0.4832  0.0932  0.6163
 3882TIP3   OH233136   5.248   6.773   6.295 -0.3222 -0.0784  0.4041
 3882TIP3    H133137   5.166   6.724   6.302 -1.2469  1.1408 -1.0741
 3882TIP3    H233138   5.287   6.742   6.214  2.1167 -2.5704  2.3574
 3883TIP3   OH233139   5.746   1.204  15.448  0.0205  0.4394  0.0045
 3883TIP3    H133140   5.776   1.113  15.454 -1.1076  0.0965  1.0567
 3883TIP3    H233141   5.823   1.257  15.471  0.5693 -0.2669 -0.1819
 3884TIP3   OH233142   3.690   6.580  10.970  0.0389 -0.4183  0.3284
 3884TIP3    H133143   3.754   6.635  10.923  1.7708 -0.8816  2.0286
 3884TIP3    H233144   3.615   6.638  10.983  0.9780  0.8822  0.2232
 3885TIP3   OH233145   0.071   3.854   3.831 -0.1416  0.1538  0.6869
 3885TIP3    H133146   0.075   3.808   3.915 -0.4058 -0.1013  0.5593
 3885TIP3    H233147   0.001   3.810   3.783  1.4121 -1.1632 -0.5109
 3886TIP3   OH233148   2.638   3.059  12.169 -0.2504  0.1008 -0.8300
 3886TIP3    H133149   2.598   3.143  12.192 -0.8235 -0.5466  0.6508
 3886TIP3    H233150   2.723   3.061  12.213 -0.6891 -0.4997  0.0627
 3887TIP3   OH233151   0.805   2.382  13.913 -0.7781 -0.2849  0.4652
 3887TIP3    H133152   0.765   2.295  13.918  1.2032 -1.2465  0.5908
 3887TIP3    H233153   0.819   2.407  14.004 -1.5988  0.3107  0.4363
 3888TIP3   OH233154   0.301   3.070  15.555 -0.0567  0.3537 -0.0187
 3888TIP3    H133155   0.376   3.126  15.573 -0.3267  0.9811 -0.7633
 3888TIP3    H233156   0.311   3.046  15.463 -0.8122  0.5176 -0.1506
 3889TIP3   OH233157   4.377   1.939  15.994 -0.2471 -0.6342 -0.1633
 3889TIP3    H133158   4.292   1.970  16.026 -0.4239 -1.0609 -0.2107
 3889TIP3    H233159   4.369   1.844  15.996 -0.2960 -0.6726 -1.5812
 3890TIP3   OH233160   1.523   1.769  16.191  0.1010 -0.6379  0.1803
 3890TIP3    H133161   1.592   1.835  16.198 -1.0074  0.9831 -2.7745
 3890TIP3    H233162   1.563   1.699  16.139  0.4185 -1.0903  1.0141
 3891TIP3   OH233163   3.713   0.619  16.858 -0.1545 -0.6910  0.4054
 3891TIP3    H133164   3.742   0.565  16.785 -2.3052  0.8700 -1.7603
 3891TIP3    H233165   3.785   0.681  16.872 -0.0566 -0.4585 -1.0024
 3892TIP3   OH233166   1.187   2.768   1.895 -0.1121 -0.2749 -0.5453
 3892TIP3    H133167   1.233   2.776   1.978  0.3727 -1.7238 -0.6486
 3892TIP3    H233168   1.162   2.858   1.873  0.1961  0.1968  0.8976
 3893TIP3   OH233169   3.350   6.414  13.765 -0.0535  0.1343  0.2409
 3893TIP3    H133170   3.264   6.381  13.738  0.9249 -0.7368 -2.1031
 3893TIP3    H233171   3.393   6.338  13.805 -0.3803  0.5995  1.5213
 3894TIP3   OH233172   4.497   6.526  13.837  0.8034 -0.3789  0.0934
 3894TIP3    H133173   4.428   6.490  13.781  0.1398 -0.2737  0.8301
 3894TIP3    H233174   4.526   6.452  13.890 -0.7186  0.1615  1.7679
 3895TIP3   OH233175   6.100   6.751   4.837  0.1798 -0.0440 -0.1030
 3895TIP3    H133176   6.036   6.813   4.802 -0.1803 -0.4443 -0.1704
 3895TIP3    H233177   6.080   6.746   4.930 -0.1131 -0.4291 -0.1851
 3896TIP3   OH233178   3.640   1.100  14.156 -0.3679 -0.0763 -0.4303
 3896TIP3    H133179   3.603   1.027  14.205 -2.3921  0.1328 -1.5306
 3896TIP3    H233180   3.692   1.149  14.220 -1.5730 -0.7223  1.0906
 3897TIP3   OH233181   2.533   6.604  14.087  0.0023  1.0152  0.0111
 3897TIP3    H133182   2.597   6.664  14.050 -0.4973  0.4034 -1.9767
 3897TIP3    H233183   2.481   6.575  14.012 -1.0560 -0.3554  1.2058
 3898TIP3   OH233184   4.666   3.799  15.401  0.3629 -0.1717 -0.3541
 3898TIP3    H133185   4.691   3.707  15.395 -0.9650 -0.5166 -1.0487
 3898TIP3    H233186   4.574   3.800  15.376 -0.1260  1.1236  1.3221
 3899TIP3   OH233187   0.014   1.174  15.312  0.6508 -0.3652  0.0689
 3899TIP3    H133188  -0.081   1.184  15.324  0.3479 -1.5623 -1.0669
 3899TIP3    H233189   0.031   1.083  15.336  1.6367  0.0308  0.8990
 3900TIP3   OH233190   0.043   1.531   0.592 -0.3747 -0.6175 -0.2287
 3900TIP3    H133191   0.046   1.627   0.589  2.6528 -0.6298 -2.3541
 3900TIP3    H233192  -0.004   1.507   0.512 -0.7660 -0.9394  0.0924
 3901TIP3   OH233193   4.735   5.356  11.301  0.4438  0.2373  0.8347
 3901TIP3    H133194   4.708   5.382  11.213  1.1618  0.7468  0.7551
 3901TIP3    H233195   4.799   5.286  11.287 -1.7998 -1.9939  1.0579
 3902TIP3   OH233196   3.130   2.650   4.980  0.4068 -0.5619  0.6529
 3902TIP3    H133197   3.166   2.621   5.064  3.1132 -1.1335 -0.5907
 3902TIP3    H233198   3.071   2.579   4.953  1.0506 -1.3128  1.1779
 3903TIP3   OH233199   1.629   6.310   5.436 -0.4654 -0.0488 -0.1986
 3903TIP3    H133200   1.633   6.219   5.406  1.0440  0.3808 -1.4351
 3903TIP3    H233201   1.546   6.315   5.484 -0.1877 -2.2818  0.6733
 3904TIP3   OH233202   0.496   3.150  15.223  0.5753 -0.0686  0.0153
 3904TIP3    H133203   0.537   3.089  15.283 -0.6484 -0.5085  0.4437
 3904TIP3    H233204   0.429   3.194  15.275 -0.7289 -0.6757 -1.0557
 3905TIP3   OH233205   1.028   4.748  12.865  0.2414  0.2341  0.1376
 3905TIP3    H133206   1.022   4.769  12.958 -1.3740 -0.0077  0.1161
 3905TIP3    H233207   0.994   4.826  12.821 -0.3925 -0.2123 -0.1780
 3906TIP3   OH233208   5.834   4.493  12.621 -0.2963 -0.1358  0.0115
 3906TIP3    H133209   5.880   4.566  12.580 -0.7887  0.2946  0.2276
 3906TIP3    H233210   5.904   4.433  12.647  0.3739  1.5915  2.5128
 3907TIP3   OH233211   1.052   6.075   2.794 -0.6401 -0.0859 -0.1069
 3907TIP3    H133212   1.083   6.033   2.714  0.5719 -0.9139  0.7729
 3907TIP3    H233213   0.984   6.017   2.827 -0.6593 -0.0972 -0.1664
 3908TIP3   OH233214   6.706   4.034  13.599  0.2943 -0.2267  0.4983
 3908TIP3    H133215   6.753   4.060  13.679  0.4945  0.1987  0.2469
 3908TIP3    H233216   6.720   3.940  13.593  3.4914  0.2227 -1.0413
 3909TIP3   OH233217   3.722   0.914   6.232 -0.7389  0.0252 -0.5118
 3909TIP3    H133218   3.729   1.006   6.261  0.7889  0.0466 -0.8614
 3909TIP3    H233219   3.662   0.874   6.295 -1.6908  1.3256 -0.5410
 3910TIP3   OH233220   0.339   3.575  16.147  0.4373 -0.4092  0.1489
 3910TIP3    H133221   0.329   3.486  16.180  1.8389 -1.1317 -1.2677
 3910TIP3    H233222   0.319   3.569  16.054  2.2128  0.3894 -0.3199
 3911TIP3   OH233223   1.444   0.281  12.933  0.3478 -0.5221  0.0641
 3911TIP3    H133224   1.461   0.245  12.847 -1.2169  1.6285 -1.2424
 3911TIP3    H233225   1.359   0.245  12.958  1.1032 -1.6863  1.0796
 3912TIP3   OH233226   6.638   1.577   0.248 -0.5187  0.0983  0.0868
 3912TIP3    H133227   6.552   1.592   0.208 -0.8121  0.8583  0.9653
 3912TIP3    H233228   6.653   1.656   0.300  0.0715 -0.6605  1.0804
 3913TIP3   OH233229   3.648   0.992  14.488 -0.1042  0.1803 -0.2476
 3913TIP3    H133230   3.591   1.010  14.563 -0.1843 -0.2718 -0.1969
 3913TIP3    H233231   3.682   1.078  14.463  0.2011  0.2933  0.5252
 3914TIP3   OH233232   3.422   5.158  12.956 -0.1911  0.0399 -0.0158
 3914TIP3    H133233   3.413   5.237  13.010  0.3322  0.4783 -0.5537
 3914TIP3    H233234   3.398   5.086  13.015  0.1944  0.5198  0.7462
 3915TIP3   OH233235   6.609   6.494  16.276  0.1216  0.1607 -0.5819
 3915TIP3    H133236   6.586   6.414  16.322 -0.6464  0.0960 -1.0558
 3915TIP3    H233237   6.685   6.470  16.222 -0.6244 -0.4852 -1.3674
 3916TIP3   OH233238   1.602   0.169  10.934 -0.1888  0.1425 -0.1060
 3916TIP3    H133239   1.554   0.204  10.859  0.1101  0.4586 -0.1518
 3916TIP3    H233240   1.690   0.153  10.901 -0.6294 -1.8374 -0.4222
 3917TIP3   OH233241   1.849   5.777  13.111  0.6077 -0.5684 -0.0218
 3917TIP3    H133242   1.788   5.798  13.039  0.1277  4.4215  1.4612
 3917TIP3    H233243   1.792   5.754  13.184  0.5101  1.6177  0.6608
 3918TIP3   OH233244   5.581   1.344   2.185 -0.0834 -0.2760  0.2755
 3918TIP3    H133245   5.519   1.364   2.254  0.2029 -0.0666  0.4757
 3918TIP3    H233246   5.560   1.254   2.158  0.5720 -0.8020  1.4620
 3919TIP3   OH233247   2.632   6.062   2.091  0.0351 -0.3390 -0.1181
 3919TIP3    H133248   2.719   6.079   2.056 -0.8838  0.1530 -2.2998
 3919TIP3    H233249   2.636   5.972   2.123  1.6329  0.0492  0.8923
 3920TIP3   OH233250   4.570   4.027  12.066  0.2190 -0.4284  0.0448
 3920TIP3    H133251   4.651   4.007  12.111  0.2644 -0.7089 -0.1595
 3920TIP3    H233252   4.584   4.114  12.028 -0.5051  0.6710  2.1489
 3921TIP3   OH233253   5.488   2.541  13.122 -0.2235  0.2778 -0.0293
 3921TIP3    H133254   5.473   2.462  13.174  0.5811  0.3298  0.2938
 3921TIP3    H233255   5.496   2.611  13.187  1.3681  0.2543 -0.1604
 3922TIP3   OH233256   2.059   1.764  11.424  0.4602 -0.1221 -0.7526
 3922TIP3    H133257   2.039   1.717  11.505 -2.4409  0.4254 -1.0397
 3922TIP3    H233258   2.095   1.848  11.453 -2.1514  0.7825  0.1561
 3923TIP3   OH233259   5.106   5.806   6.339 -0.3803 -0.2253  0.6155
 3923TIP3    H133260   5.059   5.724   6.355 -1.9203  0.4441 -0.2713
 3923TIP3    H233261   5.108   5.850   6.423  1.1537 -1.4789  1.2882
 3924TIP3   OH233262   3.583   2.794  15.935 -0.2692 -0.2872  0.1329
 3924TIP3    H133263   3.635   2.801  15.855  0.0266  1.8493  0.4592
 3924TIP3    H233264   3.535   2.712  15.925  2.7280 -2.1327 -0.4328
 3925TIP3   OH233265   3.002   6.015   3.149  0.1161  0.0450 -0.2586
 3925TIP3    H133266   3.067   5.961   3.195 -1.3582 -2.0558 -0.4738
 3925TIP3    H233267   2.993   6.094   3.203  0.9825 -0.7790  1.1539
 3926TIP3   OH233268   0.850   5.238  14.934  0.2105 -0.6076  0.2920
 3926TIP3    H133269   0.801   5.168  14.977 -0.0713 -2.5873 -2.8981
 3926TIP3    H233270   0.938   5.232  14.970  0.0012 -2.1776  0.6020
 3927TIP3   OH233271   3.258   0.815   1.201 -0.3254 -0.1440 -0.3694
 3927TIP3    H133272   3.341   0.836   1.157  0.3671 -1.9319  0.0020
 3927TIP3    H233273   3.238   0.726   1.174 -1.8041  0.0200  0.0864
 3928TIP3   OH233274   3.726   0.951  11.674  0.0648  0.0296 -0.3440
 3928TIP3    H133275   3.713   1.030  11.622  0.0789  0.7915  0.7619
 3928TIP3    H233276   3.638   0.917  11.688  0.0789 -0.3028 -1.0429
 3929TIP3   OH233277   2.788   6.192  14.036 -0.6198  1.2815  0.7209
 3929TIP3    H133278   2.843   6.242  14.096  1.8957  0.1479 -0.5086
 3929TIP3    H233279   2.754   6.257  13.975  1.2923  1.7857  0.1190
 3930TIP3   OH233280   6.659   1.063  14.097 -0.1449  0.5744 -0.1757
 3930TIP3    H133281   6.603   1.109  14.035 -0.8530  0.5055  0.3962
 3930TIP3    H233282   6.650   1.112  14.179 -0.6348 -0.3601  0.3464
 3931TIP3   OH233283   3.088   0.507   0.185  1.2026  0.0483  0.1312
 3931TIP3    H133284   3.145   0.462   0.123  0.7502  0.0896 -0.3268
 3931TIP3    H233285   3.041   0.571   0.131  0.8257  0.1050  0.5228
 3932TIP3   OH233286   5.816   0.811   6.704  0.0263  0.0555  0.2134
 3932TIP3    H133287   5.730   0.773   6.725 -0.7949  0.5777 -1.9707
 3932TIP3    H233288   5.811   0.901   6.736 -0.3858  0.1930 -0.2287
 3933TIP3   OH233289   1.920   1.583  12.652 -0.3488  0.0465  0.0914
 3933TIP3    H133290   1.981   1.650  12.619 -0.4524  0.9527  1.6372
 3933TIP3    H233291   1.834   1.624  12.645 -0.4438 -0.0282  0.7588
 3934TIP3   OH233292   0.189   4.632  12.105  0.1967  0.5071 -0.1067
 3934TIP3    H133293   0.199   4.713  12.155 -0.8302  1.1424 -0.8920
 3934TIP3    H233294   0.243   4.569  12.152  0.5268  1.4823  0.8853
 3935TIP3   OH233295   5.464   6.144   3.325 -0.3247  1.0861 -0.6044
 3935TIP3    H133296   5.476   6.133   3.230  1.0534  1.7660 -0.5325
 3935TIP3    H233297   5.552   6.163   3.358 -0.5949 -0.2576  0.9849
 3936TIP3   OH233298   4.357   2.871  11.902 -0.0773 -0.2285 -0.1201
 3936TIP3    H133299   4.273   2.825  11.907 -0.9077  1.2271  0.1383
 3936TIP3    H233300   4.395   2.861  11.989 -0.4248 -0.1443  0.0459
 3937TIP3   OH233301   5.035   2.674  13.167 -0.4453 -0.3826 -0.3784
 3937TIP3    H133302   5.097   2.629  13.110  0.9600 -0.2747  1.0006
 3937TIP3    H233303   4.980   2.604  13.203 -0.4575 -0.5976 -0.8059
 3938TIP3   OH233304   5.041   0.527   3.965 -0.1887  0.1652 -0.5299
 3938TIP3    H133305   4.983   0.459   3.999 -0.2777  0.7616  0.5635
 3938TIP3    H233306   5.004   0.609   4.000  1.8886  0.4922  1.1361
 3939TIP3   OH233307   4.511   6.368   5.001  0.2555  0.4567 -0.2285
 3939TIP3    H133308   4.564   6.373   4.921  0.4523  2.7640 -0.0011
 3939TIP3    H233309   4.426   6.403   4.976 -0.3154 -0.6153  0.1275
 3940TIP3   OH233310   4.008   1.650  11.829 -0.3281  0.2411 -0.0388
 3940TIP3    H133311   4.020   1.742  11.855  0.6530  0.3618 -0.8879
 3940TIP3    H233312   4.094   1.622  11.799 -0.1343 -1.5433  1.9218
 3941TIP3   OH233313   4.406   0.121  11.996  0.0230  0.5990  0.2169
 3941TIP3    H133314   4.331   0.074  11.960  0.2261  1.2893 -1.2153
 3941TIP3    H233315   4.368   0.193  12.046 -0.3329  1.8211 -1.7072
 3942TIP3   OH233316   1.355   1.748   5.440  0.2746  0.3970 -0.1744
 3942TIP3    H133317   1.451   1.745   5.446  0.1782  0.1782  1.5721
 3942TIP3    H233318   1.324   1.716   5.525 -1.3714 -0.2497 -0.9722
 3943TIP3   OH233319   2.364   1.613   0.137 -0.0369  0.5603  0.0762
 3943TIP3    H133320   2.279   1.656   0.131  0.1446  0.9756  0.4507
 3943TIP3    H233321   2.421   1.663   0.079  0.4105  1.4192  1.2242
 3944TIP3   OH233322   3.506   5.572  15.184  0.0024  0.0122 -0.3744
 3944TIP3    H133323   3.575   5.507  15.172  0.5718  0.2586  1.4131
 3944TIP3    H233324   3.542   5.636  15.244 -2.1743 -0.4908  1.6053
 3945TIP3   OH233325   4.527   0.413  12.834 -0.1249 -0.2571 -0.4832
 3945TIP3    H133326   4.492   0.392  12.920  0.4521  0.2259 -0.1255
 3945TIP3    H233327   4.587   0.341  12.814  1.3137  0.6339  0.4349
 3946TIP3   OH233328   2.079   3.896  15.546 -0.6079 -0.5995  0.2815
 3946TIP3    H133329   2.129   3.901  15.627 -0.8796  0.5305  0.3836
 3946TIP3    H233330   2.144   3.911  15.477 -0.4855 -0.9642  0.3151
 3947TIP3   OH233331   4.512   4.943   1.008 -0.1296  0.5346 -0.1085
 3947TIP3    H133332   4.529   4.880   0.938 -2.0551  0.4583 -0.5586
 3947TIP3    H233333   4.454   5.008   0.968 -0.6270  0.9217  1.1918
 3948TIP3   OH233334   0.360   4.437  14.687 -0.1546  0.4077  0.1257
 3948TIP3    H133335   0.343   4.439  14.592 -0.8496  1.5223  0.2540
 3948TIP3    H233336   0.287   4.387  14.723 -2.7284  4.0181  0.5228
 3949TIP3   OH233337   3.835   1.051   3.808 -0.0222  0.3951  0.0617
 3949TIP3    H133338   3.849   1.009   3.723  0.9181  1.0603 -0.1275
 3949TIP3    H233339   3.886   1.132   3.804  1.4280 -0.3575  1.8609
 3950TIP3   OH233340   1.170   1.682  13.160  0.0916 -0.6358 -0.5107
 3950TIP3    H133341   1.172   1.607  13.220 -0.0612  0.6432  1.1767
 3950TIP3    H233342   1.187   1.758  13.216 -1.2571  0.7652 -1.9005
 3951TIP3   OH233343   2.485   4.567  11.147  0.2449 -0.2709  0.4336
 3951TIP3    H133344   2.540   4.617  11.207 -0.1504  2.7671 -1.5410
 3951TIP3    H233345   2.396   4.593  11.170  0.0825  0.8164 -1.2590
 3952TIP3   OH233346   4.134   3.109   1.333 -0.1729  0.5077 -0.1507
 3952TIP3    H133347   4.208   3.049   1.328 -1.1684 -0.7051 -0.9907
 3952TIP3    H233348   4.070   3.073   1.273 -0.7034  2.6151 -0.9414
 3953TIP3   OH233349   2.863   6.346  15.937  0.1885 -0.2811 -0.1934
 3953TIP3    H133350   2.806   6.272  15.954 -0.2005 -0.2879 -1.4411
 3953TIP3    H233351   2.866   6.394  16.020 -0.5575 -1.0040  0.2616
 3954TIP3   OH233352   1.730   1.412   0.600 -0.3548 -0.1404 -0.5222
 3954TIP3    H133353   1.665   1.416   0.671  0.1461 -0.7599 -0.0047
 3954TIP3    H233354   1.680   1.425   0.520 -0.8159  1.4608 -0.0113
 3955TIP3   OH233355   5.278   4.466  11.713  0.6552 -0.1664 -0.0522
 3955TIP3    H133356   5.371   4.469  11.692  0.6474  0.6594  0.0090
 3955TIP3    H233357   5.234   4.465  11.628  0.7148 -0.5283 -0.0807
 3956TIP3   OH233358   6.612   3.132   1.324  0.7693 -0.0687 -0.4617
 3956TIP3    H133359   6.564   3.195   1.270  0.9402 -0.0944 -0.6442
 3956TIP3    H233360   6.571   3.138   1.410 -0.1547 -0.7281 -0.8441
 3957TIP3   OH233361   4.762   2.988   2.962  0.0632 -0.1912 -0.2749
 3957TIP3    H133362   4.806   3.063   3.002  1.4449 -0.8740 -0.4593
 3957TIP3    H233363   4.817   2.964   2.888 -1.4010 -0.2092 -1.4006
 3958TIP3   OH233364   0.829   4.698  15.678  0.7565  0.1401 -0.1883
 3958TIP3    H133365   0.814   4.688  15.584 -1.8395 -1.1100  0.2713
 3958TIP3    H233366   0.896   4.633  15.698 -1.0929 -2.0586 -0.6953
 3959TIP3   OH233367   1.111   2.725  17.052 -0.3890 -0.0197 -0.7480
 3959TIP3    H133368   1.026   2.696  17.021 -1.0272  1.2343 -0.2637
 3959TIP3    H233369   1.097   2.816  17.078 -0.3861 -1.1514  4.5337
 3960TIP3   OH233370   1.311   1.343  13.994  0.2327 -0.0283  0.8380
 3960TIP3    H133371   1.369   1.317  13.923  0.2359  2.7736 -0.2856
 3960TIP3    H233372   1.232   1.290  13.982  0.4316  0.0425 -0.9456
 3961TIP3   OH233373   6.729   3.887   5.096 -0.6251 -0.3116  0.4223
 3961TIP3    H133374   6.748   3.800   5.132 -1.5888 -0.3820  0.7920
 3961TIP3    H233375   6.793   3.898   5.025 -0.0809 -1.0515  0.7846
 3962TIP3   OH233376   6.369   2.477  13.976  0.3161 -0.1472  0.0050
 3962TIP3    H133377   6.316   2.555  13.995  0.1706 -0.3718  0.5502
 3962TIP3    H233378   6.458   2.502  14.002  0.6847  0.5468 -1.7517
 3963TIP3   OH233379   1.069   6.638   2.160  0.0571  0.0719  0.6386
 3963TIP3    H133380   1.013   6.561   2.167 -1.6571  1.0627 -1.0911
 3963TIP3    H233381   1.139   6.612   2.100  0.9836 -0.8933  2.0912
 3964TIP3   OH233382   0.878   0.871  16.282  0.2419  0.1299 -0.5174
 3964TIP3    H133383   0.823   0.850  16.358 -0.1800 -0.5775 -1.0150
 3964TIP3    H233384   0.873   0.966  16.274 -1.9162 -0.0115 -1.3079
 3965TIP3   OH233385   3.693   0.184   6.616 -0.2359 -0.0988  0.4341
 3965TIP3    H133386   3.788   0.188   6.621 -0.2729 -0.4302  1.5295
 3965TIP3    H233387   3.674   0.184   6.522  0.7691  1.5237  0.1849
 3966TIP3   OH233388   0.858   4.221  15.709 -0.5072 -0.0903 -0.0573
 3966TIP3    H133389   0.766   4.207  15.730 -0.3782  0.1148  0.6963
 3966TIP3    H233390   0.860   4.235  15.614 -0.9494 -2.5136 -0.4899
 3967TIP3   OH233391   6.463   0.046   2.492 -0.3949  0.4976  0.0524
 3967TIP3    H133392   6.501  -0.040   2.473  0.1355  0.7485 -0.0304
 3967TIP3    H233393   6.446   0.084   2.405  0.4372  0.9404  0.0694
 3968TIP3   OH233394   6.409   6.312   3.767  0.1396  0.5261  0.0682
 3968TIP3    H133395   6.314   6.300   3.762  0.0873  1.3537 -1.8560
 3968TIP3    H233396   6.425   6.395   3.723  1.8130  0.0772 -0.2528
 3969TIP3   OH233397   4.173   2.682   1.193  0.2534 -0.3368 -0.0686
 3969TIP3    H133398   4.149   2.687   1.100  3.1356 -0.4423 -0.9525
 3969TIP3    H233399   4.217   2.765   1.210  1.5960 -1.1448  0.5609
 3970TIP3   OH233400   0.611   6.666  14.675  0.1842 -0.1372  0.5393
 3970TIP3    H133401   0.693   6.707  14.702 -0.5881  0.8358  1.5306
 3970TIP3    H233402   0.605   6.587  14.728 -0.1495  0.5001  1.4868
 3971TIP3   OH233403   3.587   2.372   2.966  0.7549 -0.3789 -0.2834
 3971TIP3    H133404   3.634   2.342   3.044  0.1239 -2.0451 -0.5127
 3971TIP3    H233405   3.652   2.368   2.896  0.3618 -2.6306 -0.5918
 3972TIP3   OH233406   0.082   6.615   0.615 -0.2370 -0.7238 -0.1289
 3972TIP3    H133407   0.175   6.600   0.633 -0.3669 -0.2766  1.0133
 3972TIP3    H233408   0.081   6.663   0.532  0.5782 -0.4010  0.0419
 3973TIP3   OH233409   6.022   3.983   1.913  0.1888  0.4667 -0.0525
 3973TIP3    H133410   5.970   3.924   1.967  1.2686  0.8540  1.4470
 3973TIP3    H233411   5.986   3.972   1.825 -0.9951 -0.8652  0.5613
 3974TIP3   OH233412   3.571   3.878   1.282 -0.1712 -1.1358 -0.7119
 3974TIP3    H133413   3.503   3.940   1.256  0.8935  0.2365 -0.2794
 3974TIP3    H233414   3.585   3.824   1.204 -0.7236 -0.4960 -1.2706
 3975TIP3   OH233415   0.274   5.268   0.422  0.1082 -0.5299 -0.4050
 3975TIP3    H133416   0.251   5.305   0.337  0.1008  1.1459  0.2912
 3975TIP3    H233417   0.361   5.304   0.441 -0.7899  0.8974  1.2423
 3976TIP3   OH233418   5.364   4.692  14.548  0.7505 -0.3065 -0.0447
 3976TIP3    H133419   5.356   4.729  14.460  2.2166  0.3954  0.0866
 3976TIP3    H233420   5.398   4.764  14.601 -0.3969 -0.6287  1.1874
 3977TIP3   OH233421   4.690   0.040   3.532 -0.4638 -0.1933 -0.5670
 3977TIP3    H133422   4.743   0.119   3.533 -1.2424  0.3367  0.1796
 3977TIP3    H233423   4.744  -0.025   3.487  1.3774 -0.0463  1.2721
 3978TIP3   OH233424   5.093   3.597  14.146 -0.0808  0.9127  0.4581
 3978TIP3    H133425   5.063   3.509  14.170  0.2763  0.0615 -1.9419
 3978TIP3    H233426   5.026   3.656  14.183 -3.1237 -0.7120 -1.9683
 3979TIP3   OH233427   3.738   4.236  14.124 -0.3283 -0.7446 -0.4964
 3979TIP3    H133428   3.738   4.292  14.202  0.4948  0.7946 -1.5666
 3979TIP3    H233429   3.810   4.175  14.138  0.7844  0.4862 -0.6852
 3980TIP3   OH233430   3.188   3.336  10.780  0.2149  0.4465  0.0356
 3980TIP3    H133431   3.171   3.288  10.699  0.6464 -1.2548  0.9019
 3980TIP3    H233432   3.125   3.300  10.842  2.2572 -0.9654  1.4251
 3981TIP3   OH233433   5.630   2.381   2.701  0.0293  0.0661 -0.1858
 3981TIP3    H133434   5.644   2.440   2.775  0.5489  0.6547 -0.7455
 3981TIP3    H233435   5.674   2.423   2.627 -0.7108 -0.3798 -0.8986
 3982TIP3   OH233436   0.225   2.967   1.739  0.2500  0.0603 -0.2667
 3982TIP3    H133437   0.132   2.947   1.730  0.5816 -1.3357 -0.9929
 3982TIP3    H233438   0.267   2.915   1.670  1.6177  0.1600  0.4562
 3983TIP3   OH233439   5.055   5.027  13.663  0.3123 -0.7048  0.2809
 3983TIP3    H133440   5.086   4.938  13.677  0.7101 -0.2826  2.4448
 3983TIP3    H233441   5.032   5.058  13.750  1.1930  1.6701 -0.2522
 3984TIP3   OH233442   2.499   4.578   2.653  0.9854  0.8199  0.1547
 3984TIP3    H133443   2.453   4.657   2.625  2.6094  2.1854  1.1429
 3984TIP3    H233444   2.543   4.547   2.574 -0.7702  0.0261 -0.5805
 3985TIP3   OH233445   0.020   4.432  15.198 -0.6716  0.4969  0.5165
 3985TIP3    H133446   0.006   4.350  15.152  0.0379  0.3259  0.5900
 3985TIP3    H233447  -0.017   4.499  15.140 -1.3296  0.1260  0.4978
 3986TIP3   OH233448   2.028   6.667   5.604 -0.1479  0.7968 -0.2671
 3986TIP3    H133449   2.123   6.679   5.603 -0.3044  2.3258 -1.8261
 3986TIP3    H233450   2.002   6.674   5.512 -1.7041 -0.2424  0.0576
 3987TIP3   OH233451   5.270   2.923  15.048 -0.5014  0.0249 -0.0708
 3987TIP3    H133452   5.269   2.840  15.095 -2.2455 -0.3871 -0.7813
 3987TIP3    H233453   5.289   2.899  14.957  3.0877  0.8349  0.2871
 3988TIP3   OH233454   0.124   1.814   5.293  0.2026 -0.0002  0.1328
 3988TIP3    H133455   0.074   1.757   5.236 -0.3316  0.9891 -0.4188
 3988TIP3    H233456   0.058   1.861   5.345  0.5609  0.8399 -0.1438
 3989TIP3   OH233457   4.422   0.402   5.550  0.0721 -0.2103  0.8093
 3989TIP3    H133458   4.403   0.328   5.607  1.9613 -0.7114  0.8488
 3989TIP3    H233459   4.386   0.478   5.596  2.3320 -0.4571  3.2353
 3990TIP3   OH233460   4.002   5.839  12.710 -0.7232 -0.0855  0.4598
 3990TIP3    H133461   4.060   5.896  12.759  0.6286 -1.8510  1.0249
 3990TIP3    H233462   3.978   5.889  12.632  0.2596  1.2903  1.0093
 3991TIP3   OH233463   2.208   6.686  14.449 -0.3397  0.5191  0.3865
 3991TIP3    H133464   2.160   6.615  14.490  0.8609 -0.3966  0.2517
 3991TIP3    H233465   2.141   6.740  14.407 -1.2537 -0.5358  0.4673
 3992TIP3   OH233466   1.349   4.439   4.569 -0.0396  0.3588  0.2633
 3992TIP3    H133467   1.444   4.443   4.577 -0.1571  0.4915  1.8617
 3992TIP3    H233468   1.331   4.348   4.545  0.5221  0.6013 -1.2299
 3993TIP3   OH233469   0.689   5.985   0.455  0.4606 -0.1196  0.6980
 3993TIP3    H133470   0.631   5.942   0.518  0.5429 -2.1081 -0.5052
 3993TIP3    H233471   0.770   5.935   0.459 -0.2206 -1.7375 -2.4427
 3994TIP3   OH233472   3.482   6.458  12.017  0.2510 -0.4425  0.7094
 3994TIP3    H133473   3.408   6.442  11.958 -0.3114 -0.9710  1.5445
 3994TIP3    H233474   3.442   6.492  12.097  0.8180 -1.6033  1.5054
 3995TIP3   OH233475   5.851   6.674  12.687  0.0240  0.1847  0.2554
 3995TIP3    H133476   5.790   6.691  12.615  1.0961 -0.2868 -0.7845
 3995TIP3    H233477   5.846   6.753  12.741 -1.7824  0.0143  0.4283
 3996TIP3   OH233478   1.146   4.481  16.875 -0.1565 -0.7405 -0.0822
 3996TIP3    H133479   1.150   4.572  16.906 -0.8575 -0.7486  0.0358
 3996TIP3    H233480   1.058   4.452  16.897 -0.9215 -0.5713 -2.5742
 3997TIP3   OH233481   0.558   4.651   4.128  0.7330  0.2838  0.0159
 3997TIP3    H133482   0.484   4.595   4.152  1.3273 -0.7395 -0.4695
 3997TIP3    H233483   0.523   4.708   4.060 -0.3624  1.7408  1.6845
 3998TIP3   OH233484   0.368   3.571  10.657  0.1959 -0.0567 -0.3859
 3998TIP3    H133485   0.301   3.505  10.674 -0.4456 -0.3400 -3.4250
 3998TIP3    H233486   0.449   3.521  10.646  0.5826  0.1155  1.3255
 3999TIP3   OH233487   1.570   5.563  14.562 -0.4466  0.4077  0.1944
 3999TIP3    H133488   1.551   5.619  14.486  0.5532 -0.9158 -1.0978
 3999TIP3    H233489   1.665   5.570  14.572 -0.5056  0.1216  0.9739
 4000TIP3   OH233490   0.382   2.190  11.234  0.5074 -0.8301  0.5207
 4000TIP3    H133491   0.362   2.123  11.169  0.4071 -0.9067  0.6312
 4000TIP3    H233492   0.455   2.154  11.285  2.9652  0.6207 -1.7114
 4001TIP3   OH233493   5.059   1.077   1.650  0.7321  0.1867  0.4455
 4001TIP3    H133494   5.106   1.145   1.700  2.1831 -0.5459  0.1250
 4001TIP3    H233495   5.004   1.126   1.589  0.2700  1.0808  1.5333
 4002TIP3   OH233496   5.598   1.898  14.630 -0.5035 -0.0065  0.0181
 4002TIP3    H133497   5.587   1.984  14.590 -1.4521 -0.0836  0.1060
 4002TIP3    H233498   5.677   1.863  14.589 -1.0011  0.2496 -1.1941
 4003TIP3   OH233499   4.234   1.965  16.732 -0.0718  0.0258  0.0549
 4003TIP3    H133500   4.265   1.885  16.775 -0.6252 -0.6933 -0.8472
 4003TIP3    H233501   4.270   1.961  16.644 -0.9088  0.2736 -0.3112
 4004TIP3   OH233502   5.446   1.292  13.041  0.0116 -0.5328 -0.2307
 4004TIP3    H133503   5.356   1.318  13.023 -0.1387 -1.4671 -0.9062
 4004TIP3    H233504   5.494   1.375  13.047 -0.6572 -0.0568 -1.1561
 4005TIP3   OH233505   1.399   5.150  16.393 -0.0602 -0.1727 -0.5278
 4005TIP3    H133506   1.368   5.065  16.359 -2.2512  0.7956 -1.1204
 4005TIP3    H233507   1.363   5.155  16.481  1.3225 -0.4484  0.0849
 4006TIP3   OH233508   1.370   2.614   2.150 -0.1833 -0.1833  0.1272
 4006TIP3    H133509   1.318   2.604   2.230 -1.0083  0.0085 -0.3710
 4006TIP3    H233510   1.359   2.706   2.125 -0.6019 -0.4286 -0.6416
 4007TIP3   OH233511   6.578   3.397   4.490 -0.1537  0.4319 -0.0587
 4007TIP3    H133512   6.595   3.311   4.528 -0.9766  0.0214 -0.5771
 4007TIP3    H233513   6.571   3.380   4.396  3.0238  1.5893 -0.6209
 4008TIP3   OH233514   3.232   2.939  13.217  0.5548 -0.4645  0.1363
 4008TIP3    H133515   3.179   2.870  13.177 -0.7312  0.0628  0.8458
 4008TIP3    H233516   3.239   3.006  13.149 -1.5203  0.3723  0.6587
 4009TIP3   OH233517   2.604   3.298  16.005  0.1549  0.0215  0.5980
 4009TIP3    H133518   2.554   3.219  16.023  1.8916 -0.8538  1.9503
 4009TIP3    H233519   2.673   3.269  15.944  1.1863  0.2925  1.5928
 4010TIP3   OH233520   1.670   4.313  10.419 -0.2603  0.0500 -0.1121
 4010TIP3    H133521   1.760   4.334  10.447 -0.5450 -0.2359  1.0688
 4010TIP3    H233522   1.658   4.222  10.446 -1.7967  0.8458  2.2178
 4011TIP3   OH233523   2.477   3.685  11.588 -0.6248 -0.3008 -0.2275
 4011TIP3    H133524   2.555   3.657  11.637 -1.4288  0.4439  1.5811
 4011TIP3    H233525   2.460   3.614  11.526  0.6701 -1.1113  0.3015
 4012TIP3   OH233526   3.944   4.348   1.804 -0.4552  0.0155  0.1678
 4012TIP3    H133527   3.941   4.274   1.865  1.8731 -1.6197 -1.5410
 4012TIP3    H233528   3.871   4.332   1.744 -0.6517 -0.2595  0.4725
 4013TIP3   OH233529   6.707   5.959   0.802 -0.7151 -0.0652 -0.1419
 4013TIP3    H133530   6.749   5.873   0.789 -0.0943  0.1392  0.4489
 4013TIP3    H233531   6.621   5.938   0.836 -0.1471 -0.4469  1.1114
 4014TIP3   OH233532   3.234   5.440   1.791 -0.1241 -1.1066 -0.1012
 4014TIP3    H133533   3.261   5.410   1.705  2.1190 -1.3302  0.6280
 4014TIP3    H233534   3.289   5.392   1.852 -2.1103 -1.4576  1.5332
 4015TIP3   OH233535   5.042   1.995   5.190  0.0145  0.1739 -0.5049
 4015TIP3    H133536   5.105   2.067   5.183  0.2565  0.4959  3.0528
 4015TIP3    H233537   4.957   2.038   5.188  0.0471  0.2159 -1.1720
 4016TIP3   OH233538   0.371   4.420   4.955  0.2013 -0.1980 -0.7180
 4016TIP3    H133539   0.377   4.514   4.972  0.9744 -0.3369 -0.2100
 4016TIP3    H233540   0.286   4.409   4.913 -0.5723  0.5200  0.6039
 4017TIP3   OH233541   1.421   1.459  10.319  0.7109 -0.2181  0.3213
 4017TIP3    H133542   1.354   1.459  10.387  0.3366  1.3138 -0.0217
 4017TIP3    H233543   1.467   1.376  10.332 -1.9622 -1.9286 -0.1588
 4018TIP3   OH233544   2.564   3.598   3.223  0.5932  0.2859 -0.1827
 4018TIP3    H133545   2.505   3.662   3.263  1.8257  0.7628  0.9832
 4018TIP3    H233546   2.534   3.513   3.256 -0.2504  0.3798 -0.6885
 4019TIP3   OH233547   5.697   6.734  12.466 -0.7404  0.0624 -0.1446
 4019TIP3    H133548   5.679   6.748  12.373  1.9973  0.3191 -0.6969
 4019TIP3    H233549   5.683   6.640  12.479 -1.6038  0.1092 -0.6748
 4020TIP3   OH233550   3.136   6.542  13.491  0.3069  0.1964  0.0779
 4020TIP3    H133551   3.115   6.585  13.574 -2.2877 -1.1091  0.2190
 4020TIP3    H233552   3.119   6.449  13.507 -0.0223 -0.1159 -1.8191
 4021TIP3   OH233553   3.005   1.999   3.297  0.6104  0.0273  0.5609
 4021TIP3    H133554   2.933   1.952   3.255  0.4639 -1.0786  1.9792
 4021TIP3    H233555   3.080   1.987   3.239 -0.0366  0.1400 -0.3124
 4022TIP3   OH233556   6.598   0.110  12.319  0.1181 -0.1748  0.2763
 4022TIP3    H133557   6.519   0.109  12.265  0.2674 -1.1115  0.0588
 4022TIP3    H233558   6.625   0.018  12.324  1.7776  0.2250 -0.5211
 4023TIP3   OH233559   6.717   5.032   0.649  0.1283  0.4776 -0.2218
 4023TIP3    H133560   6.708   4.988   0.564  0.0362 -0.1277  0.0904
 4023TIP3    H233561   6.627   5.047   0.677  0.1597  0.7431 -0.2658
 4024TIP3   OH233562   2.450   6.790   1.728  0.2923 -0.0490  0.0556
 4024TIP3    H133563   2.419   6.791   1.818 -0.8945  2.7781 -0.2879
 4024TIP3    H233564   2.513   6.861   1.723  1.5082 -1.1542 -1.0165
 4025TIP3   OH233565   3.405   4.352  15.616 -0.2828 -0.0758  0.1106
 4025TIP3    H133566   3.315   4.328  15.637  0.0225 -1.1486  0.2249
 4025TIP3    H233567   3.449   4.269  15.598  0.6591  0.4435 -0.0511
 4026TIP3   OH233568   5.277   5.608   0.362  0.1917 -0.5373 -0.0484
 4026TIP3    H133569   5.228   5.686   0.337 -0.2064  0.0432  2.2718
 4026TIP3    H233570   5.368   5.638   0.369  0.3130 -0.7152 -0.7974
 4027TIP3   OH233571   3.291   1.050   5.634 -0.6066 -0.4493  0.5157
 4027TIP3    H133572   3.276   0.967   5.679 -0.8937 -0.4605  0.3962
 4027TIP3    H233573   3.207   1.073   5.595 -0.1495 -0.9054 -0.8084
 4028TIP3   OH233574   1.739   5.386   1.410  0.0684 -0.6449 -0.0672
 4028TIP3    H133575   1.818   5.333   1.400  0.7125  0.2069  0.3717
 4028TIP3    H233576   1.771   5.475   1.423 -1.0300  0.1675 -2.3966
 4029TIP3   OH233577   4.727   1.413   5.099  0.7346 -0.2219  0.0044
 4029TIP3    H133578   4.664   1.354   5.058  2.2373 -0.1254 -2.6387
 4029TIP3    H233579   4.690   1.500   5.088  0.1819 -0.3593  0.7204
 4030TIP3   OH233580   4.126   1.022   4.152 -0.3821  0.1257  0.3212
 4030TIP3    H133581   4.124   0.935   4.112 -0.4283 -0.1441  0.8992
 4030TIP3    H233582   4.204   1.064   4.115  0.7155 -0.8500  1.4354
 4031TIP3   OH233583   3.192   1.019  15.348  0.7639 -0.1462  0.2357
 4031TIP3    H133584   3.103   1.046  15.326  1.0349 -1.5431 -3.0664
 4031TIP3    H233585   3.186   0.990  15.439 -1.8810  0.7955  0.4650
 4032TIP3   OH233586   5.214   3.916  11.328 -0.1976 -0.1398  0.4443
 4032TIP3    H133587   5.289   3.946  11.380 -0.5858 -0.8762  1.4649
 4032TIP3    H233588   5.231   3.823  11.314 -0.6019 -0.1658  0.1221
 4033TIP3   OH233589   1.264   3.514   3.828 -0.2739  0.5827 -1.1717
 4033TIP3    H133590   1.190   3.572   3.845 -0.4065  0.5163 -1.5371
 4033TIP3    H233591   1.248   3.478   3.741  0.5497  1.1353 -1.5682
 4034TIP3   OH233592   4.958   1.066  16.429 -0.0999  0.7765 -0.3989
 4034TIP3    H133593   4.940   0.980  16.391  1.3914 -0.4254  1.3808
 4034TIP3    H233594   5.049   1.084  16.404 -0.0281  1.2701  0.1922
 4035TIP3   OH233595   1.533   1.527   1.768  0.2938 -0.2294 -0.3260
 4035TIP3    H133596   1.548   1.450   1.714 -0.4178 -1.5208  1.2356
 4035TIP3    H233597   1.604   1.587   1.745  1.3664 -1.6889 -0.9445
 4036TIP3   OH233598   4.014   4.730  12.951  0.0639  0.1197 -0.2263
 4036TIP3    H133599   4.048   4.817  12.934  0.7661  0.4599  2.4407
 4036TIP3    H233600   4.063   4.672  12.892  1.5323  1.2223 -0.1287
 4037TIP3   OH233601   6.629   0.872  11.136  0.3653 -0.2381  0.0491
 4037TIP3    H133602   6.659   0.873  11.045 -0.4643  0.0701 -0.2286
 4037TIP3    H233603   6.618   0.779  11.157  0.2916 -0.2989 -0.2606
 4038TIP3   OH233604   0.197   2.565   3.288 -0.3922 -0.0882  0.1867
 4038TIP3    H133605   0.229   2.560   3.198 -0.6979 -1.7042  0.1437
 4038TIP3    H233606   0.102   2.563   3.280 -0.4571  1.0558  0.4984
 4039TIP3   OH233607   1.651   1.734  14.239 -0.4772 -0.2312  0.1711
 4039TIP3    H133608   1.639   1.818  14.194  1.6408  0.2629  0.4463
 4039TIP3    H233609   1.745   1.730  14.258 -0.6632 -2.3233  0.8588
 4040TIP3   OH233610   0.183   6.632  11.943 -0.1847  0.0392  0.0231
 4040TIP3    H133611   0.118   6.590  11.887  1.1089 -1.6290 -0.2882
 4040TIP3    H233612   0.250   6.663  11.882 -1.0168  2.5173  0.2559
 4041TIP3   OH233613   2.766   6.107  15.122 -0.3310  0.2162 -0.0848
 4041TIP3    H133614   2.846   6.061  15.098  2.0101  3.0200  1.5845
 4041TIP3    H233615   2.777   6.125  15.216 -3.4645 -0.1710  0.4495
 4042TIP3   OH233616   0.703   5.951   0.865  0.3161  0.1943  0.3025
 4042TIP3    H133617   0.639   5.976   0.932 -0.0489  1.8851 -0.6211
 4042TIP3    H233618   0.658   5.885   0.813 -0.7109  1.3010 -0.2823
 4043TIP3   OH233619   5.740   4.825  13.322 -0.6487 -0.1952 -0.0253
 4043TIP3    H133620   5.809   4.760  13.310 -0.6544 -0.0822 -0.6743
 4043TIP3    H233621   5.699   4.800  13.405 -0.8810 -1.2467 -0.4350
 4044TIP3   OH233622   3.807   0.143   5.391 -0.1258  0.1986  0.2096
 4044TIP3    H133623   3.730   0.175   5.344 -1.2452 -2.2137  0.2388
 4044TIP3    H233624   3.846   0.221   5.429 -1.3148  1.7647 -1.6015
 4045TIP3   OH233625   6.481   1.348   1.073  0.0088 -0.4201  0.4495
 4045TIP3    H133626   6.482   1.252   1.072 -2.3268 -0.5939  3.1694
 4045TIP3    H233627   6.542   1.372   1.142  1.1330  0.1580 -0.6980
 4046TIP3   OH233628   3.916   3.394  13.915 -0.0039 -0.0972 -0.5344
 4046TIP3    H133629   3.858   3.321  13.892 -1.0179  0.6513 -0.4286
 4046TIP3    H233630   3.970   3.360  13.987 -0.0299 -0.9393 -0.9033
 4047TIP3   OH233631   6.713   4.731   4.883  0.0469  0.1919  0.5685
 4047TIP3    H133632   6.683   4.667   4.948 -2.0183  0.0793 -0.4210
 4047TIP3    H233633   6.795   4.693   4.849  0.0352 -0.8015  1.5780
 4048TIP3   OH233634   3.474   5.266  15.407 -0.0425 -0.6218 -0.1928
 4048TIP3    H133635   3.562   5.228  15.408 -0.0047 -0.5259  0.2221
 4048TIP3    H233636   3.488   5.358  15.428 -0.4034 -0.9494  1.6345
 4049TIP3   OH233637   2.830   5.607   0.392 -0.5036  0.0568 -0.2446
 4049TIP3    H133638   2.814   5.600   0.298 -1.4587 -0.8182 -0.0293
 4049TIP3    H233639   2.749   5.579   0.433  1.2547 -4.0518  0.9315
 4050TIP3   OH233640   0.866   0.303  13.660 -0.2720 -0.2919  0.3080
 4050TIP3    H133641   0.959   0.283  13.672 -0.5256 -1.4101  0.5222
 4050TIP3    H233642   0.864   0.363  13.585  0.5691 -0.8562 -0.1840
 4051TIP3   OH233643   5.627   3.165   1.872 -0.0324 -0.0664 -0.1147
 4051TIP3    H133644   5.704   3.221   1.878  0.3713 -0.4247 -1.5488
 4051TIP3    H233645   5.604   3.165   1.779 -1.6544 -0.1273  0.2557
 4052TIP3   OH233646   4.729   6.345   0.664  0.1547  0.7631  0.4843
 4052TIP3    H133647   4.671   6.353   0.589  0.1817  0.3253  0.4130
 4052TIP3    H233648   4.688   6.278   0.719 -0.1183  1.4165  1.0958
 4053TIP3   OH233649   6.010   4.041   2.636  0.4345  0.4582  0.0905
 4053TIP3    H133650   6.022   4.013   2.545 -2.2739 -1.2831  0.1865
 4053TIP3    H233651   6.062   3.979   2.687  0.1897  0.0671 -0.1342
 4054TIP3   OH233652   6.757   1.530   3.465 -0.1889 -0.0031  0.2477
 4054TIP3    H133653   6.793   1.589   3.531  0.2041  0.2576 -0.1924
 4054TIP3    H233654   6.748   1.584   3.387 -3.5404  0.5157  0.8597
 4055TIP3   OH233655   5.266   5.941   0.489 -0.3957  0.3113 -0.2807
 4055TIP3    H133656   5.229   5.989   0.415 -0.7503 -0.2427 -0.4655
 4055TIP3    H233657   5.352   5.913   0.458 -0.4745  0.2243 -0.4204
 4056TIP3   OH233658   2.088   6.613  15.579 -0.4831  0.2865 -0.4134
 4056TIP3    H133659   2.175   6.574  15.583 -0.7284 -0.1422  1.0042
 4056TIP3    H233660   2.090   6.667  15.499  2.2084  2.9472  1.2413
 4057TIP3   OH233661   5.154   2.905  11.943  0.2227 -0.0434 -0.2232
 4057TIP3    H133662   5.247   2.882  11.947  0.3975  0.6556 -0.1770
 4057TIP3    H233663   5.116   2.840  11.884  0.6686 -0.5575  0.0446
 4058TIP3   OH233664   0.288   0.202  14.963 -0.1971  0.0537 -0.1449
 4058TIP3    H133665   0.270   0.245  14.879 -1.1898  0.0556  0.0659
 4058TIP3    H233666   0.264   0.110  14.948  0.8626 -0.2183 -0.2535
 4059TIP3   OH233667   4.274   1.712  11.688 -0.0534  0.2097 -0.0515
 4059TIP3    H133668   4.285   1.790  11.741  1.1462  0.7911 -1.0904
 4059TIP3    H233669   4.364   1.688  11.662 -0.3930 -1.4706  0.1905
 4060TIP3   OH233670   4.834   5.758   0.361  0.2137  0.3593  0.0251
 4060TIP3    H133671   4.750   5.713   0.372  1.4788 -1.7688  1.8787
 4060TIP3    H233672   4.833   5.827   0.428 -1.0828  2.2545 -1.7929
 4061TIP3   OH233673   4.130   4.687   2.566  0.3850 -0.4326 -0.4064
 4061TIP3    H133674   4.105   4.772   2.530 -1.5188 -1.1871 -1.0012
 4061TIP3    H233675   4.080   4.623   2.514  0.0355 -1.7609  1.4626
 4062TIP3   OH233676   6.346   6.795  15.954  0.3651  0.0923 -0.0121
 4062TIP3    H133677   6.345   6.714  16.005  0.2558 -0.9572 -1.6099
 4062TIP3    H233678   6.334   6.865  16.019  0.9253 -1.1258  1.4553
 4063TIP3   OH233679   2.650   4.986  14.656  0.1378 -0.4479 -0.2846
 4063TIP3    H133680   2.727   5.037  14.680 -0.8876  0.9410  0.2007
 4063TIP3    H233681   2.647   4.914  14.719 -0.2250  0.8018  1.1634
 4064TIP3   OH233682   1.291   1.558   4.946 -0.1598  0.8370  0.0516
 4064TIP3    H133683   1.265   1.646   4.919 -0.6055  0.3653 -1.1134
 4064TIP3    H233684   1.210   1.517   4.975 -0.1673  0.4100 -0.5681
 4065TIP3   OH233685   3.654   4.352  16.076 -0.2474  0.5409 -0.3777
 4065TIP3    H133686   3.664   4.417  16.006 -0.3227  1.4801  0.4664
 4065TIP3    H233687   3.618   4.274  16.032  1.5604  0.4179 -1.7451
 4066TIP3   OH233688   1.822   3.632  16.726  0.4662 -0.5544  0.2347
 4066TIP3    H133689   1.852   3.688  16.654 -0.0956  0.2390  0.6052
 4066TIP3    H233690   1.776   3.691  16.785 -0.1808 -1.4170  0.6149
 4067TIP3   OH233691   2.542   5.859   0.213  1.0191  0.2674  0.3292
 4067TIP3    H133692   2.613   5.850   0.150  0.0253 -0.1182 -0.7677
 4067TIP3    H233693   2.463   5.860   0.160  0.1734  0.2908  1.5536
 4068TIP3   OH233694   2.327   3.528  13.367 -0.3795 -0.9358 -0.1778
 4068TIP3    H133695   2.401   3.474  13.341  1.0293 -0.0951  1.7758
 4068TIP3    H233696   2.367   3.607  13.404 -2.2880  0.0086 -0.0033
 4069TIP3   OH233697   0.887   5.542  11.575  0.4505 -0.3355 -0.1856
 4069TIP3    H133698   0.803   5.524  11.618 -0.4118  3.5734  0.1839
 4069TIP3    H233699   0.945   5.568  11.647  0.6936  0.9207 -0.8114
 4070TIP3   OH233700   6.321   3.045  13.483  0.3917 -0.1999 -0.0866
 4070TIP3    H133701   6.248   3.042  13.546 -0.4901  1.6705 -0.9179
 4070TIP3    H233702   6.322   2.959  13.443 -0.9045 -0.5092  0.4828
 4071TIP3   OH233703   2.633   0.720   6.268 -0.0991 -0.2965  0.3104
 4071TIP3    H133704   2.566   0.788   6.261 -0.2033 -0.6031 -3.9112
 4071TIP3    H233705   2.712   0.760   6.231  0.8490 -1.3645  1.0972
 4072TIP3   OH233706   6.629   1.199   6.120  0.0210 -0.2697  0.3227
 4072TIP3    H133707   6.605   1.181   6.029 -1.7451  0.0656  0.6859
 4072TIP3    H233708   6.600   1.121   6.169 -2.1042  0.8978  1.0341
 4073TIP3   OH233709   0.118   2.268   3.044  0.0830 -0.3207 -0.4985
 4073TIP3    H133710   0.200   2.221   3.027  0.1895 -0.1122 -0.5708
 4073TIP3    H233711   0.134   2.356   3.010  0.3211  0.1315  0.7264
 4074TIP3   OH233712   0.323   0.797   2.713 -0.1891  0.0047  0.1608
 4074TIP3    H133713   0.371   0.787   2.631 -0.6610  1.1124 -0.2516
 4074TIP3    H233714   0.332   0.711   2.756 -0.5220 -0.8182 -1.3433
 4075TIP3   OH233715   6.219   6.622   4.281 -0.4862  0.4972 -0.0529
 4075TIP3    H133716   6.236   6.536   4.241 -2.5230  0.3666 -0.7916
 4075TIP3    H233717   6.281   6.681   4.238 -1.4636  0.0250 -2.2409
 4076TIP3   OH233718   3.686   3.537  13.707  0.2542 -0.2494  1.2917
 4076TIP3    H133719   3.716   3.618  13.664 -0.6364 -0.5263  0.0797
 4076TIP3    H233720   3.609   3.564  13.758 -0.4149 -0.4079  0.4013
 4077TIP3   OH233721   0.781   1.141   3.569  0.0024  0.0504  0.3716
 4077TIP3    H133722   0.828   1.205   3.622  0.7934 -0.7364  0.6445
 4077TIP3    H233723   0.846   1.107   3.508  0.0749 -1.7543  1.4000
 4078TIP3   OH233724   5.245   0.310  10.819 -0.6887 -0.0583  0.1509
 4078TIP3    H133725   5.259   0.368  10.744 -0.4545 -1.7465 -1.1800
 4078TIP3    H233726   5.164   0.264  10.798  0.2182 -1.6972  0.1214
 4079TIP3   OH233727   6.495   3.038  11.899 -0.2673 -0.1803  0.1021
 4079TIP3    H133728   6.572   2.983  11.887 -0.9675 -0.7745 -2.0746
 4079TIP3    H233729   6.421   2.977  11.897 -0.8334  0.3813  2.1244
 4080TIP3   OH233730   5.154   5.774   3.956  0.4815  0.4104 -0.1454
 4080TIP3    H133731   5.060   5.774   3.942  0.8345 -0.7362 -3.3302
 4080TIP3    H233732   5.192   5.791   3.869  3.1888 -2.8653  0.1810
 4081TIP3   OH233733   0.557   3.694  16.812  0.6205 -0.0968 -0.0870
 4081TIP3    H133734   0.496   3.665  16.744  1.2273 -1.6697 -0.0041
 4081TIP3    H233735   0.515   3.770  16.851 -1.0862 -0.8740 -0.3074
 4082TIP3   OH233736   3.380   5.664  10.885  0.2596  0.1371 -0.3044
 4082TIP3    H133737   3.432   5.589  10.856  0.2221 -0.4783  1.1399
 4082TIP3    H233738   3.325   5.685  10.810 -0.2319 -1.7211 -0.5256
 4083TIP3   OH233739   4.130   1.942  12.737  0.0904 -0.1184  0.5529
 4083TIP3    H133740   4.098   2.023  12.777  0.2686  0.5240 -0.5866
 4083TIP3    H233741   4.052   1.902  12.699  0.3582  0.6975 -0.9119
 4084TIP3   OH233742   4.026   5.488   2.617  0.2676  0.4147 -0.4070
 4084TIP3    H133743   4.025   5.583   2.602  1.3746  0.0228 -3.8564
 4084TIP3    H233744   4.105   5.472   2.668  1.5497  1.1588 -2.0821
 4085TIP3   OH233745   0.788   5.271  17.102 -0.2916  0.1059 -0.2934
 4085TIP3    H133746   0.826   5.251  17.187 -1.7356 -2.9449 -0.2482
 4085TIP3    H233747   0.863   5.279  17.043  0.6294  0.1200  0.8514
 4086TIP3   OH233748   0.386   4.436   6.012 -0.2718 -0.5451  0.2134
 4086TIP3    H133749   0.393   4.364   6.075 -1.1809 -0.0194  0.9338
 4086TIP3    H233750   0.449   4.501   6.043  3.2186 -2.3573 -2.3926
 4087TIP3   OH233751   3.439   6.730   3.598  0.6836 -0.0329  0.1380
 4087TIP3    H133752   3.398   6.774   3.523 -2.4847 -3.0456 -0.1247
 4087TIP3    H233753   3.396   6.769   3.674  0.0002 -0.6144  0.0601
 4088TIP3   OH233754   4.852   5.207  14.947  0.4130 -0.9618 -0.0606
 4088TIP3    H133755   4.821   5.230  14.859  1.8539 -0.8313 -0.5610
 4088TIP3    H233756   4.773   5.205  15.001 -0.2970  0.5956 -1.0005
 4089TIP3   OH233757   3.472   0.485  15.392  0.4767  0.6018  0.3029
 4089TIP3    H133758   3.443   0.576  15.384  0.4637  0.4868 -1.1492
 4089TIP3    H233759   3.521   0.483  15.474 -2.2897  1.1666  2.1327
 4090TIP3   OH233760   6.726   5.974   2.515  0.5054 -0.3271  0.1939
 4090TIP3    H133761   6.774   5.956   2.433 -1.9316 -0.7907 -1.2367
 4090TIP3    H233762   6.634   5.981   2.488 -0.5861 -1.7248  3.0548
 4091TIP3   OH233763   2.038   0.684   0.273  0.3500  0.0294 -0.3465
 4091TIP3    H133764   2.020   0.761   0.327 -2.3536 -0.9487  0.2967
 4091TIP3    H233765   2.076   0.621   0.334  0.6776  0.1540 -0.4195
 4092TIP3   OH233766   3.737   5.090   4.073  0.2901 -0.3438  0.1070
 4092TIP3    H133767   3.685   5.036   4.014 -0.3684  0.8813 -0.4863
 4092TIP3    H233768   3.705   5.179   4.058  1.7472  0.3000  0.5853
 4093TIP3   OH233769   4.987   4.606   1.774  0.3546  0.2445  0.0558
 4093TIP3    H133770   5.072   4.609   1.817  0.4272  1.2708 -0.1106
 4093TIP3    H233771   4.996   4.669   1.701 -0.2181 -0.3906 -0.5718
 4094TIP3   OH233772   3.739   0.204   6.340  0.8788 -0.3116  0.3371
 4094TIP3    H133773   3.835   0.208   6.331  1.0916 -0.8943  2.0546
 4094TIP3    H233774   3.710   0.167   6.256  2.1546 -0.1885 -0.1944
 4095TIP3   OH233775   6.274   6.231   1.415  0.4585 -0.6693  0.7000
 4095TIP3    H133776   6.352   6.284   1.397  0.4751 -0.1071  2.2882
 4095TIP3    H233777   6.264   6.176   1.337  1.1516  0.8000 -0.4774
 4096TIP3   OH233778   4.954   2.468   2.048  0.2060 -0.0630 -0.3341
 4096TIP3    H133779   4.958   2.533   2.119  0.4086  0.7659 -1.0794
 4096TIP3    H233780   4.921   2.518   1.973 -1.8295 -1.3433 -0.3649
 4097TIP3   OH233781   2.987   4.178  10.912 -0.2710 -0.1979  0.7336
 4097TIP3    H133782   2.908   4.127  10.899 -0.3805  0.3467 -1.0280
 4097TIP3    H233783   3.001   4.223  10.828  2.2377 -0.7528  0.7675
 4098TIP3   OH233784   1.524   1.938   4.978 -0.2586  0.3039  0.7318
 4098TIP3    H133785   1.502   1.902   5.064  1.7865 -0.8015  0.8721
 4098TIP3    H233786   1.463   2.010   4.965 -2.6789 -1.4299  1.7173
 4099TIP3   OH233787   6.098   4.904   2.610  0.3998 -0.1130 -0.1343
 4099TIP3    H133788   6.049   4.825   2.587  0.3345 -0.6531  1.6746
 4099TIP3    H233789   6.077   4.919   2.703  3.7809 -0.5334  0.8339
 4100TIP3   OH233790   5.278   0.199  12.576 -0.0131  0.6836 -0.2692
 4100TIP3    H133791   5.280   0.157  12.662  0.7788 -1.6734 -1.3606
 4100TIP3    H233792   5.262   0.292  12.595 -0.3398  0.1626  2.3656
 4101TIP3   OH233793   6.761   4.531   0.105 -0.8605 -0.7067 -0.4022
 4101TIP3    H133794   6.779   4.462   0.040  0.9726  0.5714 -1.3403
 4101TIP3    H233795   6.843   4.539   0.154 -0.3226  2.0004 -1.5442
 4102TIP3   OH233796   2.943   2.361   0.500 -0.2946  0.3801 -0.0026
 4102TIP3    H133797   2.952   2.419   0.576 -0.9634  0.7847 -0.2157
 4102TIP3    H233798   2.954   2.273   0.535 -0.5842  0.5636  0.5657
 4103TIP3   OH233799   4.137   4.375  13.820  0.0824 -0.7591  0.1242
 4103TIP3    H133800   4.210   4.437  13.819  0.7529 -1.4714  1.5813
 4103TIP3    H233801   4.069   4.417  13.768  0.8738  0.7428  0.2474
 4104TIP3   OH233802   0.596   4.699  16.729  0.0900  0.5346 -0.2592
 4104TIP3    H133803   0.675   4.751  16.746  0.8679  0.1805 -2.3906
 4104TIP3    H233804   0.544   4.754  16.670 -0.6958  0.2695  0.1794
 4105TIP3   OH233805   6.555   5.111   6.117 -0.3527  0.2900  0.1561
 4105TIP3    H133806   6.511   5.051   6.178 -0.1319 -0.4865 -0.4386
 4105TIP3    H233807   6.645   5.115   6.149 -0.2850  0.0354  0.0030
 4106TIP3   OH233808   5.894   4.458   5.972  0.5053 -0.2586 -0.3181
 4106TIP3    H133809   5.890   4.491   6.062  1.0005 -0.1217 -0.3459
 4106TIP3    H233810   5.977   4.411   5.966  0.0160 -1.1294 -0.4178
 4107TIP3   OH233811   2.840   5.177   3.589 -0.9219 -0.4586  0.2725
 4107TIP3    H133812   2.824   5.192   3.496  1.2616 -1.2503 -0.2736
 4107TIP3    H233813   2.778   5.109   3.613 -1.2513 -0.5141 -0.6897
 4108TIP3   OH233814   0.772   4.862  13.969  0.1798 -0.1652  0.3746
 4108TIP3    H133815   0.865   4.879  13.984  0.2860 -0.5749  0.2138
 4108TIP3    H233816   0.755   4.898  13.882  0.2551 -0.3266  0.2920
 4109TIP3   OH233817   0.394   3.272  12.140 -0.4541  0.4253 -0.4636
 4109TIP3    H133818   0.453   3.243  12.210 -0.7312  1.5347  0.2516
 4109TIP3    H233819   0.381   3.194  12.086 -0.9193 -0.7127  1.1953
 4110TIP3   OH233820   6.286   0.010  12.287  0.3831  0.2291 -0.2900
 4110TIP3    H133821   6.224   0.069  12.331  0.6788 -0.6470  1.3497
 4110TIP3    H233822   6.253  -0.078  12.305  1.0867 -0.1853 -0.9768
 4111TIP3   OH233823   3.549   3.811   2.411  0.2753  0.3434  0.1520
 4111TIP3    H133824   3.506   3.891   2.441 -0.9616  0.9312 -2.8687
 4111TIP3    H233825   3.642   3.823   2.435  0.3521  3.2450 -1.2454
 4112TIP3   OH233826   0.874   1.685  15.115 -1.1281  0.2577  1.0498
 4112TIP3    H133827   0.917   1.627  15.178  0.5698 -0.2922 -0.5363
 4112TIP3    H233828   0.842   1.627  15.046  1.0765  1.1633 -0.8422
 4113TIP3   OH233829   3.574   3.904  12.100  0.5206 -0.4866  0.5678
 4113TIP3    H133830   3.657   3.952  12.097  1.4942 -2.0940 -2.4213
 4113TIP3    H233831   3.519   3.948  12.035  0.2013 -1.3444  0.2446
 4114TIP3   OH233832   1.516   5.642   1.046 -0.0734 -0.2130 -0.5655
 4114TIP3    H133833   1.437   5.601   1.011 -0.0582  0.5748 -1.5868
 4114TIP3    H233834   1.572   5.656   0.970  0.5711  0.2781 -0.0185
 4115TIP3   OH233835   1.893   1.488  12.370 -0.2561 -0.9789 -0.1357
 4115TIP3    H133836   1.896   1.525  12.459 -1.8689 -1.7811  0.2995
 4115TIP3    H233837   1.971   1.522  12.327 -0.5792  1.2625  0.8882
 4116TIP3   OH233838   6.466   5.820  15.554 -0.0730  0.2790  0.5051
 4116TIP3    H133839   6.433   5.743  15.508 -1.7681  1.2646 -0.0356
 4116TIP3    H233840   6.553   5.834  15.518 -0.1954 -0.7039 -0.2268
 4117TIP3   OH233841   3.277   5.080   2.720  0.1331 -0.3119 -0.1529
 4117TIP3    H133842   3.309   5.144   2.656  0.4219  0.0569  0.3549
 4117TIP3    H233843   3.192   5.053   2.685 -1.3206  2.3907  0.9873
 4118TIP3   OH233844   6.012   3.886   5.645 -0.1147 -0.2091  0.6424
 4118TIP3    H133845   5.960   3.806   5.655 -2.5943  1.3689  1.0725
 4118TIP3    H233846   6.057   3.895   5.730  1.0692 -1.6438  0.2250
 4119TIP3   OH233847   3.997   4.458  12.012 -0.1175 -0.2876 -0.8655
 4119TIP3    H133848   3.939   4.387  11.984  0.1184 -0.8151 -0.0506
 4119TIP3    H233849   3.939   4.519  12.058  0.0707 -1.2094  0.6608
 4120TIP3   OH233850   0.814   2.305  14.459 -0.2163  0.1344 -0.3750
 4120TIP3    H133851   0.885   2.367  14.442 -0.2306  0.3573  0.3408
 4120TIP3    H233852   0.743   2.358  14.495 -0.0876 -0.3501  0.6133
 4121TIP3   OH233853   3.959   6.465  12.941 -0.1790  0.3157 -0.3064
 4121TIP3    H133854   4.043   6.477  12.986  1.5026  0.7223 -3.2697
 4121TIP3    H233855   3.971   6.387  12.887 -2.2355 -0.4111  0.2027
 4122TIP3   OH233856   2.114   3.877   1.191  0.3417  0.0512 -0.1067
 4122TIP3    H133857   2.080   3.919   1.270  0.2546  1.3499 -0.8084
 4122TIP3    H233858   2.044   3.817   1.163  0.2559 -0.1993  0.6217
 4123TIP3   OH233859   3.160   1.797  16.477 -0.1572 -0.1936 -0.0164
 4123TIP3    H133860   3.113   1.718  16.452 -0.3796 -0.3066  0.7383
 4123TIP3    H233861   3.227   1.767  16.539  1.1815 -0.0975 -1.3538
 4124TIP3   OH233862   2.797   0.261   0.980  0.3364  0.1256  0.5601
 4124TIP3    H133863   2.747   0.327   1.028 -1.4134 -0.0353 -0.9502
 4124TIP3    H233864   2.735   0.224   0.918  1.5553 -2.2193  0.6285
 4125TIP3   OH233865   1.467   3.267  15.699  0.0620 -0.7087 -0.2615
 4125TIP3    H133866   1.561   3.259  15.683  0.0372 -1.9989  0.1999
 4125TIP3    H233867   1.427   3.203  15.640 -0.6608  0.7613 -1.4657
 4126TIP3   OH233868   2.202   5.495   2.077 -0.2769  0.6133  0.2185
 4126TIP3    H133869   2.163   5.463   1.996  1.6661  2.1375 -1.4400
 4126TIP3    H233870   2.240   5.418   2.118 -0.0504 -0.0022 -1.0877
 4127TIP3   OH233871   1.895   4.866  16.588 -0.0281  0.3199 -0.0115
 4127TIP3    H133872   1.945   4.944  16.567  0.3098  0.1863  0.2857
 4127TIP3    H233873   1.877   4.825  16.503 -1.4528  1.4590 -0.2997
 4128TIP3   OH233874   6.495   0.785   0.828 -0.4752 -0.2600  0.3839
 4128TIP3    H133875   6.584   0.750   0.828 -0.8366 -1.1845 -0.2753
 4128TIP3    H233876   6.449   0.735   0.895 -0.2729  0.8635  1.4090
 4129TIP3   OH233877   4.865   4.486  16.156  0.1518 -0.1665  0.1695
 4129TIP3    H133878   4.952   4.500  16.119 -0.0035 -1.5962 -0.8336
 4129TIP3    H233879   4.865   4.394  16.184 -1.5368 -0.6958 -1.3698
 4130TIP3   OH233880   6.292   0.078  13.931 -0.2609  0.3738 -0.3613
 4130TIP3    H133881   6.335   0.162  13.912  0.7659 -0.0946 -0.1937
 4130TIP3    H233882   6.220   0.101  13.990  0.9758  0.9778  0.9811
 4131TIP3   OH233883   3.422   4.311  13.801 -0.2770  0.7542 -0.0713
 4131TIP3    H133884   3.480   4.347  13.868 -0.0368  0.3388 -0.0582
 4131TIP3    H233885   3.479   4.258  13.745 -0.6893  0.1080  0.1106
 4132TIP3   OH233886   5.083   2.466  15.428 -0.3133  0.1213 -0.4330
 4132TIP3    H133887   5.150   2.478  15.360  0.4311 -1.5778 -0.0544
 4132TIP3    H233888   5.109   2.386  15.473 -1.2432  0.7625  1.3470
 4133TIP3   OH233889   2.457   5.555   3.697  0.3284  0.2302  0.3903
 4133TIP3    H133890   2.552   5.557   3.691  0.2878  0.9090 -0.1121
 4133TIP3    H233891   2.432   5.644   3.721 -0.1253 -0.1896  1.5593
 4134TIP3   OH233892   4.552   0.958  15.765  0.2486 -0.6283  0.1843
 4134TIP3    H133893   4.510   0.915  15.840  0.0132 -0.7176  0.0033
 4134TIP3    H233894   4.502   1.038  15.752  0.5327 -0.4191  0.3650
 4135TIP3   OH233895   1.060   6.663  12.121  0.4782 -0.2015 -0.2647
 4135TIP3    H133896   1.062   6.569  12.100 -1.4793 -0.3296  0.0194
 4135TIP3    H233897   0.968   6.687  12.116  1.0848  2.1351 -2.0842
 4136TIP3   OH233898   1.105   3.106  13.119 -0.0392 -0.1800 -0.0446
 4136TIP3    H133899   1.126   3.192  13.082 -2.0617  0.2420 -0.3593
 4136TIP3    H233900   1.177   3.087  13.179  2.2329  0.1259 -2.5251
 4137TIP3   OH233901   0.133   2.578   0.780 -0.1916  0.3872  0.1292
 4137TIP3    H133902   0.111   2.671   0.788 -0.5717  0.2471  0.7560
 4137TIP3    H233903   0.059   2.532   0.819 -0.0491 -0.1873 -0.2581
 4138TIP3   OH233904   4.186   5.331  11.338 -0.4211 -0.1383 -0.1587
 4138TIP3    H133905   4.222   5.249  11.371  1.2496  1.0744  1.1642
 4138TIP3    H233906   4.108   5.346  11.392  0.6438  0.3505  1.2764
 4139TIP3   OH233907   0.074   1.692  14.760  0.1089  1.0357  0.1424
 4139TIP3    H133908   0.041   1.605  14.740 -3.7374  2.2271  0.5280
 4139TIP3    H233909   0.130   1.680  14.837 -0.9046 -0.9952  0.6346
 4140TIP3   OH233910   6.040   3.828  14.118 -0.3310 -0.3241  0.7014
 4140TIP3    H133911   6.060   3.898  14.056  0.2424 -1.5074 -0.5034
 4140TIP3    H233912   6.125   3.790  14.140 -0.6021 -0.4400  1.6097
 4141TIP3   OH233913   4.834   1.729  12.567  0.2493  0.0972  0.6460
 4141TIP3    H133914   4.893   1.800  12.591  2.0213 -1.6275  1.7652
 4141TIP3    H233915   4.889   1.650  12.572 -1.0156 -1.1630 -2.7080
 4142TIP3   OH233916   6.791   2.317   1.196 -0.1560  0.2869 -0.8792
 4142TIP3    H133917   6.858   2.249   1.206  0.7513  1.3959  1.3445
 4142TIP3    H233918   6.708   2.270   1.204  0.4386 -0.7034 -0.2609
 4143TIP3   OH233919   5.544   5.198   3.890 -0.4990 -0.4150  0.1157
 4143TIP3    H133920   5.454   5.186   3.859 -0.3667 -0.4987 -0.2438
 4143TIP3    H233921   5.584   5.256   3.826 -0.7148  0.8200  1.0753
 4144TIP3   OH233922   6.101   6.444  12.095  0.4663  0.3495  0.2129
 4144TIP3    H133923   6.077   6.507  12.163  1.1489  3.0301 -1.8710
 4144TIP3    H233924   6.023   6.436  12.040  0.8997  0.6975 -0.4690
 4145TIP3   OH233925   5.451   4.851   0.168 -0.1890  0.0738 -0.6709
 4145TIP3    H133926   5.496   4.931   0.194 -2.1310  1.1487 -0.4800
 4145TIP3    H233927   5.452   4.853   0.073  0.3689 -0.0549 -0.6746
 4146TIP3   OH233928   1.046   5.993  16.497 -0.1832  0.0696  0.6780
 4146TIP3    H133929   1.142   5.998  16.504 -0.2709  0.5738  1.6274
 4146TIP3    H233930   1.027   6.026  16.409  0.3527  2.4348  1.3832
 4147TIP3   OH233931   6.533   1.754  14.159 -0.1539  0.0145 -0.1287
 4147TIP3    H133932   6.468   1.763  14.090  0.0783  1.4170 -0.1939
 4147TIP3    H233933   6.617   1.753  14.113  0.0813  2.1630  0.1460
 4148TIP3   OH233934   5.974   5.395  13.940  0.3554  0.2401  0.2346
 4148TIP3    H133935   5.999   5.487  13.947  0.1090  0.3273  0.0009
 4148TIP3    H233936   5.889   5.396  13.895  0.0199 -0.0572  0.8346
 4149TIP3   OH233937   3.192   0.499  15.074 -0.2619  0.4825 -0.1774
 4149TIP3    H133938   3.157   0.441  15.141  1.5576 -2.1829 -1.3862
 4149TIP3    H233939   3.116   0.525  15.022 -1.0491 -1.5039 -0.0903
 4150TIP3   OH233940   3.066   2.389   4.927  0.3982  0.2803  0.1800
 4150TIP3    H133941   3.042   2.420   4.839 -1.4973  0.4692  0.7199
 4150TIP3    H233942   3.039   2.297   4.928  0.7201  0.1883  0.4623
 4151TIP3   OH233943   5.667   3.447   1.597  0.2516  0.2459  0.0203
 4151TIP3    H133944   5.646   3.386   1.526  1.1460  0.3701 -0.3580
 4151TIP3    H233945   5.590   3.503   1.603  0.3361  0.5151 -1.1505
 4152TIP3   OH233946   5.772   6.204   2.461 -0.3387  0.1460  0.3148
 4152TIP3    H133947   5.724   6.232   2.384  1.0395  0.8315 -0.3403
 4152TIP3    H233948   5.705   6.184   2.526 -1.5032  0.2477 -0.8234
 4153TIP3   OH233949   5.106   2.289   5.231 -0.4696 -0.0659 -0.2997
 4153TIP3    H133950   5.025   2.288   5.180 -0.5235 -0.4238 -0.2096
 4153TIP3    H233951   5.161   2.354   5.187  0.1500 -1.5616 -1.8591
 4154TIP3   OH233952   6.279   4.772   0.632  0.1676 -0.2161 -0.4637
 4154TIP3    H133953   6.190   4.747   0.658  1.1675 -1.9568  1.5270
 4154TIP3    H233954   6.306   4.836   0.697  0.9378 -0.9204 -0.0796
 4155TIP3   OH233955   5.992   0.535   5.176 -0.2050 -0.0797  0.2366
 4155TIP3    H133956   5.915   0.479   5.173  1.3398 -2.3461  0.5699
 4155TIP3    H233957   6.030   0.520   5.263  1.0546  0.3240 -0.2090
 4156TIP3   OH233958   2.365   3.622   1.658 -0.3159  0.2934 -0.6878
 4156TIP3    H133959   2.454   3.614   1.624 -0.1188 -2.3033  0.2084
 4156TIP3    H233960   2.312   3.647   1.582  0.9405  0.3193 -1.5783
 4157TIP3   OH233961   6.358   2.736   6.612  0.1733  0.2142  0.3823
 4157TIP3    H133962   6.316   2.650   6.623 -1.2318  0.3447 -2.7752
 4157TIP3    H233963   6.429   2.720   6.550  0.7217  1.1557  0.7487
 4158TIP3   OH233964   3.102   2.330   1.545  0.2038 -0.7983  0.1391
 4158TIP3    H133965   3.117   2.277   1.467  0.4065 -0.2413 -0.2036
 4158TIP3    H233966   3.028   2.385   1.522  1.5453  0.8555 -0.4537
 4159TIP3   OH233967   2.184   6.370  11.725  0.0611  0.1820  0.2176
 4159TIP3    H133968   2.200   6.448  11.778  1.8104  0.0561 -0.0456
 4159TIP3    H233969   2.090   6.371  11.707 -0.0260  1.9610  0.6141
 4160TIP3   OH233970   6.810   3.846  13.273 -0.0937  0.0295 -0.3161
 4160TIP3    H133971   6.757   3.925  13.264  0.4847  0.6818  1.5160
 4160TIP3    H233972   6.897   3.872  13.242 -0.3052 -0.4300 -1.3479
 4161TIP3   OH233973   2.257   6.138   5.425  0.2884  0.5400  0.0688
 4161TIP3    H133974   2.260   6.042   5.424 -0.0045  0.5268  0.3063
 4161TIP3    H233975   2.320   6.164   5.492 -0.7569  0.4568  1.1163
 4162TIP3   OH233976   0.279   2.839  15.707  0.3320  0.5664 -0.1667
 4162TIP3    H133977   0.260   2.925  15.669  0.9856  0.0401 -1.8080
 4162TIP3    H233978   0.296   2.783  15.631 -0.3137 -1.0837  0.8439
 4163TIP3   OH233979   3.012   0.351   0.822  0.0060 -0.6890 -0.5031
 4163TIP3    H133980   2.985   0.439   0.799  0.5141 -0.4565 -0.2325
 4163TIP3    H233981   2.935   0.311   0.863 -0.0897 -0.2279 -0.2348
 4164TIP3   OH233982   4.963   4.425   3.783  1.0246 -0.4302  0.0569
 4164TIP3    H133983   4.972   4.335   3.814 -1.1436 -0.5794  0.3432
 4164TIP3    H233984   4.982   4.478   3.860 -0.0608 -0.7152  0.5386
 4165TIP3   OH233985   5.056   5.513  16.015  0.1624  0.2892 -0.2586
 4165TIP3    H133986   5.140   5.499  16.060  0.1103 -0.7060 -0.4572
 4165TIP3    H233987   4.990   5.483  16.078  0.1393 -2.2100 -1.3719
 4166TIP3   OH233988   5.149   6.435  11.801 -0.6747 -0.1156 -0.1644
 4166TIP3    H133989   5.202   6.452  11.879 -1.1960  0.0886  0.1467
 4166TIP3    H233990   5.117   6.346  11.813 -0.4471 -0.2170 -0.3222
 4167TIP3   OH233991   1.424   5.095  11.339  0.0494 -0.4016 -0.4903
 4167TIP3    H133992   1.375   5.066  11.262  0.6803  0.2930 -1.1708
 4167TIP3    H233993   1.357   5.120  11.402 -0.4748 -0.9279 -0.8243
 4168TIP3   OH233994   6.845   0.417  14.000 -0.0839 -0.0925 -0.1492
 4168TIP3    H133995   6.940   0.423  13.990 -0.2073  1.3755 -0.7640
 4168TIP3    H233996   6.829   0.443  14.091  0.0823  0.1448 -0.1848
 4169TIP3   OH233997   1.101   6.827   3.188 -0.1378  0.1363  0.0590
 4169TIP3    H133998   1.145   6.887   3.127 -0.7590 -0.0578 -0.5934
 4169TIP3    H233999   1.172   6.772   3.223  0.5168  1.5058  0.9969
 4170TIP3   OH234000   2.089   4.062  13.730  0.3441 -0.0183  0.3704
 4170TIP3    H134001   2.133   4.016  13.801 -0.1948 -0.1460  0.6252
 4170TIP3    H234002   1.996   4.043  13.742  0.0734  1.3716  0.6638
 4171TIP3   OH234003   6.332   6.796   1.706 -0.6323 -0.3471  0.0076
 4171TIP3    H134004   6.332   6.705   1.738 -1.5352  0.2685  1.9046
 4171TIP3    H234005   6.408   6.836   1.748  1.1471 -0.7180 -2.6062
 4172TIP3   OH234006   3.898   2.782  14.187  0.1312  0.1175 -0.2614
 4172TIP3    H134007   3.892   2.868  14.145  1.8491  0.8367  0.8205
 4172TIP3    H234008   3.838   2.786  14.261 -1.0215 -0.2434 -1.1513
 4173TIP3   OH234009   4.237   6.590  16.683 -0.3832 -0.5775 -0.1966
 4173TIP3    H134010   4.237   6.525  16.612  0.8740 -1.3106  0.4354
 4173TIP3    H234011   4.157   6.573  16.731 -0.4060 -1.2142 -0.4479
 4174TIP3   OH234012   6.428   3.307  15.694 -0.2306  0.3633  0.2420
 4174TIP3    H134013   6.521   3.320  15.679 -0.3795  0.2878 -0.8550
 4174TIP3    H234014   6.415   3.213  15.690 -0.3902  0.3877  0.1513
 4175TIP3   OH234015   0.219   1.641  15.910  0.2181 -0.5393 -0.1455
 4175TIP3    H134016   0.219   1.678  15.822 -0.7818 -1.0843 -0.3919
 4175TIP3    H234017   0.259   1.555  15.899  0.1591 -0.5779 -0.0569
 4176TIP3   OH234018   4.773   4.512   1.942 -0.3945  0.6406 -0.0127
 4176TIP3    H134019   4.748   4.456   1.869  0.3274  0.2585  0.0302
 4176TIP3    H234020   4.848   4.561   1.909 -0.6426  1.1454  0.1605
 4177TIP3   OH234021   1.453   3.005  11.271  0.0020  0.7710 -0.2570
 4177TIP3    H134022   1.523   2.987  11.208  0.2595 -0.7448  0.4235
 4177TIP3    H234023   1.408   3.081  11.235  0.7373  0.5365 -1.7653
 4178TIP3   OH234024   5.693   3.213   1.410 -0.7979  0.2254 -0.1666
 4178TIP3    H134025   5.761   3.264   1.367 -1.0658  1.0199  0.3362
 4178TIP3    H234026   5.694   3.129   1.364 -0.2418  0.6173 -0.8988
 4179TIP3   OH234027   2.934   1.484  11.125 -0.4472 -0.4701 -0.1878
 4179TIP3    H134028   2.876   1.521  11.059 -1.2535 -0.3848  0.5363
 4179TIP3    H234029   2.875   1.439  11.186  0.0176  1.2878  1.6834
 4180TIP3   OH234030   5.802   3.948   3.799 -0.1019  0.8174  0.0699
 4180TIP3    H134031   5.743   4.014   3.836 -0.2568  1.3326 -1.0267
 4180TIP3    H234032   5.860   3.924   3.870 -0.8627  1.2099  0.8400
 4181TIP3   OH234033   1.465   3.703   3.793 -0.2523  0.0278 -0.1113
 4181TIP3    H134034   1.487   3.697   3.700 -0.1591 -2.4701  0.0142
 4181TIP3    H234035   1.401   3.633   3.808 -1.9994  1.7764  1.2973
 4182TIP3   OH234036   1.493   3.958   4.395  0.4087 -0.1224  0.1318
 4182TIP3    H134037   1.557   4.029   4.389  0.3199  0.0482  1.0270
 4182TIP3    H234038   1.419   3.987   4.342  0.1375  0.7229  0.9478
 4183TIP3   OH234039   1.734   4.289  16.916  0.3718 -0.0770 -0.1790
 4183TIP3    H134040   1.772   4.268  17.002 -1.0467 -1.0083  0.2489
 4183TIP3    H234041   1.664   4.226  16.904 -0.2276  0.7890 -1.5135
 4184TIP3   OH234042   3.219   0.263   6.674 -0.0429 -0.0248 -1.3058
 4184TIP3    H134043   3.138   0.255   6.723 -1.1027  1.6796 -2.6642
 4184TIP3    H234044   3.283   0.212   6.724 -1.3952  0.4179  1.0138
 4185TIP3   OH234045   1.863   3.025  11.018  0.1716  0.0480  0.0807
 4185TIP3    H134046   1.883   3.071  10.937  1.6833  0.7738  0.8196
 4185TIP3    H234047   1.773   2.995  11.007  0.2126  0.4555 -1.6952
 4186TIP3   OH234048   4.834   4.452  16.739  0.3749  0.2099 -0.0609
 4186TIP3    H134049   4.926   4.455  16.712  0.4938  0.4913  0.3712
 4186TIP3    H234050   4.786   4.476  16.659  0.4990 -2.5549 -1.0744
 4187TIP3   OH234051   4.732   5.354  11.923 -0.2506  0.5556 -0.5620
 4187TIP3    H134052   4.637   5.365  11.926 -0.0375  2.8995 -0.4858
 4187TIP3    H234053   4.767   5.443  11.921  1.9796 -0.2236 -0.0726
 4188TIP3   OH234054   1.350   4.677   2.774  0.0813 -0.1242  0.1853
 4188TIP3    H134055   1.276   4.628   2.737  0.5677  0.3555 -1.5230
 4188TIP3    H234056   1.315   4.764   2.790 -0.0339 -0.2294  0.5099
 4189TIP3   OH234057   6.825   5.868  16.217 -0.3948  0.2936 -0.0454
 4189TIP3    H134058   6.856   5.954  16.188 -0.1095  0.0286 -0.5349
 4189TIP3    H234059   6.860   5.807  16.153  0.7081 -0.3871  1.1511
 4190TIP3   OH234060   3.963   5.420  12.939 -0.2061  0.3063  0.5480
 4190TIP3    H134061   3.898   5.432  12.871 -0.0039  1.2279  0.4989
 4190TIP3    H234062   3.926   5.465  13.016  0.3631  0.8476  0.5140
 4191TIP3   OH234063   6.787   4.514  14.203 -0.1869  0.6733 -0.5156
 4191TIP3    H134064   6.733   4.590  14.182  0.9533  2.1190  1.4700
 4191TIP3    H234065   6.837   4.541  14.280 -1.0143 -2.6961  1.4202
 4192TIP3   OH234066   5.751   2.248  16.395  0.2267  0.2075 -0.1810
 4192TIP3    H134067   5.694   2.317  16.363  0.0227 -0.4962 -1.4076
 4192TIP3    H234068   5.751   2.182  16.325 -0.0380 -1.3055  1.1756
 4193TIP3   OH234069   5.502   1.876  13.655 -0.4444 -0.0546  0.4516
 4193TIP3    H134070   5.572   1.923  13.699 -0.3192  0.5422 -0.3541
 4193TIP3    H234071   5.543   1.795  13.623 -0.2818 -0.0087  0.5462
 4194TIP3   OH234072   5.050   4.299   5.476  0.4010 -0.3616 -0.6954
 4194TIP3    H134073   5.028   4.214   5.513  1.0238  0.0261  0.6201
 4194TIP3    H234074   4.969   4.350   5.482  0.6274 -0.1398  0.6422
 4195TIP3   OH234075   0.594   0.204   3.388 -0.3315  0.4923 -0.1115
 4195TIP3    H134076   0.602   0.228   3.480 -0.2378 -0.8944  0.2677
 4195TIP3    H234077   0.514   0.248   3.358 -0.7655  0.3542  0.8341
 4196TIP3   OH234078   2.855   3.777  15.280 -0.1718 -0.2668  0.8742
 4196TIP3    H134079   2.804   3.696  15.283 -1.1853  0.3778  2.5172
 4196TIP3    H234080   2.830   3.818  15.197 -0.5681 -1.0800  0.5841
 4197TIP3   OH234081   5.991   1.094   0.186  0.0868 -0.2514 -0.1309
 4197TIP3    H134082   6.066   1.080   0.243 -0.5396  2.1706  1.4058
 4197TIP3    H234083   6.026   1.144   0.112 -0.0800  1.4063  0.8815
 4198TIP3   OH234084   2.647   0.782  12.586  0.4135 -0.1035 -0.7012
 4198TIP3    H134085   2.627   0.845  12.655 -1.5291 -1.3605 -0.0410
 4198TIP3    H234086   2.661   0.700  12.632  1.4763 -0.5016 -1.6684
 4199TIP3   OH234087   3.364   3.161   1.647  0.3160 -0.0429 -0.3643
 4199TIP3    H134088   3.285   3.209   1.623  0.5604  1.0730  0.9453
 4199TIP3    H234089   3.347   3.130   1.737  1.9226  1.5550  0.5537
 4200TIP3   OH234090   3.847   1.750   5.050  0.1643 -0.3511  0.2889
 4200TIP3    H134091   3.801   1.769   4.969  0.8656 -2.9348 -0.8292
 4200TIP3    H234092   3.902   1.827   5.065 -0.4407  0.4479 -1.3400
 4201TIP3   OH234093   6.559   1.244  15.266  0.1072  0.1620  0.2130
 4201TIP3    H134094   6.551   1.281  15.178  3.0553 -2.7836 -1.5545
 4201TIP3    H234095   6.492   1.176  15.269  1.0410 -0.8150 -0.4605
 4202TIP3   OH234096   6.579   5.937  10.436 -0.0130 -0.1340 -0.3597
 4202TIP3    H134097   6.522   5.904  10.367  1.5072 -1.0121 -1.2486
 4202TIP3    H234098   6.663   5.896  10.419  0.8398  0.9474  1.0460
 4203TIP3   OH234099   4.781   0.723   4.574  0.5368  0.1123 -0.3399
 4203TIP3    H134100   4.753   0.797   4.627 -1.9816 -1.2501  0.4343
 4203TIP3    H234101   4.763   0.749   4.483 -0.6768  0.3432 -0.0446
 4204TIP3   OH234102   4.195   3.566  14.119 -0.8426  0.0505  0.1790
 4204TIP3    H134103   4.277   3.533  14.155 -1.3425 -0.2992  1.0442
 4204TIP3    H234104   4.143   3.488  14.102 -1.1191  0.2816 -0.0426
 4205TIP3   OH234105   6.015   0.922   6.027 -0.0010 -0.0822  0.1602
 4205TIP3    H134106   5.979   0.834   6.024 -0.2727  0.0618 -1.1966
 4205TIP3    H234107   6.044   0.933   6.118 -2.2405 -0.6463  0.9949
 4206TIP3   OH234108   4.298   1.768  14.893  0.1922 -0.3626  0.4911
 4206TIP3    H134109   4.305   1.858  14.924  3.0488 -0.0625 -0.7254
 4206TIP3    H234110   4.382   1.728  14.916  0.3859 -1.6389 -2.0838
 4207TIP3   OH234111   1.664   0.062  12.339  0.0727  0.1050  0.5028
 4207TIP3    H134112   1.726   0.115  12.289 -1.1186  2.8011  1.6943
 4207TIP3    H234113   1.699   0.061  12.428 -1.4374  1.5665  1.1644
 4208TIP3   OH234114   3.300   6.022   0.436 -0.9196  0.2846  0.1951
 4208TIP3    H134115   3.208   6.002   0.458 -0.9737 -0.2667 -0.4827
 4208TIP3    H234116   3.307   5.999   0.343  0.9387 -3.6790  1.1151
 4209TIP3   OH234117   4.731   3.270  11.878 -0.5292 -0.2911 -0.3969
 4209TIP3    H134118   4.685   3.350  11.905  1.5331  0.7656  0.1724
 4209TIP3    H234119   4.666   3.200  11.891 -2.1130  1.1615 -0.0935
 4210TIP3   OH234120   4.055   3.636   3.364  0.0015 -0.1207  0.3173
 4210TIP3    H134121   3.975   3.625   3.414 -1.6461  2.4404 -1.5324
 4210TIP3    H234122   4.034   3.602   3.277  1.3745 -0.5272  0.1123
 4211TIP3   OH234123   2.282   4.473   3.649  0.1648 -0.1523  0.1851
 4211TIP3    H134124   2.335   4.552   3.637 -0.3573  0.3437  0.9875
 4211TIP3    H234125   2.194   4.499   3.620 -0.1367 -0.2474  0.9738
 4212TIP3   OH234126   1.337   2.878  14.495 -0.4145 -0.6791  0.3476
 4212TIP3    H134127   1.425   2.849  14.472 -0.8835 -1.5459 -0.3891
 4212TIP3    H234128   1.306   2.813  14.558 -0.0117  0.4177  1.7421
 4213TIP3   OH234129   4.692   2.029   1.724 -0.0648 -0.0614  0.3183
 4213TIP3    H134130   4.725   1.942   1.747 -1.2543 -0.2479  1.4667
 4213TIP3    H234131   4.701   2.080   1.804 -1.1309  0.3008  0.2255
 4214TIP3   OH234132   1.302   1.771   1.324 -0.1662  0.5321 -0.0181
 4214TIP3    H134133   1.265   1.784   1.236  0.5442  0.8383 -0.2791
 4214TIP3    H234134   1.317   1.860   1.356 -0.7816  0.4342  0.5823
 4215TIP3   OH234135   6.779   3.301  12.621  0.0446 -0.3343 -0.3983
 4215TIP3    H134136   6.814   3.387  12.640  2.9913 -1.5463  0.1867
 4215TIP3    H234137   6.806   3.283  12.531  1.1962 -1.3553  0.1161
 4216TIP3   OH234138   2.650   2.651  15.610 -0.0855  0.2148 -0.1510
 4216TIP3    H134139   2.742   2.624  15.601 -0.0309 -0.2978  1.5355
 4216TIP3    H234140   2.622   2.670  15.521  0.8199 -2.4105 -1.1012
 4217TIP3   OH234141   0.809   3.812   1.490 -0.4406 -0.8869 -0.4593
 4217TIP3    H134142   0.782   3.722   1.473  1.9410 -1.6546 -0.5788
 4217TIP3    H234143   0.853   3.808   1.575  1.2812 -0.2591 -1.2659
 4218TIP3   OH234144   1.679   5.239  11.430 -0.1568  1.0689  0.1465
 4218TIP3    H134145   1.619   5.180  11.385  0.5692 -0.2543  0.8561
 4218TIP3    H234146   1.701   5.305  11.365  0.8774 -0.7810 -1.4750
 4219TIP3   OH234147   1.491   0.935   2.454  0.2159 -0.0195 -0.2827
 4219TIP3    H134148   1.461   1.024   2.437  3.0501  0.8762 -1.1284
 4219TIP3    H234149   1.577   0.930   2.412 -0.1940 -3.4448 -1.0034
 4220TIP3   OH234150   6.107   5.630   5.232  0.1078  0.3510 -0.3028
 4220TIP3    H134151   6.056   5.644   5.152 -1.9021  0.0906  0.8778
 4220TIP3    H234152   6.056   5.672   5.301  1.3542 -0.2011  0.9997
 4221TIP3   OH234153   1.609   6.594   1.497  0.5705 -0.2254 -0.3766
 4221TIP3    H134154   1.529   6.645   1.494  1.9079  2.0609  0.1804
 4221TIP3    H234155   1.627   6.583   1.590  1.4751  0.3200 -0.4711
 4222TIP3   OH234156   0.357   5.639  16.660  0.5385 -0.7041  0.0995
 4222TIP3    H134157   0.331   5.592  16.739 -1.2452  0.0324 -0.0089
 4222TIP3    H234158   0.372   5.570  16.595  0.0711 -1.2229  0.5322
 4223TIP3   OH234159   6.499   4.861   3.312 -0.0985 -0.0985 -0.6287
 4223TIP3    H134160   6.408   4.887   3.297 -0.5776 -0.5395  1.2801
 4223TIP3    H234161   6.502   4.769   3.287 -0.4578 -0.3628  0.2534
 4224TIP3   OH234162   3.522   1.446  16.160  0.2363 -0.1149 -0.3955
 4224TIP3    H134163   3.454   1.481  16.102 -1.0494  0.9153  1.6356
 4224TIP3    H234164   3.483   1.449  16.247  2.6178 -0.2458  0.7471
 4225TIP3   OH234165   1.216   0.664   4.681 -0.3712  0.5318  0.3115
 4225TIP3    H134166   1.186   0.602   4.748  0.1788  0.2884  0.3365
 4225TIP3    H234167   1.308   0.680   4.703  0.6550 -1.6378 -1.9471
 4226TIP3   OH234168   2.615   4.239  16.252 -0.4538 -0.0721 -0.2968
 4226TIP3    H134169   2.683   4.304  16.265 -0.6859  0.0266  0.5195
 4226TIP3    H234170   2.662   4.157  16.237 -0.1182 -0.2010  1.2586
 4227TIP3   OH234171   0.038   4.779   0.265 -0.3136 -0.1751  0.3176
 4227TIP3    H134172  -0.017   4.730   0.204 -1.2576  1.8055 -0.4941
 4227TIP3    H234173  -0.011   4.779   0.347 -1.1485  0.8266 -0.1591
 4228TIP3   OH234174   4.853   0.833   0.397  0.1509  0.0178  0.5089
 4228TIP3    H134175   4.844   0.781   0.318  2.4575 -1.9121  1.3753
 4228TIP3    H234176   4.785   0.900   0.391  0.1671 -0.1326 -2.9995
 4229TIP3   OH234177   4.737   2.490   2.415  0.3566  0.2582 -0.1095
 4229TIP3    H134178   4.703   2.481   2.326 -2.0181  0.4961  0.7031
 4229TIP3    H234179   4.697   2.571   2.448  0.5784 -0.2200  1.4202
 4230TIP3   OH234180   1.936   5.283  13.724 -0.0662 -0.7922  0.3927
 4230TIP3    H134181   1.856   5.332  13.706 -0.4097 -0.9306  1.4656
 4230TIP3    H234182   1.994   5.345  13.768  0.1556 -0.8787  0.2252
 4231TIP3   OH234183   5.218   5.033  10.476 -0.6384 -0.0191 -0.0696
 4231TIP3    H134184   5.222   5.054  10.383 -0.5782  0.5534  0.0585
 4231TIP3    H234185   5.158   4.959  10.481  0.7490 -1.2384 -0.7535
 4232TIP3   OH234186   3.330   1.315  16.636 -0.0601  0.3134  0.4222
 4232TIP3    H134187   3.355   1.234  16.590 -0.5335  0.7880 -0.7029
 4232TIP3    H234188   3.386   1.316  16.713  0.5581 -0.6651  0.0129
 4233TIP3   OH234189   4.764   2.278  13.514 -0.2463 -0.0168 -0.0710
 4233TIP3    H134190   4.696   2.344  13.496  1.1088  1.5779  0.3703
 4233TIP3    H234191   4.781   2.288  13.608  2.6909  1.8321 -0.6716
 4234TIP3   OH234192   5.479   1.251  15.779 -0.2215 -0.2627  0.7567
 4234TIP3    H134193   5.528   1.226  15.701  0.5508 -0.4775  1.2922
 4234TIP3    H234194   5.454   1.342  15.765  1.6818  0.3594  1.1205
 4235TIP3   OH234195   6.779   0.280   4.260  0.2687 -0.7689  0.0869
 4235TIP3    H134196   6.757   0.372   4.249  0.3523 -1.0165 -3.0327
 4235TIP3    H234197   6.870   0.279   4.288  0.8209  0.1156 -1.5787
 4236TIP3   OH234198   3.801   6.331  15.050  0.3823  0.7669  0.1676
 4236TIP3    H134199   3.850   6.390  14.992 -0.4491  1.0615 -0.2537
 4236TIP3    H234200   3.847   6.336  15.133  1.2460  0.7982 -0.2999
 4237TIP3   OH234201   5.636   6.108   4.470 -0.0682  0.4196 -0.0431
 4237TIP3    H134202   5.573   6.044   4.503  0.5942 -0.3996 -0.3619
 4237TIP3    H234203   5.699   6.057   4.420 -0.2780  1.4774 -1.4494
 4238TIP3   OH234204   4.683   1.102   4.811 -0.4057  0.0925 -0.2140
 4238TIP3    H134205   4.640   1.163   4.870 -1.1507 -0.6050 -0.0186
 4238TIP3    H234206   4.683   1.019   4.859  2.8154  0.4265  0.5920
 4239TIP3   OH234207   1.020   5.561  12.208  0.2813 -0.1868  0.2961
 4239TIP3    H134208   1.048   5.485  12.158  0.6758  0.3480 -0.3279
 4239TIP3    H234209   1.100   5.612  12.220  0.2860 -0.5233  1.8939
 4240TIP3   OH234210   5.658   4.499   3.182  0.1136 -0.4893  0.7766
 4240TIP3    H134211   5.702   4.569   3.133  0.2354 -0.3381  1.0968
 4240TIP3    H234212   5.632   4.436   3.116  0.7177 -0.5230  0.5640
 4241TIP3   OH234213   6.121   0.833   0.488  0.1093  0.2352  0.2305
 4241TIP3    H134214   6.029   0.827   0.514  0.2237  1.0890  0.8824
 4241TIP3    H234215   6.136   0.755   0.435 -1.1748  0.4137 -0.4467
 4242TIP3   OH234216   3.151   5.718   0.964 -0.1577  0.0621 -0.5604
 4242TIP3    H134217   3.178   5.658   1.034 -1.5057  0.0198 -0.0422
 4242TIP3    H234218   3.127   5.660   0.891  2.5538  0.1438 -1.6111
 4243TIP3   OH234219   4.281   4.452  13.558  0.1077 -0.1737  0.0601
 4243TIP3    H134220   4.320   4.482  13.640  0.9191  0.8899 -0.6918
 4243TIP3    H234221   4.311   4.515  13.493  0.0083 -1.3617 -1.1729
 4244TIP3   OH234222   2.627   4.911  13.336 -0.0676  0.4860  0.4229
 4244TIP3    H134223   2.597   4.838  13.282  2.3073 -1.3860  1.4274
 4244TIP3    H234224   2.645   4.981  13.274 -0.2250 -0.5696 -0.8613
 4245TIP3   OH234225   4.983   1.554   5.400 -0.1085 -0.0979  0.5211
 4245TIP3    H134226   5.024   1.640   5.389 -0.2165 -0.3168 -2.6389
 4245TIP3    H234227   5.037   1.510   5.465  2.1117  1.1566 -0.3514
 4246TIP3   OH234228   3.677   6.847  15.668 -0.6373 -0.8100 -0.1719
 4246TIP3    H134229   3.617   6.921  15.653 -1.1195 -1.1014  0.2597
 4246TIP3    H234230   3.652   6.814  15.754 -1.6423 -2.5916 -1.0982
 4247TIP3   OH234231   6.459   2.812  13.030 -0.0687 -0.6951  0.4135
 4247TIP3    H134232   6.538   2.852  13.066 -0.4783  1.0321 -0.4783
 4247TIP3    H234233   6.467   2.823  12.935 -1.8642  0.6112  0.3565
 4248TIP3   OH234234   3.341   5.876  12.048  0.3157 -0.1187  0.7558
 4248TIP3    H134235   3.406   5.940  12.020  0.0603  0.1735  0.8315
 4248TIP3    H234236   3.306   5.911  12.130 -0.1066 -0.1558  0.5943
 4249TIP3   OH234237   2.785   5.644  14.658  0.4243  0.1732 -0.1112
 4249TIP3    H134238   2.816   5.696  14.732  0.2671  0.1263 -0.0132
 4249TIP3    H234239   2.708   5.598  14.691  1.8003 -1.8548  0.5143
 4250TIP3   OH234240   3.979   0.913  13.433  0.1984 -0.3077 -0.8340
 4250TIP3    H134241   3.982   0.818  13.446  0.4919  0.0412  2.2698
 4250TIP3    H234242   4.063   0.944  13.466 -0.2868  1.1251 -0.8819
 4251TIP3   OH234243   1.778   5.560   1.884 -0.6938 -0.9465 -0.0400
 4251TIP3    H134244   1.768   5.592   1.974 -0.8498  0.7825 -0.6212
 4251TIP3    H234245   1.754   5.635   1.830  0.9461 -1.4318 -1.5218
 4252TIP3   OH234246   5.160   1.492  13.415  0.4467 -0.4500 -0.4084
 4252TIP3    H134247   5.069   1.481  13.441  0.1563 -0.1639 -1.2713
 4252TIP3    H234248   5.210   1.486  13.497 -0.3893 -0.0706  0.1398
 4253TIP3   OH234249   5.441   2.601  15.512  0.3910 -0.6247  0.3225
 4253TIP3    H134250   5.489   2.672  15.469 -0.2359 -0.2164  0.2842
 4253TIP3    H234251   5.465   2.522  15.463  0.8585 -0.3932  0.1766
 4254TIP3   OH234252   1.145   1.629   6.059  0.1364 -0.4258  0.4785
 4254TIP3    H134253   1.103   1.562   6.113  0.4249  0.5474  1.9502
 4254TIP3    H234254   1.239   1.608   6.063  0.1744 -0.2567  0.4924
 4255TIP3   OH234255   5.323   3.825  15.400 -0.1207 -0.2718  0.2493
 4255TIP3    H134256   5.233   3.822  15.433  0.0509  1.4104  0.9593
 4255TIP3    H234257   5.365   3.747  15.438 -1.0874 -0.6929  0.4750
 4256TIP3   OH234258   4.222   2.245  12.022 -0.2501 -0.1972  0.4826
 4256TIP3    H134259   4.266   2.201  12.094  0.5229  0.5889  0.5110
 4256TIP3    H234260   4.229   2.184  11.949 -0.4786 -0.7291  0.9064
 4257TIP3   OH234261   0.819   6.646   5.376  0.1778 -0.6130  0.3735
 4257TIP3    H134262   0.856   6.698   5.304 -1.2733  0.4361  0.3332
 4257TIP3    H234263   0.822   6.556   5.344 -0.5782 -0.1513 -1.1108
 4258TIP3   OH234264   0.775   3.020   0.719  0.0984 -0.2787 -0.0708
 4258TIP3    H134265   0.746   2.992   0.805 -0.6107 -1.5925 -0.7059
 4258TIP3    H234266   0.765   3.115   0.720  0.2832 -0.2504  1.3387
 4259TIP3   OH234267   3.145   3.055  16.728  0.8539 -0.2744  0.1522
 4259TIP3    H134268   3.109   3.071  16.640  2.0315  2.3879  0.0506
 4259TIP3    H234269   3.076   3.008  16.774 -0.8024  0.4192 -1.4889
 4260TIP3   OH234270   6.231   4.609  14.731 -0.1564 -0.7726 -0.7899
 4260TIP3    H134271   6.295   4.561  14.678  1.0780  0.1958 -0.2050
 4260TIP3    H234272   6.197   4.544  14.792  1.7271 -0.8854  0.2079
 4261TIP3   OH234273   1.783   0.716  13.411  0.1050  0.0191  0.5642
 4261TIP3    H134274   1.872   0.750  13.402  0.0400 -0.1541 -0.9782
 4261TIP3    H234275   1.726   0.792  13.400  0.0370  0.0585  1.1323
 4262TIP3   OH234276   4.792   2.925   0.564  0.0613  0.8107 -0.4639
 4262TIP3    H134277   4.851   2.950   0.635 -0.3407  0.9427 -0.1699
 4262TIP3    H234278   4.739   2.854   0.601 -0.7723  1.4957 -0.3150
 4263TIP3   OH234279   3.204   0.925  11.498 -0.0274 -0.3241 -0.5089
 4263TIP3    H134280   3.248   1.010  11.501  1.5316 -1.1310  1.9275
 4263TIP3    H234281   3.128   0.936  11.555  0.8766 -0.8753  0.8470
 4264TIP3   OH234282   2.309   3.205   3.933 -0.0389  0.0066 -0.5814
 4264TIP3    H134283   2.277   3.282   3.886 -0.6984 -0.4684 -0.9312
 4264TIP3    H234284   2.244   3.137   3.914 -0.1581 -0.2848  0.7647
 4265TIP3   OH234285   0.890   5.808  12.283  0.5400 -0.0846 -0.3021
 4265TIP3    H134286   0.939   5.740  12.237 -0.3777  0.1156 -1.6435
 4265TIP3    H234287   0.895   5.884  12.225  0.0614  0.4519  0.3428
 4266TIP3   OH234288   1.398   0.714  14.106  0.1344  0.0062  0.2006
 4266TIP3    H134289   1.470   0.695  14.046  0.0646  1.1807 -0.2725
 4266TIP3    H234290   1.440   0.742  14.187  0.2126  0.2387  0.0795
 4267TIP3   OH234291   2.654   3.675   1.225 -0.0791  0.3193  0.1401
 4267TIP3    H134292   2.642   3.761   1.185  3.2930  2.0465  2.3755
 4267TIP3    H234293   2.570   3.656   1.266 -1.0302  2.3381 -0.7389
 4268TIP3   OH234294   4.804   3.250   1.747  0.4212  0.4054  0.6460
 4268TIP3    H134295   4.787   3.170   1.698 -0.4674  0.2768  1.1489
 4268TIP3    H234296   4.899   3.262   1.742  0.4717 -0.2300 -0.1141
 4269TIP3   OH234297   6.643   0.259  12.906  0.0834 -0.2607  0.0686
 4269TIP3    H134298   6.691   0.342  12.907 -0.5199  0.0933  1.1386
 4269TIP3    H234299   6.652   0.227  12.817  0.9054  0.6164 -0.1780
 4270TIP3   OH234300   1.882   1.371   1.528 -0.3460 -0.0690 -0.2766
 4270TIP3    H134301   1.855   1.462   1.533 -0.7983 -0.1659 -0.9014
 4270TIP3    H234302   1.815   1.323   1.577  0.5100  0.0452  1.0573
 4271TIP3   OH234303   4.784   1.700   4.210 -0.4573  0.5181  0.1012
 4271TIP3    H134304   4.772   1.795   4.220  0.5547  0.5086  1.7635
 4271TIP3    H234305   4.810   1.670   4.297 -0.5239 -1.2631 -0.4564
 4272TIP3   OH234306   2.811   4.735  16.060 -0.2183  0.0295  0.1846
 4272TIP3    H134307   2.767   4.750  16.143  0.1739 -2.7658  1.0209
 4272TIP3    H234308   2.874   4.665  16.078  0.4151 -0.1699 -2.3044
 4273TIP3   OH234309   0.764   2.115  13.566  0.3905  0.2782 -0.2251
 4273TIP3    H134310   0.764   2.077  13.478 -1.0960  0.0086 -0.1254
 4273TIP3    H234311   0.822   2.190  13.560  2.0864 -1.0093 -0.8579
 4274TIP3   OH234312   2.419   1.509  11.114  0.3741 -0.0543  0.1783
 4274TIP3    H134313   2.374   1.581  11.159 -1.7443 -1.9055  1.2101
 4274TIP3    H234314   2.449   1.547  11.032 -1.0415  1.9133  0.5012
 4275TIP3   OH234315   0.809   6.357   5.165  0.3043  0.7239 -0.2332
 4275TIP3    H134316   0.723   6.382   5.199  0.2437  1.2178 -0.7537
 4275TIP3    H234317   0.802   6.262   5.152 -0.9275  1.0575 -2.3989
 4276TIP3   OH234318   0.795   6.153   3.063 -0.8625 -0.0732  0.1308
 4276TIP3    H134319   0.839   6.073   3.037 -1.3639 -1.4230  2.9829
 4276TIP3    H234320   0.866   6.215   3.081 -0.3589 -0.6221  0.0470
 4277TIP3   OH234321   4.448   6.642  15.930  0.0479 -0.0755 -0.2197
 4277TIP3    H134322   4.513   6.576  15.954  0.2276  0.7240  1.6224
 4277TIP3    H234323   4.368   6.613  15.973  0.1022  0.8443  0.5190
 4278TIP3   OH234324   3.165   6.122  15.128  0.1701  0.1895  0.0840
 4278TIP3    H134325   3.189   6.209  15.160  1.5762  0.2719 -1.1168
 4278TIP3    H234326   3.137   6.074  15.206 -1.8417  2.0692  0.6148
 4279TIP3   OH234327   2.673   4.790   0.970  0.3493  0.1879 -0.2275
 4279TIP3    H134328   2.646   4.729   1.039 -2.8652 -1.1419 -2.4330
 4279TIP3    H234329   2.732   4.740   0.914 -1.8831 -0.8843 -1.7486
 4280TIP3   OH234330   3.792   4.715  11.627  0.1577  0.1962  0.2756
 4280TIP3    H134331   3.719   4.739  11.570 -0.8944 -1.1682  0.9921
 4280TIP3    H234332   3.863   4.774  11.601 -0.6143  0.3300 -1.6962
 4281TIP3   OH234333   5.406   6.371  15.915 -0.1052 -0.5706  0.1348
 4281TIP3    H134334   5.344   6.307  15.948 -0.6505 -0.5182 -0.7441
 4281TIP3    H234335   5.447   6.408  15.993 -1.1145 -0.6724  0.7324
 4282TIP3   OH234336   0.455   0.271  13.940 -0.3419 -0.0412 -0.1524
 4282TIP3    H134337   0.462   0.296  13.847 -0.2109 -2.1539 -0.7638
 4282TIP3    H234338   0.410   0.345  13.981  2.5753  2.5134 -1.1548
 4283TIP3   OH234339   4.507   3.765  16.948  0.2301  0.1148 -0.4741
 4283TIP3    H134340   4.567   3.692  16.929 -0.6935 -0.7647 -0.1154
 4283TIP3    H234341   4.421   3.732  16.921 -0.4194  0.5254  1.0296
 4284TIP3   OH234342   3.921   3.989  11.868 -0.2774 -0.6240  0.1309
 4284TIP3    H134343   3.976   3.997  11.790  0.4642  0.8275  0.7668
 4284TIP3    H234344   3.847   3.936  11.840 -0.5070  0.6359 -1.8348
 4285TIP3   OH234345   4.904   1.798  15.559  0.4303 -0.1335 -0.3006
 4285TIP3    H134346   4.843   1.726  15.574 -0.4900  0.3339 -1.6511
 4285TIP3    H234347   4.892   1.821  15.467  0.8888  1.5816  0.0398
 4286TIP3   OH234348   5.636   4.617   3.844  0.4913 -0.3492 -0.0205
 4286TIP3    H134349   5.554   4.634   3.891  1.6281  1.4701  1.4446
 4286TIP3    H234350   5.685   4.559   3.903  0.4425 -1.1385 -0.7342
 4287TIP3   OH234351   0.734   4.050  14.307  0.0239 -0.1067  0.1258
 4287TIP3    H134352   0.776   4.129  14.342 -1.8694  0.6537  0.7834
 4287TIP3    H234353   0.661   4.033  14.366 -1.2302 -0.7804 -1.5449
 4288TIP3   OH234354   6.245   4.602   1.896 -0.2205 -0.5961  0.2634
 4288TIP3    H134355   6.186   4.527   1.893  2.0600 -2.4564 -2.0507
 4288TIP3    H234356   6.302   4.585   1.971 -0.4631 -0.5407  0.4619
 4289TIP3   OH234357   1.426   5.066   6.125 -0.4593  0.0469  0.5199
 4289TIP3    H134358   1.338   5.104   6.121 -0.5692 -0.2967 -1.0370
 4289TIP3    H234359   1.480   5.124   6.072  0.1720  0.0150  1.1085
 4290TIP3   OH234360   5.796   2.943   4.631  0.1649 -0.4094 -0.2429
 4290TIP3    H134361   5.803   2.880   4.560 -0.8522 -0.1312 -0.6093
 4290TIP3    H234362   5.840   3.021   4.599 -0.4403 -0.2280 -0.6422
 4291TIP3   OH234363   0.760   5.141  15.962 -0.2489 -0.0249  0.5166
 4291TIP3    H134364   0.804   5.056  15.966  0.6065  0.3410 -0.7417
 4291TIP3    H234365   0.774   5.179  16.049  0.2975 -0.7049  0.7317
 4292TIP3   OH234366   0.875   4.277  13.332  0.1543  0.3125 -0.9257
 4292TIP3    H134367   0.918   4.311  13.410 -1.6266 -1.1076  0.7931
 4292TIP3    H234368   0.940   4.286  13.262  2.2809  0.5273  0.9737
 4293TIP3   OH234369   6.604   5.210  12.942 -0.1901 -0.3209 -0.7021
 4293TIP3    H134370   6.583   5.179  13.030 -0.4929 -0.3993 -0.8013
 4293TIP3    H234371   6.579   5.138  12.884  0.7462 -0.5860 -0.7924
 4294TIP3   OH234372   1.008   0.669   6.040 -0.1500  0.4866 -0.0999
 4294TIP3    H134373   0.970   0.756   6.042  1.8970  1.4769  3.1611
 4294TIP3    H234374   0.961   0.620   6.107  0.5869 -0.0121  0.0641
 4295TIP3   OH234375   1.316   4.778  11.709  0.3758  0.1170 -0.1374
 4295TIP3    H134376   1.349   4.773  11.799 -2.3251 -0.1971  0.9171
 4295TIP3    H234377   1.353   4.701  11.666 -0.5071 -1.3277  1.5486
 4296TIP3   OH234378   1.108   4.570  15.597  1.0340 -0.1907  0.0650
 4296TIP3    H134379   1.050   4.507  15.553 -0.7194  0.3542  1.4646
 4296TIP3    H234380   1.190   4.564  15.548 -0.2290 -0.8589 -2.1707
 4297TIP3   OH234381   1.323   1.063  14.651  0.1043  0.3209 -0.1619
 4297TIP3    H134382   1.294   0.997  14.588  1.0551  0.7535 -1.0908
 4297TIP3    H234383   1.415   1.042  14.667  1.1845  2.7717 -2.3682
 4298TIP3   OH234384   0.321   2.167  11.604  0.5754 -0.0748 -0.4579
 4298TIP3    H134385   0.283   2.079  11.602  1.8198 -0.6700 -3.5312
 4298TIP3    H234386   0.415   2.152  11.617  0.5400  1.0174  1.4241
 4299TIP3   OH234387   1.383   1.614  10.618  0.3411 -0.6314  0.4856
 4299TIP3    H134388   1.449   1.551  10.648  0.5638 -1.2212 -1.1513
 4299TIP3    H234389   1.305   1.561  10.600 -0.1858 -0.1146  1.1862
 4300TIP3   OH234390   4.896   6.725   1.403  0.4316  0.0698 -0.0052
 4300TIP3    H134391   4.926   6.813   1.425 -0.8951  0.8975 -1.3390
 4300TIP3    H234392   4.916   6.716   1.310 -1.3644 -0.2133 -0.3834
 4301TIP3   OH234393   3.228   5.125   5.197  0.1345 -0.1905 -0.1759
 4301TIP3    H134394   3.249   5.149   5.107  0.5086  0.9486  0.2074
 4301TIP3    H234395   3.270   5.192   5.251 -0.7159 -0.4300  0.8133
 4302TIP3   OH234396   0.954   5.853   1.976 -0.4225  0.7664 -0.3453
 4302TIP3    H134397   0.894   5.779   1.965 -1.7677  2.1808 -4.2887
 4302TIP3    H234398   0.902   5.919   2.021 -0.6562  0.7621 -0.6053
 4303TIP3   OH234399   6.092   2.979   3.718 -0.0984 -0.5632 -0.5230
 4303TIP3    H134400   6.158   2.956   3.653  1.5224  2.6594 -0.2330
 4303TIP3    H234401   6.019   3.014   3.667  0.9573  1.4712 -0.7371
 4304TIP3   OH234402   3.340   1.560  13.471 -0.0743 -0.2154  0.4522
 4304TIP3    H134403   3.355   1.466  13.484  1.0907 -0.1595 -0.2733
 4304TIP3    H234404   3.401   1.584  13.401  1.3458  1.5696  2.1852
 4305TIP3   OH234405   1.064   0.806  12.324 -0.3708  0.2617  0.3970
 4305TIP3    H134406   1.146   0.785  12.369  0.0965  0.1305 -0.4785
 4305TIP3    H234407   1.017   0.862  12.384  1.2610  2.0061  0.1312
 4306TIP3   OH234408   6.686   5.255  15.611  0.2849  0.2888 -0.2116
 4306TIP3    H134409   6.719   5.238  15.699  0.2723 -0.2057 -0.2995
 4306TIP3    H234410   6.634   5.177  15.589 -0.0680  0.5940 -0.4866
 4307TIP3   OH234411   0.113   1.937  16.672 -0.5929 -0.4652  0.1947
 4307TIP3    H134412   0.161   1.975  16.598 -1.9469  0.0320 -0.4665
 4307TIP3    H234413   0.172   1.871  16.708  0.6920  0.3167 -0.4007
 4308TIP3   OH234414   1.829   1.922  15.942  0.0769  0.5997  0.0710
 4308TIP3    H134415   1.747   1.909  15.894 -0.6340  0.6410  1.2409
 4308TIP3    H234416   1.804   1.973  16.019  1.2475  0.8023  0.3320
 4309TIP3   OH234417   2.007   2.452   2.177 -0.0060  0.3117  0.4045
 4309TIP3    H134418   1.975   2.434   2.089  2.5269  2.0048 -0.9571
 4309TIP3    H234419   1.976   2.540   2.196 -2.6940 -0.9006  2.3876
 4310TIP3   OH234420   0.052   3.349   4.606  0.3105  0.1294  0.6961
 4310TIP3    H134421   0.104   3.360   4.527 -1.7808  0.9456 -0.6384
 4310TIP3    H234422   0.081   3.419   4.665  0.7326  0.5446 -0.0019
 4311TIP3   OH234423   6.064   5.356   3.525  0.1261 -0.3901  0.7274
 4311TIP3    H134424   6.108   5.414   3.463 -1.0834  0.9851  1.0994
 4311TIP3    H234425   6.062   5.405   3.607 -1.1819 -0.8158  0.9777
 4312TIP3   OH234426   0.824   5.668  13.308 -0.6102  0.4144  0.1413
 4312TIP3    H134427   0.760   5.713  13.252  1.6615  1.2436 -1.9416
 4312TIP3    H234428   0.881   5.738  13.340  0.6179 -0.5413  0.0773
 4313TIP3   OH234429   5.286   6.081   4.341  0.2947 -0.4057 -0.1891
 4313TIP3    H134430   5.242   6.162   4.368  0.7277 -0.2953  0.2052
 4313TIP3    H234431   5.220   6.033   4.292 -0.8361 -1.0007  1.8015
 4314TIP3   OH234432   1.932   5.789   2.589 -0.5018  0.5569 -0.4098
 4314TIP3    H134433   1.872   5.752   2.654 -0.0114 -0.5646 -0.5587
 4314TIP3    H234434   2.013   5.739   2.600  0.4642  2.1503 -0.1157
 4315TIP3   OH234435   2.094   6.183  15.201  0.0486  0.0744 -0.2970
 4315TIP3    H134436   2.040   6.105  15.183 -0.3016  0.4755 -1.0782
 4315TIP3    H234437   2.040   6.256  15.171  1.7670  0.3773 -2.9926
 4316TIP3   OH234438   3.487   2.004  10.619  0.3453  0.0781 -0.1469
 4316TIP3    H134439   3.495   2.083  10.566  3.5549 -0.5535 -0.8311
 4316TIP3    H234440   3.399   2.009  10.657 -0.0151  3.3360 -1.0882
 4317TIP3   OH234441   6.020   0.822   5.210 -0.2357  0.1484 -0.4373
 4317TIP3    H134442   6.115   0.824   5.222 -0.0342 -0.6006 -1.7158
 4317TIP3    H234443   5.986   0.794   5.294  0.6293  0.9055  0.1913
 4318TIP3   OH234444   1.451   0.472   4.524  0.3082 -0.3441  0.3582
 4318TIP3    H134445   1.386   0.493   4.457 -0.2654 -0.7361  0.7888
 4318TIP3    H234446   1.413   0.400   4.573  0.9865 -0.4498  0.7409
 4319TIP3   OH234447   2.862   2.381  12.538 -0.1105 -0.0063  0.3875
 4319TIP3    H134448   2.881   2.329  12.616 -0.1508  0.6608  0.8552
 4319TIP3    H234449   2.783   2.430  12.560 -1.2377 -1.2200 -0.7916
 4320TIP3   OH234450   1.515   3.701   1.568 -0.6662 -0.4211 -0.2623
 4320TIP3    H134451   1.507   3.786   1.612 -0.5994  0.0550 -1.1590
 4320TIP3    H234452   1.485   3.717   1.479  0.7555 -0.9795 -0.8690
 4321TIP3   OH234453   2.350   3.155  15.243  0.5077 -0.1686 -0.7269
 4321TIP3    H134454   2.267   3.184  15.280  0.7488 -0.7896  0.3358
 4321TIP3    H234455   2.344   3.060  15.239  1.2745 -0.2398 -0.3773
 4322TIP3   OH234456   1.534   2.445  11.486 -0.1038  0.0939  0.4161
 4322TIP3    H134457   1.439   2.432  11.494 -0.1121 -1.1865 -1.2363
 4322TIP3    H234458   1.571   2.391  11.556 -0.5536 -0.6180  0.1143
 4323TIP3   OH234459   5.375   4.643  15.494  0.1841  0.1891 -0.2646
 4323TIP3    H134460   5.344   4.714  15.438 -0.6911  0.4192  0.4839
 4323TIP3    H234461   5.364   4.564  15.442 -2.4739  0.1462  0.2122
 4324TIP3   OH234462   4.815   4.741  11.317  0.2881  0.3693 -0.0701
 4324TIP3    H134463   4.760   4.819  11.319  1.4581  1.2258  0.1895
 4324TIP3    H234464   4.804   4.702  11.403  0.4244  0.7936  0.1448
 4325TIP3   OH234465   2.506   2.114  14.619 -0.2896 -0.0370  0.1227
 4325TIP3    H134466   2.422   2.148  14.649  0.5552  1.4522  0.8928
 4325TIP3    H234467   2.536   2.179  14.555  0.7189 -0.0382  0.5867
 4326TIP3   OH234468   3.336   1.596   6.403  0.3784 -0.8396 -0.1089
 4326TIP3    H134469   3.315   1.504   6.389  0.2715 -0.7293 -0.6667
 4326TIP3    H234470   3.283   1.621   6.480  0.8450 -1.3911  0.3992
 4327TIP3   OH234471   3.965   0.124  14.482 -0.0630  0.5156 -0.4380
 4327TIP3    H134472   3.887   0.069  14.485 -0.0317  0.4819 -0.2413
 4327TIP3    H234473   4.011   0.097  14.403  1.6545 -2.0597  1.3052
 4328TIP3   OH234474   5.794   4.144   5.254 -0.3841  0.3185 -0.1113
 4328TIP3    H134475   5.768   4.236   5.261 -1.1727  0.0210  1.1947
 4328TIP3    H234476   5.889   4.147   5.246 -0.4117  1.2489 -0.2535
 4329TIP3   OH234477   3.360   5.758  14.993 -0.1480  0.3537  0.3898
 4329TIP3    H134478   3.428   5.695  15.017  0.8519  0.2125 -2.4366
 4329TIP3    H234479   3.346   5.743  14.899 -1.5911  2.7356  0.1489
 4330TIP3   OH234480   1.977   2.412  16.856 -0.2428  0.1291  0.2462
 4330TIP3    H134481   1.984   2.370  16.771  0.9275  1.9381 -0.6161
 4330TIP3    H234482   1.938   2.346  16.913 -1.1124 -1.1016 -1.6950
 4331TIP3   OH234483   4.261   5.799  14.573 -0.3683 -0.5554  0.7551
 4331TIP3    H134484   4.234   5.844  14.653 -0.6695  0.3174  0.1889
 4331TIP3    H234485   4.356   5.793  14.580  0.1491  3.1789 -0.5503
 4332TIP3   OH234486   3.026   4.999   2.625 -0.0360  0.0504  0.1769
 4332TIP3    H134487   3.021   4.915   2.578 -0.0468 -0.1179  0.4785
 4332TIP3    H234488   2.978   4.984   2.706  0.5061  0.1480  0.5225
 4333TIP3   OH234489   6.021   1.561  13.311  0.0606  0.3287 -0.5422
 4333TIP3    H134490   6.065   1.478  13.330 -1.6451 -0.7112 -0.8255
 4333TIP3    H234491   6.013   1.603  13.396  1.6751  0.6162 -0.5071
 4334TIP3   OH234492   1.606   6.696   3.553  0.1227 -0.2660  0.1145
 4334TIP3    H134493   1.636   6.630   3.491 -0.4723 -0.1406 -0.3254
 4334TIP3    H234494   1.517   6.668   3.575 -0.0791  0.3011  0.0372
 4335TIP3   OH234495   6.094   3.702  12.476 -0.1173 -0.4528  0.0783
 4335TIP3    H134496   6.090   3.606  12.479 -0.1039 -0.4766 -0.5237
 4335TIP3    H234497   6.005   3.730  12.494 -0.5885 -0.6483 -1.7724
 4336TIP3   OH234498   6.122   4.870  14.756 -0.1217 -0.8055 -0.1398
 4336TIP3    H134499   6.049   4.890  14.698 -0.4737 -1.5898  0.0231
 4336TIP3    H234500   6.153   4.785  14.726  2.4493  0.6208 -1.9502
 4337TIP3   OH234501   2.220   4.929   2.422 -0.2300  0.1322  0.0889
 4337TIP3    H134502   2.181   4.928   2.335  0.1212  0.1416 -0.0707
 4337TIP3    H234503   2.227   5.022   2.444  2.3669  0.3030 -1.1075
 4338TIP3   OH234504   5.332   4.890  17.060  0.2695 -0.1507  0.2579
 4338TIP3    H134505   5.361   4.975  17.027 -0.7885 -0.4041 -1.4338
 4338TIP3    H234506   5.260   4.911  17.119  0.4892  0.1709  0.4169
 4339TIP3   OH234507   3.105   5.403  13.620 -0.2402  0.4685 -0.5871
 4339TIP3    H134508   3.188   5.354  13.615 -1.4220 -1.7829  0.4031
 4339TIP3    H234509   3.131   5.490  13.650  1.9724  0.5324 -2.3614
 4340TIP3   OH234510   1.474   4.762   5.808 -0.4033 -0.2133  0.3409
 4340TIP3    H134511   1.557   4.787   5.848 -0.5747  0.1035  0.5062
 4340TIP3    H234512   1.416   4.837   5.823  0.0361  0.7165 -2.0740
 4341TIP3   OH234513   2.429   3.491   4.769  0.2644 -0.1615 -0.1387
 4341TIP3    H134514   2.395   3.536   4.846  0.6879 -0.3026  0.1383
 4341TIP3    H234515   2.473   3.413   4.805 -0.2301 -0.6530 -0.5850
 4342TIP3   OH234516   1.571   1.265  14.897  0.5404 -0.4284 -0.3268
 4342TIP3    H134517   1.656   1.292  14.930  0.8796 -0.6211 -1.0386
 4342TIP3    H234518   1.590   1.194  14.837 -0.2012 -1.0858  0.1953
 4343TIP3   OH234519   2.527   3.872  12.276 -0.7972 -0.0871 -0.2860
 4343TIP3    H134520   2.523   3.780  12.302 -1.3917  0.0563  0.1557
 4343TIP3    H234521   2.527   3.920  12.359  2.0821  0.2601 -0.3814
 4344TIP3   OH234522   2.051   2.060  15.902 -0.4793  0.3937 -0.0140
 4344TIP3    H134523   2.115   1.989  15.906 -0.5570  0.3536  0.7616
 4344TIP3    H234524   1.967   2.017  15.916 -0.4224  0.7643  1.6987
 4345TIP3   OH234525   1.309   3.549  14.420 -0.2469  0.1284 -0.1310
 4345TIP3    H134526   1.242   3.549  14.489 -0.3546 -0.5524 -0.2335
 4345TIP3    H234527   1.260   3.538  14.339 -0.1532  1.3262 -0.3599
 4346TIP3   OH234528   5.347   5.185  14.770 -0.4869  0.3651  0.2828
 4346TIP3    H134529   5.351   5.235  14.852 -0.1624 -0.4201  0.7631
 4346TIP3    H234530   5.274   5.223  14.722 -1.5474 -0.0343  1.5311
 4347TIP3   OH234531   6.780   4.833   3.610 -0.3236 -0.2512 -0.7576
 4347TIP3    H134532   6.743   4.758   3.656 -1.6975 -0.0506 -1.4972
 4347TIP3    H234533   6.709   4.866   3.555  0.6832  0.7167 -1.5365
 4348TIP3   OH234534   5.444   3.412   0.540  0.2934 -0.3389  0.0084
 4348TIP3    H134535   5.510   3.467   0.498 -0.4354  0.3170 -0.2997
 4348TIP3    H234536   5.472   3.407   0.632 -0.4673  1.9017  0.4240
 4349TIP3   OH234537   3.840   1.630  17.041 -0.4628  0.3186  0.4670
 4349TIP3    H134538   3.864   1.699  16.979 -1.2023  0.5897  0.4781
 4349TIP3    H234539   3.745   1.639  17.052 -0.4256 -0.0991  1.1945
 4350TIP3   OH234540   6.586   1.159  11.571 -0.7848  0.3126  0.3981
 4350TIP3    H134541   6.512   1.203  11.528 -0.1122  1.0040 -0.0855
 4350TIP3    H234542   6.545   1.093  11.627 -1.7450  0.1722 -0.4247
 4351TIP3   OH234543   2.743   4.493   1.827  0.2970 -0.5731  0.0841
 4351TIP3    H134544   2.735   4.536   1.912 -1.2174 -2.0736  0.7833
 4351TIP3    H234545   2.833   4.461   1.824 -0.0443 -1.8779  1.8844
 4352TIP3   OH234546   0.325   4.168  16.494  0.3283 -0.3523  0.2791
 4352TIP3    H134547   0.307   4.074  16.489 -0.5499 -0.1262 -1.7140
 4352TIP3    H234548   0.402   4.180  16.439  0.0117  0.1884 -0.0480
 4353TIP3   OH234549   0.778   6.540  16.391 -0.4744  0.1614  0.2362
 4353TIP3    H134550   0.766   6.469  16.328  3.0588 -0.6531  0.2916
 4353TIP3    H234551   0.743   6.617  16.346 -1.9070 -1.0922 -0.9353
 4354TIP3   OH234552   0.794   1.723   6.140 -0.3572 -0.2308 -1.2880
 4354TIP3    H134553   0.851   1.766   6.205 -0.1430 -2.4601  0.1067
 4354TIP3    H234554   0.719   1.782   6.132  0.3119  0.8392 -0.1308
 4355TIP3   OH234555   1.737   1.702  16.920 -0.1512  0.1134 -0.0859
 4355TIP3    H134556   1.799   1.656  16.975  0.3577  0.8570 -0.0251
 4355TIP3    H234557   1.764   1.794  16.924  0.8679  0.0355 -2.7857
 4356TIP3   OH234558   6.054   2.313  14.792 -0.0851  0.0384 -0.7337
 4356TIP3    H134559   6.108   2.284  14.865  1.4573 -1.0264 -2.2278
 4356TIP3    H234560   5.990   2.243  14.780 -0.2320  0.1346 -0.5180
 4357TIP3   OH234561   0.741   1.483  12.673 -0.6229 -0.3595 -0.4231
 4357TIP3    H134562   0.746   1.430  12.593 -1.8747 -1.1027 -0.0241
 4357TIP3    H234563   0.669   1.445  12.723 -2.6699  2.6029 -0.7975
 4358TIP3   OH234564   1.591   1.127  16.694  0.1518  0.0107 -0.5751
 4358TIP3    H134565   1.564   1.204  16.643  1.4115  0.0538 -1.2251
 4358TIP3    H234566   1.582   1.154  16.785 -0.2537  0.6250 -0.7876
 4359TIP3   OH234567   2.732   4.032  12.533 -0.0450  0.2334 -0.4589
 4359TIP3    H134568   2.798   4.090  12.496  0.1108 -0.4104 -1.2105
 4359TIP3    H234569   2.781   3.970  12.586  0.0843 -0.7765 -1.6957
 4360TIP3   OH234570   2.690   4.770   3.107  0.1945 -0.5205  0.8051
 4360TIP3    H134571   2.597   4.789   3.124 -0.0375 -1.2412  0.3977
 4360TIP3    H234572   2.699   4.676   3.124  0.6523 -0.6316  0.0184
 4361TIP3   OH234573   2.219   0.158   1.419  0.5003  0.0962 -0.7858
 4361TIP3    H134574   2.297   0.177   1.367  0.0846  0.4520 -1.2854
 4361TIP3    H234575   2.224   0.063   1.434  1.5329  0.2576  0.0211
 4362TIP3   OH234576   6.564   2.250  12.164  0.2960 -0.0773  0.0243
 4362TIP3    H134577   6.645   2.199  12.152 -0.8020 -1.8085 -0.5020
 4362TIP3    H234578   6.524   2.251  12.077  0.1411  1.5163  0.0889
 4363TIP3   OH234579   4.057   0.829   3.834 -0.3554  0.1457  0.5737
 4363TIP3    H134580   4.007   0.906   3.861  0.5695  0.0414  2.7875
 4363TIP3    H234581   4.006   0.755   3.868 -0.1253 -0.1142  0.3573
 4364TIP3   OH234582   4.013   0.686   1.460 -0.4701  0.6518 -0.2256
 4364TIP3    H134583   4.036   0.763   1.513 -0.8039  3.1636 -3.4255
 4364TIP3    H234584   4.097   0.649   1.434 -0.1128  2.4660 -1.9184
 4365TIP3   OH234585   5.895   3.848  11.751  0.4444  0.0922  0.0841
 4365TIP3    H134586   5.973   3.810  11.792  0.3012 -0.2731  0.0243
 4365TIP3    H234587   5.906   3.943  11.761  0.1630  0.0084  1.4587
 4366TIP3   OH234588   2.609   6.653   3.183 -0.4376  0.0056  0.2543
 4366TIP3    H134589   2.614   6.562   3.153 -1.0162 -0.0845  0.4166
 4366TIP3    H234590   2.518   6.678   3.166 -0.4323  0.3654  0.7538
 4367TIP3   OH234591   4.620   4.047   2.764  0.0549 -0.0727  0.3007
 4367TIP3    H134592   4.680   4.005   2.701  0.3183  0.3960  0.2258
 4367TIP3    H234593   4.568   4.107   2.710 -0.3470 -0.3329  0.3982
 4368TIP3   OH234594   1.082   2.699   2.641  0.2286  0.0025 -0.5712
 4368TIP3    H134595   1.091   2.793   2.627 -0.8355 -0.1102 -2.2905
 4368TIP3    H234596   1.008   2.674   2.586 -1.7119 -1.2942  2.3584
 4369TIP3   OH234597   1.663   3.789  12.434 -0.1116 -0.0905  0.1933
 4369TIP3    H134598   1.653   3.844  12.511  0.4344 -0.3604  0.4638
 4369TIP3    H234599   1.620   3.707  12.457 -1.4901  0.4339 -0.4484
 4370TIP3   OH234600   1.945   2.365   5.677 -0.4861 -0.0840  0.0326
 4370TIP3    H134601   1.887   2.342   5.605 -0.8059 -1.2827  0.6586
 4370TIP3    H234602   2.028   2.322   5.657  0.0748  1.2346 -0.6173
 4371TIP3   OH234603   0.250   1.316   2.570  0.9010 -0.1644  0.2151
 4371TIP3    H134604   0.291   1.251   2.627  1.5255  0.7858  0.8753
 4371TIP3    H234605   0.303   1.395   2.581  0.5060  0.3032 -1.0172
 4372TIP3   OH234606   0.773   3.677  11.764 -0.0968 -0.2728 -0.2224
 4372TIP3    H134607   0.740   3.764  11.785 -0.8641 -0.3634 -0.9627
 4372TIP3    H234608   0.860   3.674  11.802 -0.8131  0.0973  1.5237
 4373TIP3   OH234609   4.739   3.971  15.959 -0.4139  0.4382 -0.1434
 4373TIP3    H134610   4.653   4.010  15.971 -0.6995 -0.4397  0.8109
 4373TIP3    H234611   4.800   4.045  15.957 -1.2721  1.1624 -2.0295
 4374TIP3   OH234612   3.776   0.690   1.994 -0.5718 -0.7970  0.9506
 4374TIP3    H134613   3.804   0.647   1.914  2.8785 -0.5350  1.8533
 4374TIP3    H234614   3.757   0.780   1.968  0.5739 -0.6991  0.4018
 4375TIP3   OH234615   4.249   5.095   4.236 -0.2682 -0.2804  0.6485
 4375TIP3    H134616   4.198   5.013   4.232 -1.6451  0.5288  0.9248
 4375TIP3    H234617   4.282   5.098   4.325  1.2477 -1.3455  0.1715
 4376TIP3   OH234618   0.071   6.189   5.742  0.0922 -0.2285  0.1599
 4376TIP3    H134619   0.092   6.172   5.650 -0.6959 -1.3533  0.1703
 4376TIP3    H234620   0.055   6.103   5.779  1.6549  0.0874  1.6910
 4377TIP3   OH234621   5.710   6.549   5.177 -0.1782 -0.2676  0.4621
 4377TIP3    H134622   5.717   6.637   5.215 -1.8294  0.1597 -0.1433
 4377TIP3    H234623   5.617   6.539   5.159  0.2750 -1.3117 -1.4673
 4378TIP3   OH234624   3.798   6.169  15.802  0.3424  0.5007 -0.2233
 4378TIP3    H134625   3.813   6.082  15.840  0.0158  0.2741 -0.6078
 4378TIP3    H234626   3.773   6.152  15.711 -0.5347  0.9462 -0.0816
 4379TIP3   OH234627   6.395   2.753   4.516  0.1271 -0.0564  0.3143
 4379TIP3    H134628   6.300   2.740   4.516 -0.2604  2.2710  0.4724
 4379TIP3    H234629   6.420   2.747   4.424  0.1643 -2.4091  0.4232
 4380TIP3   OH234630   1.166   0.097  12.243 -0.5728 -0.0204 -0.7921
 4380TIP3    H134631   1.097   0.097  12.309  0.0593 -1.7741 -0.0603
 4380TIP3    H234632   1.146   0.021  12.188  0.5352 -0.3016 -0.8281
 4381TIP3   OH234633   5.363   1.322   3.068  0.2847 -0.6165 -0.3514
 4381TIP3    H134634   5.443   1.337   3.018  0.0557  2.7483  0.0632
 4381TIP3    H234635   5.296   1.303   3.002  0.1340  3.0836 -1.4744
 4382TIP3   OH234636   2.613   0.478   1.077 -0.0077 -0.2890  0.1474
 4382TIP3    H134637   2.621   0.476   1.172  2.6227  0.1309  0.0144
 4382TIP3    H234638   2.545   0.413   1.057 -0.4912 -0.5056  2.2824
 4383TIP3   OH234639   2.840   2.836   4.770  0.2257 -0.0158 -0.1239
 4383TIP3    H134640   2.817   2.923   4.803  2.3952  0.1098  1.2566
 4383TIP3    H234641   2.854   2.849   4.676  0.1127  1.0250 -0.0089
 4384TIP3   OH234642   4.171   2.228  16.996  0.1108  0.5814 -0.3583
 4384TIP3    H134643   4.098   2.242  17.055  0.6799  0.2943  0.4363
 4384TIP3    H234644   4.204   2.141  17.019 -0.3028  0.0188 -1.8230
 4385TIP3   OH234645   0.185   4.358  13.490  0.1519 -0.5505  0.1190
 4385TIP3    H134646   0.244   4.285  13.472  1.3828 -0.1139  1.9862
 4385TIP3    H234647   0.240   4.436  13.482 -0.7715  0.0629 -0.4113
 4386TIP3   OH234648   2.648   2.816   5.063 -0.4559  0.6674 -0.1400
 4386TIP3    H134649   2.676   2.899   5.101  2.2171  0.8804 -2.2592
 4386TIP3    H234650   2.613   2.839   4.977  3.8880 -0.3891 -2.5287
 4387TIP3   OH234651   1.883   1.146  13.596  0.0629 -0.0839 -0.2129
 4387TIP3    H134652   1.936   1.155  13.675  0.8033  1.2917 -0.8432
 4387TIP3    H234653   1.909   1.061  13.560  0.5767 -0.1935  0.3927
 4388TIP3   OH234654   0.543   2.027   2.774 -0.1433 -0.2000 -0.1347
 4388TIP3    H134655   0.599   2.103   2.792 -2.3633  0.9940  2.3714
 4388TIP3    H234656   0.485   2.055   2.703 -1.1977  0.6501  1.0266
 4389TIP3   OH234657   1.332   0.819  11.595  0.2319  0.3579  0.0368
 4389TIP3    H134658   1.307   0.727  11.587  0.5023  0.1226  1.4943
 4389TIP3    H234659   1.417   0.817  11.640 -0.3539  1.3450  1.2534
 4390TIP3   OH234660   0.093   6.740   0.378  0.2607 -0.5252  0.0279
 4390TIP3    H134661   0.147   6.723   0.301  0.0049 -0.1281 -0.2407
 4390TIP3    H234662   0.003   6.735   0.347  0.1418 -0.9025  0.4152
 4391TIP3   OH234663   1.898   2.132  16.588 -0.1883 -1.0144 -0.4273
 4391TIP3    H134664   1.966   2.073  16.620 -0.1026 -0.3261  0.6915
 4391TIP3    H234665   1.946   2.209  16.556 -0.3993 -0.7573 -0.1359
 4392TIP3   OH234666   2.562   1.904   2.079 -0.7506 -0.2629  0.3443
 4392TIP3    H134667   2.588   1.890   2.170  0.2719 -0.1075  0.0873
 4392TIP3    H234668   2.634   1.954   2.041 -1.1913 -0.2894 -0.5410
 4393TIP3   OH234669   5.468   6.047   4.811  0.0197 -0.0322 -0.3057
 4393TIP3    H134670   5.384   6.079   4.844  0.7573 -0.6636  2.4567
 4393TIP3    H234671   5.444   5.984   4.743 -1.8383 -1.1202  1.2465
 4394TIP3   OH234672   4.547   2.214  11.299  0.3081  0.6780  0.1415
 4394TIP3    H134673   4.541   2.289  11.241  0.4610 -1.5051 -2.9603
 4394TIP3    H234674   4.641   2.207  11.320  0.9915 -0.7619 -2.8473
 4395TIP3   OH234675   3.974   1.224   0.328  0.1526 -0.1291 -0.0603
 4395TIP3    H134676   3.914   1.216   0.403  1.5362  0.9792  1.2399
 4395TIP3    H234677   3.917   1.247   0.254 -1.3731 -2.2053  0.3945
 4396TIP3   OH234678   3.092   0.535   1.857  0.1014 -0.0032  0.2462
 4396TIP3    H134679   3.002   0.567   1.869 -0.1468 -0.8007  0.5613
 4396TIP3    H234680   3.084   0.469   1.788  0.6767  0.8846 -0.6960
 4397TIP3   OH234681   4.949   3.796   4.551 -0.3712 -0.4874 -0.6202
 4397TIP3    H134682   5.036   3.787   4.590  1.0266 -1.9167 -3.7325
 4397TIP3    H234683   4.921   3.707   4.532 -2.8581 -0.1016  0.8408
 4398TIP3   OH234684   3.577   4.520   0.015 -0.3747 -0.0594 -0.1990
 4398TIP3    H134685   3.507   4.525  -0.049 -0.5654  2.7521  0.1100
 4398TIP3    H234686   3.646   4.577  -0.020  1.2164 -1.6623  0.1723
 4399TIP3   OH234687   4.110   4.009  16.323 -0.3406  0.8515 -0.2496
 4399TIP3    H134688   4.045   3.997  16.392 -0.8930 -0.2508 -0.9271
 4399TIP3    H234689   4.132   3.920  16.295 -0.6741  1.2694 -1.9576
 4400TIP3   OH234690   2.616   1.044   3.468  0.1051  0.4398 -0.2580
 4400TIP3    H134691   2.675   1.034   3.543  1.1300 -0.6440 -1.1586
 4400TIP3    H234692   2.666   1.095   3.405  0.8877 -1.9786 -1.7471
 4401TIP3   OH234693   6.837   4.248  12.252  0.1972  0.4357  0.1659
 4401TIP3    H134694   6.801   4.165  12.282  0.3318  0.7287  1.1469
 4401TIP3    H234695   6.866   4.292  12.331 -0.7521  1.8465 -0.2429
 4402TIP3   OH234696   2.753   4.781  12.952 -0.1720  0.0877  0.5514
 4402TIP3    H134697   2.719   4.777  13.042  1.2707 -1.6230  1.0748
 4402TIP3    H234698   2.735   4.695  12.916 -3.1403  1.5323 -1.8360
 4403TIP3   OH234699   5.503   0.806   4.327 -0.4365 -0.8434 -0.1116
 4403TIP3    H134700   5.459   0.782   4.245  0.4747  0.6625 -1.0856
 4403TIP3    H234701   5.436   0.794   4.394 -1.7799 -0.4104 -1.3137
 4404TIP3   OH234702   2.736   5.601   0.113  0.4290 -0.8420 -0.3335
 4404TIP3    H134703   2.806   5.556   0.065  1.1583 -1.8078  1.5455
 4404TIP3    H234704   2.676   5.531   0.139  0.2426 -0.3853  0.4776
 4405TIP3   OH234705   4.769   5.028   4.066  0.0522  0.3116 -0.3525
 4405TIP3    H134706   4.704   5.037   3.995  0.9774 -0.4618 -1.3243
 4405TIP3    H234707   4.814   5.113   4.067  2.1688 -0.6408 -2.8961
 4406TIP3   OH234708   3.125   5.580   1.244 -0.7438  0.3256 -0.4061
 4406TIP3    H134709   3.143   5.604   1.335  0.5269 -1.5597 -0.1112
 4406TIP3    H234710   3.041   5.622   1.224 -0.8786  1.0468  1.5162
 4407TIP3   OH234711   3.143   6.094  16.415  0.1399  0.0086 -0.4234
 4407TIP3    H134712   3.117   6.185  16.430  0.1158 -0.3829  2.7249
 4407TIP3    H234713   3.238   6.093  16.430  0.1654 -0.4404 -0.5863
 4408TIP3   OH234714   2.830   3.209  14.100 -0.0355 -0.2506  0.2221
 4408TIP3    H134715   2.904   3.148  14.096  1.5932  1.1652  3.9170
 4408TIP3    H234716   2.848   3.273  14.032  1.0356 -1.0441 -0.2828
 4409TIP3   OH234717   2.030   1.380  14.767 -0.1603  0.1998 -0.4538
 4409TIP3    H134718   2.069   1.459  14.803 -0.3035 -0.5692  1.5393
 4409TIP3    H234719   1.952   1.410  14.721 -1.1408  1.1121  1.6713
 4410TIP3   OH234720   0.316   2.557   5.482  0.2113 -0.8220  0.2340
 4410TIP3    H134721   0.316   2.473   5.528  1.0290 -1.8310 -1.4953
 4410TIP3    H234722   0.292   2.535   5.392  1.5918  0.6230 -0.5377
 4411TIP3   OH234723   5.625   3.361  15.851  0.1819 -0.1755 -0.1234
 4411TIP3    H134724   5.671   3.394  15.774 -1.3400 -0.9202 -1.4213
 4411TIP3    H234725   5.609   3.439  15.904  0.5757  0.4842 -0.9521
 4412TIP3   OH234726   1.945   6.783   5.329 -0.4172  0.1144  0.3552
 4412TIP3    H134727   1.968   6.715   5.265 -0.3805 -0.4943  1.0074
 4412TIP3    H234728   1.851   6.773   5.342 -0.4662  0.3940  0.2224
 4413TIP3   OH234729   1.002   1.386  12.728  0.2551  0.0313 -0.0983
 4413TIP3    H134730   1.036   1.403  12.816  3.6104  1.8061 -1.5233
 4413TIP3    H234731   0.923   1.438  12.722  0.0193 -0.0250  1.8042
 4414TIP3   OH234732   5.378   3.680   0.342 -0.5982 -0.6173  0.7063
 4414TIP3    H134733   5.441   3.678   0.270  0.6583 -1.6625  1.7964
 4414TIP3    H234734   5.295   3.703   0.300  0.7319  2.4673 -0.5594
 4415TIP3   OH234735   6.677   1.147   4.902  0.4448  0.0904 -0.3395
 4415TIP3    H134736   6.746   1.082   4.918  1.2584  1.2690  1.1898
 4415TIP3    H234737   6.706   1.225   4.950 -0.4286  1.6536 -2.2118
 4416TIP3   OH234738   3.128   1.385  13.370 -0.5179 -0.0862  0.6564
 4416TIP3    H134739   3.193   1.371  13.301 -0.0400 -1.6422  1.4015
 4416TIP3    H234740   3.142   1.476  13.398 -0.6863  0.5713 -1.2209
 4417TIP3   OH234741   4.607   2.828   1.934 -0.5742  0.1488  0.4107
 4417TIP3    H134742   4.695   2.862   1.953 -0.6642 -0.4955  2.1794
 4417TIP3    H234743   4.552   2.907   1.930 -0.2973  0.4376  1.6635
 4418TIP3   OH234744   3.667   5.335  15.169  0.2577  0.0768  0.3637
 4418TIP3    H134745   3.711   5.300  15.247 -0.0963  1.3760  1.1763
 4418TIP3    H234746   3.603   5.268  15.145 -1.4057  0.7122  2.7371
 4419TIP3   OH234747   3.104   4.598   3.500 -0.1936  0.1964 -0.0797
 4419TIP3    H134748   3.179   4.646   3.464 -1.6496  0.6709 -2.7784
 4419TIP3    H234749   3.052   4.665   3.543  0.7558 -0.1101  1.6631
 4420TIP3   OH234750   2.436   3.135   2.039 -0.1175  0.6196  0.2308
 4420TIP3    H134751   2.387   3.061   2.002  1.0852  0.1254 -0.4527
 4420TIP3    H234752   2.375   3.209   2.035 -1.1794 -0.2169  0.4766
 4421TIP3   OH234753   6.343   5.258  12.513 -0.0017 -0.0753  0.7148
 4421TIP3    H134754   6.343   5.351  12.493  0.2270  0.2225  2.0483
 4421TIP3    H234755   6.260   5.225  12.477 -0.8802  0.9734  1.7390
 4422TIP3   OH234756   5.217   6.700   1.691 -0.4456 -0.0638 -0.4403
 4422TIP3    H134757   5.217   6.791   1.719  0.9283 -0.0087 -0.5250
 4422TIP3    H234758   5.232   6.650   1.771  1.0203 -0.0589 -0.6899
 4423TIP3   OH234759   5.046   4.928   6.327  0.8647  0.1680  0.2156
 4423TIP3    H134760   4.988   4.909   6.401  0.6161  0.4159  0.0874
 4423TIP3    H234761   5.126   4.961   6.367  1.1559 -0.7602  0.4271
 4424TIP3   OH234762   1.124   2.899  15.102  0.2502 -0.0533 -0.2695
 4424TIP3    H134763   1.071   2.843  15.046  1.2074 -0.5698 -0.6607
 4424TIP3    H234764   1.174   2.954  15.042 -0.9024  1.4815  0.1015
 4425TIP3   OH234765   3.145   3.192  12.999  0.3601 -0.4221 -0.2314
 4425TIP3    H134766   3.138   3.098  12.980 -1.1522 -0.1855 -0.9931
 4425TIP3    H234767   3.063   3.213  13.045  0.4161  0.6366 -0.5999
 4426TIP3   OH234768   5.497   0.561   3.565  0.1181  0.0376  0.5176
 4426TIP3    H134769   5.421   0.611   3.595  0.5245  0.6331  0.5625
 4426TIP3    H234770   5.504   0.489   3.628 -0.3052  0.0743  0.6133
 4427TIP3   OH234771   3.068   5.567   2.135  0.9627  1.2123 -0.4378
 4427TIP3    H134772   3.118   5.486   2.145  1.0664  1.0439 -2.1201
 4427TIP3    H234773   3.050   5.574   2.041 -2.0934  1.3056  0.0391
 4428TIP3   OH234774   4.610   0.020  11.017  0.0395  1.2373  0.1127
 4428TIP3    H134775   4.705   0.031  11.017  0.1871  0.0772 -0.0998
 4428TIP3    H234776   4.576   0.109  11.028  1.1085  1.9974 -2.1381
 4429TIP3   OH234777   6.009   6.235   2.597  0.1414 -0.4055  0.1098
 4429TIP3    H134778   6.047   6.313   2.557 -0.0468 -0.9974 -1.2611
 4429TIP3    H234779   5.928   6.220   2.550  1.4520 -2.9674 -1.5591
 4430TIP3   OH234780   0.918   0.131  14.375 -0.3589 -0.8832 -0.1722
 4430TIP3    H134781   0.963   0.079  14.309  0.5832 -2.2174  1.4407
 4430TIP3    H234782   0.831   0.093  14.381 -0.0114 -1.6256  0.2706
 4431TIP3   OH234783   3.860   0.820  17.010  0.1875  0.1832 -0.0763
 4431TIP3    H134784   3.951   0.845  17.024  0.1440  0.5596 -0.4593
 4431TIP3    H234785   3.844   0.750  17.074  0.5659  0.5244  0.3948
 4432TIP3   OH234786   5.505   1.551  14.244 -0.2023 -0.0195 -0.3043
 4432TIP3    H134787   5.598   1.570  14.259 -0.6531  1.2682  1.0347
 4432TIP3    H234788   5.475   1.512  14.326 -0.5955 -1.5528 -1.1402
 4433TIP3   OH234789   6.468   3.807   3.905  0.6866  0.0367 -0.1100
 4433TIP3    H134790   6.400   3.831   3.968 -0.3081 -2.0586 -0.3081
 4433TIP3    H234791   6.457   3.713   3.892  2.6563 -0.0870 -1.3322
 4434TIP3   OH234792   6.350   6.189   2.818  0.0074  0.3391 -0.0354
 4434TIP3    H134793   6.277   6.217   2.873  0.4125  0.1456  0.6109
 4434TIP3    H234794   6.422   6.248   2.841  0.7056 -0.8485  0.9501
 4435TIP3   OH234795   3.657   1.736   3.017  0.0008 -0.1439  0.1523
 4435TIP3    H134796   3.572   1.705   2.985  0.4183 -2.3979  1.0423
 4435TIP3    H234797   3.669   1.691   3.100  1.8755  0.4860  0.2628
 4436TIP3   OH234798   3.039   1.288  11.525  0.2324 -0.6509 -0.7308
 4436TIP3    H134799   3.058   1.382  11.527 -0.2741 -0.5470 -0.6633
 4436TIP3    H234800   3.122   1.246  11.546  0.1739 -0.1810  0.5038
 4437TIP3   OH234801   6.288   1.955  11.665 -0.1458  0.5491 -0.8002
 4437TIP3    H134802   6.367   1.956  11.719 -2.1001  0.3503  2.2785
 4437TIP3    H234803   6.230   2.020  11.705 -3.1730 -2.2494 -0.2288
 4438TIP3   OH234804   6.259   5.362   1.703 -0.1268  0.4667  0.3397
 4438TIP3    H134805   6.205   5.440   1.695  0.6975  0.9638 -0.6609
 4438TIP3    H234806   6.198   5.289   1.689 -0.6991  0.9834  0.1108
 4439TIP3   OH234807   1.847   3.347  14.497  0.1080 -0.3607 -0.0538
 4439TIP3    H134808   1.792   3.401  14.440 -2.4536 -4.0539 -1.5032
 4439TIP3    H234809   1.929   3.337  14.449  0.7952  2.3079  0.4155
 4440TIP3   OH234810   1.374   2.082   1.333 -0.4414  0.4565  0.3820
 4440TIP3    H134811   1.401   2.088   1.241  0.4237  1.2991  0.6756
 4440TIP3    H234812   1.278   2.086   1.330 -0.3889  1.4595 -0.4234
 4441TIP3   OH234813   5.780   4.917  11.460 -0.0669  0.0444 -0.4315
 4441TIP3    H134814   5.769   4.903  11.366 -0.1712  1.0250 -0.5699
 4441TIP3    H234815   5.699   4.886  11.499  0.0885 -0.6308 -0.6307
 4442TIP3   OH234816   1.964   6.312   5.589  0.6483  0.6283 -0.6186
 4442TIP3    H134817   1.910   6.290   5.665  0.5267  0.7713 -0.6632
 4442TIP3    H234818   1.979   6.406   5.597  1.4117  0.4845 -0.2692
 4443TIP3   OH234819   5.139   3.530  13.494 -0.6732 -0.5314  0.6524
 4443TIP3    H134820   5.188   3.561  13.418 -0.5735 -0.5192  0.7210
 4443TIP3    H234821   5.165   3.438  13.502  1.3524  0.0891  2.2199
 4444TIP3   OH234822   3.127   4.305  11.292  0.1688 -0.3569  0.4367
 4444TIP3    H134823   3.082   4.224  11.268 -1.8463  1.1805 -1.3873
 4444TIP3    H234824   3.069   4.374  11.263  2.2209  1.7907  1.1122
 4445TIP3   OH234825   5.599   0.196  15.982  0.0218  0.5352  0.0819
 4445TIP3    H134826   5.563   0.249  16.053  2.5553  1.2542  0.9261
 4445TIP3    H234827   5.619   0.112  16.023  0.3255  0.5290 -0.0771
 4446TIP3   OH234828   3.577   4.299   2.282  0.6673  0.1584 -0.2229
 4446TIP3    H134829   3.618   4.313   2.368  2.7991 -0.9374 -0.9924
 4446TIP3    H234830   3.520   4.375   2.271  2.2285  1.6259  1.1169
 4447TIP3   OH234831   5.750   0.778   1.751  0.4704 -0.2629  0.7311
 4447TIP3    H134832   5.785   0.704   1.700  1.8265  0.5554  0.4009
 4447TIP3    H234833   5.770   0.756   1.842 -1.5678 -1.5274  0.9305
 4448TIP3   OH234834   5.453   1.738   3.029  0.2531  0.1888  0.8266
 4448TIP3    H134835   5.532   1.790   3.011 -0.5416  0.7108 -1.5165
 4448TIP3    H234836   5.466   1.657   2.980 -0.1641 -0.2534  1.4293
 4449TIP3   OH234837   0.425   2.726  13.050  0.0718  0.1403  0.5670
 4449TIP3    H134838   0.490   2.745  13.118 -0.4707 -2.9498  2.1732
 4449TIP3    H234839   0.342   2.722  13.098 -1.1549  2.4022 -1.1676
 4450TIP3   OH234840   2.456   5.863  15.025  0.0050  0.4414 -0.0250
 4450TIP3    H134841   2.402   5.906  15.092  1.5336 -0.7524  2.1112
 4450TIP3    H234842   2.431   5.771  15.029  0.6968  0.2230 -0.5254
 4451TIP3   OH234843   1.967   2.086  10.956 -0.0019 -0.5604 -0.4885
 4451TIP3    H134844   2.054   2.080  10.915  0.3393 -0.5699  0.2177
 4451TIP3    H234845   1.970   2.024  11.029 -0.4360 -0.2085 -0.1658
 4452TIP3   OH234846   4.306   4.219   5.183  0.3705  0.4464 -0.0702
 4452TIP3    H134847   4.236   4.259   5.235 -1.5789 -0.1665 -2.0908
 4452TIP3    H234848   4.351   4.293   5.141 -0.1436  0.7637 -0.0637
 4453TIP3   OH234849   5.777   0.445   1.423  0.0052 -0.1320 -0.0577
 4453TIP3    H134850   5.856   0.410   1.464 -0.4487 -0.4083  0.5931
 4453TIP3    H234851   5.736   0.369   1.380 -0.0992 -0.0688 -0.0713
 4454TIP3   OH234852   1.731   5.571  11.713 -0.0705 -0.7307  0.2368
 4454TIP3    H134853   1.804   5.627  11.686 -1.1690  1.1047  0.8972
 4454TIP3    H234854   1.669   5.577  11.641  0.0767 -1.6672  0.0205
 4455TIP3   OH234855   0.784   6.037   2.466  0.5687  0.0259  0.9394
 4455TIP3    H134856   0.764   5.946   2.441 -1.9737  0.4916  0.9705
 4455TIP3    H234857   0.777   6.086   2.384  2.6875  0.1480  0.7789
 4456TIP3   OH234858   4.673   3.725  12.009 -0.3162 -0.3657 -0.5196
 4456TIP3    H134859   4.694   3.754  11.921 -1.3059 -0.1933 -0.7201
 4456TIP3    H234860   4.717   3.787  12.067 -1.5809  0.9581 -0.9360
 4457TIP3   OH234861   4.459   6.303   1.031  0.4925  0.0954  0.7083
 4457TIP3    H134862   4.452   6.264   0.944  1.2966 -0.7666  1.0102
 4457TIP3    H234863   4.390   6.368   1.034 -0.2405 -0.6190 -0.1870
 4458TIP3   OH234864   1.657   0.735  12.019 -0.4192  0.4788  0.2083
 4458TIP3    H134865   1.692   0.746  12.108 -0.1970 -0.6683  0.2784
 4458TIP3    H234866   1.577   0.786  12.019 -0.1622  0.9068  0.9157
 4459TIP3   OH234867   2.085   1.050  15.059 -0.1489 -0.1570  0.4059
 4459TIP3    H134868   2.150   1.011  15.000  0.9329  1.0555  0.7492
 4459TIP3    H234869   2.004   1.051  15.009  0.8670  1.4111 -1.3387
 4460TIP3   OH234870   1.265   2.395  11.458 -0.2306  0.0181 -0.5845
 4460TIP3    H134871   1.213   2.459  11.507 -1.4703 -0.5966 -1.0772
 4460TIP3    H234872   1.215   2.379  11.378  0.4817 -0.9533 -0.8518
 4461TIP3   OH234873   0.038   4.690  14.377 -0.4714 -0.7785  0.2107
 4461TIP3    H134874   0.128   4.716  14.356  0.0396 -1.6150  1.2853
 4461TIP3    H234875  -0.012   4.772  14.371  0.6767  0.0424  1.3187
 4462TIP3   OH234876   3.229   4.369   0.993 -0.0579  0.4708 -0.1746
 4462TIP3    H134877   3.176   4.304   1.039  2.4849 -0.2977  1.8477
 4462TIP3    H234878   3.197   4.453   1.026 -0.3669  0.0571  0.6102
 4463TIP3   OH234879   1.009   4.388  13.537 -0.1653 -0.1143 -0.0454
 4463TIP3    H134880   1.102   4.366  13.536 -0.1152 -0.1968  2.1023
 4463TIP3    H234881   1.006   4.481  13.559 -0.5892 -0.3205  0.8238
 4464TIP3   OH234882   6.154   3.889   2.311  0.5383 -0.4469  0.4972
 4464TIP3    H134883   6.067   3.928   2.301  1.2853  1.0075 -0.5509
 4464TIP3    H234884   6.140   3.795   2.295 -0.2057  0.2268 -4.2930
 4465TIP3   OH234885   6.399   5.150  12.172 -0.2126 -0.3509  0.5255
 4465TIP3    H134886   6.464   5.103  12.120 -0.0701  0.7738 -0.3570
 4465TIP3    H234887   6.446   5.225  12.208 -1.1682  0.9527 -0.8091
 4466TIP3   OH234888   2.996   6.261   4.253 -0.2785 -0.1683  0.1795
 4466TIP3    H134889   3.008   6.325   4.182 -0.0051 -1.0266 -0.5681
 4466TIP3    H234890   2.912   6.285   4.293 -0.6335  0.0937 -0.6899
 4467TIP3   OH234891   6.606   6.006   2.775  0.5475  0.1190 -0.3156
 4467TIP3    H134892   6.552   5.927   2.778  0.3104  0.2595 -0.7048
 4467TIP3    H234893   6.546   6.074   2.742  0.8831  0.3443 -0.4609
 4468TIP3   OH234894   3.207   5.928   3.787  0.8445 -0.4740  0.0750
 4468TIP3    H134895   3.192   5.946   3.880 -2.1758  0.1189 -0.4237
 4468TIP3    H234896   3.227   5.834   3.784  0.5057 -0.6066  1.2533
 4469TIP3   OH234897   6.802   4.995   5.698 -0.2792  0.0388  0.9866
 4469TIP3    H134898   6.867   5.020   5.764  0.7422 -1.9237  0.7919
 4469TIP3    H234899   6.725   4.969   5.749 -0.3947  0.9224  1.2801
 4470TIP3   OH234900   3.620   6.103   2.591 -0.1702 -0.3946 -0.2619
 4470TIP3    H134901   3.645   6.163   2.521 -0.8608 -0.8684 -0.9264
 4470TIP3    H234902   3.639   6.016   2.557 -0.1746 -0.6144  0.2787
 4471TIP3   OH234903   4.068   4.981  12.832  0.0790 -0.0706  0.1659
 4471TIP3    H134904   4.105   5.024  12.909 -1.5597 -2.0769  2.2040
 4471TIP3    H234905   4.026   5.052  12.783  2.1834  1.4475  0.3676
 4472TIP3   OH234906   0.835   6.494   2.848 -0.3300  0.2724  0.1500
 4472TIP3    H134907   0.923   6.461   2.831 -0.5556  0.0337 -0.5879
 4472TIP3    H234908   0.838   6.526   2.938  1.2781  2.8096 -0.7141
 4473TIP3   OH234909   3.743   3.032   5.121 -0.4473  0.5445  0.1328
 4473TIP3    H134910   3.728   2.991   5.036 -1.6369 -1.1972  1.1259
 4473TIP3    H234911   3.657   3.066   5.148 -0.8676 -1.7659  2.0079
 4474TIP3   OH234912   3.662   3.060  15.152  0.1560 -0.5667 -0.0392
 4474TIP3    H134913   3.615   2.982  15.181  0.1355 -0.3717  0.4603
 4474TIP3    H234914   3.697   3.099  15.232 -0.4129  0.3093 -0.1992
 4475TIP3   OH234915   6.593   1.907  12.151 -0.3543  0.2212 -0.1395
 4475TIP3    H134916   6.520   1.849  12.128  1.7223 -2.2430 -0.9922
 4475TIP3    H234917   6.584   1.921  12.245 -0.4146 -2.3741  0.3169
 4476TIP3   OH234918   1.092   0.625   0.819  0.4576  0.0159 -0.5959
 4476TIP3    H134919   1.182   0.625   0.853  1.5089  1.3656 -3.0603
 4476TIP3    H234920   1.103   0.641   0.725 -2.4366  1.9486 -0.7195
 4477TIP3   OH234921   3.370   6.549   3.900  0.2619  0.7381  0.5953
 4477TIP3    H134922   3.325   6.519   3.979 -1.3250  2.7101  0.5200
 4477TIP3    H234923   3.364   6.476   3.839  0.7481 -0.4942  1.9590
 4478TIP3   OH234924   5.538   6.677   0.861 -0.5843  0.2735 -0.1681
 4478TIP3    H134925   5.520   6.756   0.810  1.5427 -0.1152 -1.6438
 4478TIP3    H234926   5.621   6.645   0.827 -0.8860 -2.0596  1.0985
 4479TIP3   OH234927   3.746   0.282  14.154  0.5966  0.2263  0.2385
 4479TIP3    H134928   3.696   0.349  14.108  0.3252  0.2419  0.5494
 4479TIP3    H234929   3.822   0.329  14.189  1.3161  0.0303 -0.9847
 4480TIP3   OH234930   3.258   0.015  13.160 -0.3856  0.6201 -0.5994
 4480TIP3    H134931   3.302   0.020  13.245 -0.7575 -0.9666 -0.2840
 4480TIP3    H234932   3.308  -0.051  13.111 -0.8204  0.7392 -1.2121
 4481TIP3   OH234933   3.387   6.742   2.458  0.1035 -0.1386 -0.0586
 4481TIP3    H134934   3.402   6.808   2.391  1.2719 -1.7027 -1.3886
 4481TIP3    H234935   3.292   6.730   2.459  0.1460 -1.9853 -3.4381
 4482TIP3   OH234936   6.485   0.540  15.499  0.1458  0.5345  0.5706
 4482TIP3    H134937   6.507   0.607  15.563 -1.3631  0.2379  1.4375
 4482TIP3    H234938   6.456   0.465  15.550 -0.4103  0.0345 -0.4344
 4483TIP3   OH234939   3.760   6.685  11.689 -0.0410 -0.4460 -0.3777
 4483TIP3    H134940   3.750   6.604  11.638  0.2400 -0.8197  0.1448
 4483TIP3    H234941   3.724   6.753  11.633 -0.6533 -0.9940 -0.6667
 4484TIP3   OH234942   5.996   2.529   5.926  0.2083 -0.0460 -0.3551
 4484TIP3    H134943   6.084   2.566   5.929  0.1853 -0.0438  2.4871
 4484TIP3    H234944   5.952   2.579   5.857  1.3121  2.6853  0.7556
 4485TIP3   OH234945   6.508   4.409  16.644  0.2806 -0.6110  0.1345
 4485TIP3    H134946   6.563   4.332  16.628 -0.7096 -0.9758 -1.8088
 4485TIP3    H234947   6.419   4.377  16.634 -0.2440  0.3619  1.4259
 4486TIP3   OH234948   6.299   6.677  15.126  0.4256  0.0288  0.3670
 4486TIP3    H134949   6.357   6.603  15.111  0.3274 -0.5058  2.3257
 4486TIP3    H234950   6.264   6.698  15.040  3.1619  0.1008 -0.8077
 4487TIP3   OH234951   1.265   2.086  12.777  0.1139 -0.3413  0.7034
 4487TIP3    H134952   1.266   2.175  12.742  2.0613  0.5417  2.8087
 4487TIP3    H234953   1.227   2.034  12.706  1.3959  1.7113 -1.6771
 4488TIP3   OH234954   5.584   0.209   0.222 -0.4454  0.3435 -0.0526
 4488TIP3    H134955   5.651   0.277   0.228 -1.4347  1.3200  0.1897
 4488TIP3    H234956   5.502   0.257   0.208 -1.0113 -0.8573 -1.0397
 4489TIP3   OH234957   5.605   1.619   1.570  0.0156  0.2925 -0.4327
 4489TIP3    H134958   5.524   1.575   1.546 -1.2681  1.2428  1.9064
 4489TIP3    H234959   5.589   1.656   1.656  2.6245  1.3615 -0.2917
 4490TIP3   OH234960   1.149   1.195   4.014 -0.2315  0.3260  0.1598
 4490TIP3    H134961   1.107   1.152   3.940  0.3006  0.8441 -0.4518
 4490TIP3    H234962   1.083   1.192   4.084 -0.5686 -0.5729 -0.1826
 4491TIP3   OH234963   2.212   3.728   2.727  0.0498  0.2403 -0.0622
 4491TIP3    H134964   2.304   3.751   2.711  0.0465 -1.0630 -2.4266
 4491TIP3    H234965   2.192   3.663   2.660 -2.6966  0.6817  0.2276
 4492TIP3   OH234966   5.766   3.866   4.691  0.3942 -0.0147  0.0427
 4492TIP3    H134967   5.732   3.803   4.755  1.5568  0.1005  0.7988
 4492TIP3    H234968   5.710   3.854   4.614  0.0511 -1.3673  0.4700
 4493TIP3   OH234969   4.016   4.234   5.728 -0.1771  0.0213  0.5916
 4493TIP3    H134970   3.988   4.143   5.713  0.9984 -0.0792 -1.2938
 4493TIP3    H234971   4.008   4.245   5.823  0.4717 -2.3404  1.0060
 4494TIP3   OH234972   2.869   0.225  16.307  0.4920  0.9447  0.1627
 4494TIP3    H134973   2.875   0.198  16.215  1.4919 -1.2487  0.8060
 4494TIP3    H234974   2.950   0.194  16.347 -0.3970  0.8754  2.0190
 4495TIP3   OH234975   0.384   4.524  13.382 -0.1856  1.0538 -0.0471
 4495TIP3    H134976   0.475   4.510  13.355  0.0788 -0.1567  1.3462
 4495TIP3    H234977   0.342   4.562  13.305  0.5947 -1.7830 -2.0465
 4496TIP3   OH234978   2.606   6.303   5.778 -0.3711  0.3316  0.0360
 4496TIP3    H134979   2.582   6.320   5.869  0.7738 -2.3010  0.9533
 4496TIP3    H234980   2.535   6.247   5.745  1.2592 -2.3685  0.8107
 4497TIP3   OH234981   0.280   0.442   5.081 -0.2687  0.1962  0.3105
 4497TIP3    H134982   0.360   0.410   5.123 -0.0092 -1.6985 -1.4668
 4497TIP3    H234983   0.292   0.536   5.075  0.8096  0.2262  2.0790
 4498TIP3   OH234984   3.421   4.161   0.561  0.2750 -0.4047  0.1272
 4498TIP3    H134985   3.341   4.204   0.531 -1.0636 -2.3524  0.7499
 4498TIP3    H234986   3.416   4.166   0.656  1.1614 -0.1169  0.1674
 4499TIP3   OH234987   4.043   4.520  10.585 -0.0948 -0.3002 -0.2443
 4499TIP3    H134988   4.092   4.507  10.504 -0.7143 -1.0797 -0.5124
 4499TIP3    H234989   4.004   4.607  10.577 -1.5821 -1.0412 -1.5861
 4500TIP3   OH234990   3.373   4.066   4.697 -0.4682  0.6207 -0.6519
 4500TIP3    H134991   3.342   4.143   4.745  1.2034 -0.4567  2.3730
 4500TIP3    H234992   3.313   3.996   4.722  1.2766 -0.2970  1.2076
 4501TIP3   OH234993   1.058   2.579  10.955 -0.2597 -0.6149  0.2810
 4501TIP3    H134994   1.144   2.613  10.981  0.8238 -0.5257 -2.9595
 4501TIP3    H234995   1.065   2.484  10.965 -0.9908 -0.4675  3.0257
 4502TIP3   OH234996   1.300   1.080  15.379 -0.4420 -0.4714 -0.2829
 4502TIP3    H134997   1.274   1.021  15.449 -3.0519  0.5376 -0.2589
 4502TIP3    H234998   1.279   1.033  15.299  0.2153 -0.6895 -0.3254
 4503TIP3   OH234999   2.877   6.481   2.495 -0.0395  0.3464 -0.2387
 4503TIP3    H135000   2.903   6.401   2.450  1.0458  1.3048 -1.3767
 4503TIP3    H235001   2.829   6.531   2.429  0.2895  1.1326  0.1173
 4504TIP3   OH235002   3.267   5.349   2.122 -0.4786 -0.0832 -0.1874
 4504TIP3    H135003   3.248   5.277   2.182  2.4297 -0.0409  0.9581
 4504TIP3    H235004   3.343   5.320   2.073  0.6610  2.0718  0.1626
 4505TIP3   OH235005   4.154   0.144   6.806  0.0885 -0.0697  0.1640
 4505TIP3    H135006   4.204   0.146   6.724  1.1918  0.1001  0.8252
 4505TIP3    H235007   4.185   0.065   6.851  0.1852  0.3470  0.8416
 4506TIP3   OH235008   6.202   0.231   1.700  0.3025  0.4489 -0.1417
 4506TIP3    H135009   6.290   0.192   1.706 -0.4826 -1.1738  2.0173
 4506TIP3    H235010   6.152   0.168   1.649 -0.4209 -0.3737  1.5099
 4507TIP3   OH235011   6.286   5.975  12.786 -0.6167  0.3727  0.2261
 4507TIP3    H135012   6.229   5.952  12.860  0.7178 -2.5021  0.4847
 4507TIP3    H235013   6.357   6.026  12.826 -0.0739 -0.8847  0.9243
 4508TIP3   OH235014   4.999   0.843   3.074 -0.0076 -0.0299  0.1361
 4508TIP3    H135015   4.908   0.819   3.056 -0.0414 -0.3298  0.6911
 4508TIP3    H235016   5.048   0.762   3.064  0.0561 -0.0769  0.7697
 4509TIP3   OH235017   2.715   3.971  16.183 -0.7519 -0.0577 -0.3352
 4509TIP3    H135018   2.727   3.878  16.165 -1.2756 -0.1995  0.0135
 4509TIP3    H235019   2.765   3.986  16.263 -0.4142  0.0315 -0.5613
 4510TIP3   OH235020   4.433   1.404  15.384 -0.1070  0.5039  0.0975
 4510TIP3    H135021   4.433   1.499  15.394  2.3498  0.5053  0.6508
 4510TIP3    H235022   4.494   1.387  15.312  1.4271 -0.7268  1.6125
 4511TIP3   OH235023   3.250   0.369  12.097 -0.2440 -0.1896  0.4371
 4511TIP3    H135024   3.273   0.301  12.161 -0.8077  0.3818  1.2721
 4511TIP3    H235025   3.293   0.342  12.016  0.1284 -1.1622  0.9466
 4512TIP3   OH235026   0.620   3.955   0.911 -0.2309  0.5273  0.3560
 4512TIP3    H135027   0.642   3.862   0.905  0.2488  0.6166  0.5998
 4512TIP3    H235028   0.692   4.000   0.867 -0.2458  0.8000  0.5993
 4513TIP3   OH235029   1.495   6.382   0.287 -0.1197 -0.3638  0.5703
 4513TIP3    H135030   1.440   6.309   0.258 -0.5772 -0.1317  0.8390
 4513TIP3    H235031   1.533   6.417   0.207 -0.2875 -0.5915  0.3909
 4514TIP3   OH235032   2.114   2.811   0.779 -0.1465  1.1314  0.2130
 4514TIP3    H135033   2.206   2.818   0.753  0.3385  0.1360  1.5373
 4514TIP3    H235034   2.108   2.727   0.824 -1.9650  0.6447 -0.7875
 4515TIP3   OH235035   1.628   4.414  14.204 -0.2900  0.5479 -0.0275
 4515TIP3    H135036   1.577   4.426  14.124  0.4599  0.1130 -0.5832
 4515TIP3    H235037   1.673   4.498  14.216  1.1761 -0.0086 -1.2177
 4516TIP3   OH235038   1.776   0.694   4.654  0.5807  0.1257 -0.2274
 4516TIP3    H135039   1.861   0.686   4.610  0.6685  0.5064 -0.1342
 4516TIP3    H235040   1.748   0.783   4.635  0.7136  0.3616  0.6468
 4517TIP3   OH235041   5.928   6.055   3.665 -0.8568  0.1782 -0.2326
 4517TIP3    H135042   5.934   5.982   3.603 -0.3536 -1.1683  1.3391
 4517TIP3    H235043   6.007   6.106   3.651 -1.4178  0.7077 -1.6438
 4518TIP3   OH235044   2.822   3.516  15.433  0.3976 -0.2493 -0.4737
 4518TIP3    H135045   2.914   3.544  15.438  0.7878 -1.6564  0.9682
 4518TIP3    H235046   2.784   3.544  15.517 -0.5956  0.5567 -1.1635
 4519TIP3   OH235047   6.650   5.085   3.918 -0.0414  0.0125 -0.3102
 4519TIP3    H135048   6.593   5.015   3.885 -0.0609 -1.0028  1.6885
 4519TIP3    H235049   6.590   5.155   3.943  0.0790  1.5752 -3.8859
 4520TIP3   OH235050   2.362   2.634  16.091 -0.7339 -0.3069 -0.0126
 4520TIP3    H135051   2.322   2.622  16.005 -0.1094  0.5043 -0.4369
 4520TIP3    H235052   2.290   2.623  16.153 -1.4320  0.2283 -0.7055
 4521TIP3   OH235053   2.536   1.206  12.633 -0.7667  0.0547 -0.4583
 4521TIP3    H135054   2.544   1.300  12.616 -0.1783  0.1135  0.0805
 4521TIP3    H235055   2.447   1.183  12.606 -0.8358  0.7209 -0.8032
 4522TIP3   OH235056   1.858   3.198  11.537  0.2895 -0.1805  0.1043
 4522TIP3    H135057   1.912   3.127  11.503 -1.2500 -1.4532  0.2246
 4522TIP3    H235058   1.834   3.249  11.459  0.3805 -0.5268 -0.1544
 4523TIP3   OH235059   0.521   0.774  13.992  0.0676  0.1718  0.0975
 4523TIP3    H135060   0.592   0.748  14.050 -0.0920  1.7805  1.0815
 4523TIP3    H235061   0.454   0.707  14.005 -0.2535  0.8464  2.3516
 4524TIP3   OH235062   0.859   3.368  13.177 -0.3509 -0.2777 -0.3498
 4524TIP3    H135063   0.837   3.277  13.199 -1.4413  0.1662  0.4782
 4524TIP3    H235064   0.857   3.414  13.260  0.3315  0.4916 -0.7443
 4525TIP3   OH235065   6.200   4.031  13.241 -0.4000  0.9928 -0.2353
 4525TIP3    H135066   6.250   3.949  13.247 -0.2101  1.1328  0.1136
 4525TIP3    H235067   6.112   4.003  13.214 -1.0987  0.3617  2.3664
 4526TIP3   OH235068   4.878   2.806  13.527 -0.5778 -1.0827  0.2723
 4526TIP3    H135069   4.938   2.860  13.578 -1.4292  0.7857 -0.5932
 4526TIP3    H235070   4.849   2.738  13.588 -1.3262  0.8818  2.2327
 4527TIP3   OH235071   0.782   0.528   3.557  0.6108 -0.1776  0.4118
 4527TIP3    H135072   0.699   0.527   3.604  1.2675  0.7100  1.6328
 4527TIP3    H235073   0.809   0.620   3.557  2.2003 -0.6000  1.1966
 4528TIP3   OH235074   1.215   4.888   3.483 -0.2336  0.0934 -0.0233
 4528TIP3    H135075   1.226   4.944   3.559 -0.8528 -0.2004  0.2871
 4528TIP3    H235076   1.140   4.925   3.436 -1.8177 -1.4710  1.1281
 4529TIP3   OH235077   4.540   4.185  13.512 -0.4890  0.0723  0.3157
 4529TIP3    H135078   4.599   4.230  13.574  0.4066 -0.9257  0.2135
 4529TIP3    H235079   4.514   4.105  13.558 -0.8400 -0.0526 -0.1031
 4530TIP3   OH235080   5.413   5.369   4.145  0.3730 -0.1485 -0.6052
 4530TIP3    H135081   5.363   5.437   4.101  0.6858 -0.2998 -1.2049
 4530TIP3    H235082   5.388   5.288   4.101  0.8861 -0.2678 -0.6833
 4531TIP3   OH235083   5.550   0.652  15.221 -0.1692 -0.4789  0.1846
 4531TIP3    H135084   5.593   0.689  15.145  0.2373 -0.7037  0.3002
 4531TIP3    H235085   5.614   0.661  15.292  0.4295 -2.4594 -0.0452
 4532TIP3   OH235086   6.618   2.311  16.748 -0.1577  0.0747  0.3442
 4532TIP3    H135087   6.612   2.343  16.658 -0.0117  1.2742  0.7400
 4532TIP3    H235088   6.528   2.292  16.773 -0.1038 -1.2058 -0.3669
 4533TIP3   OH235089   3.976   0.811  11.767 -0.5768 -0.3536 -0.7380
 4533TIP3    H135090   4.007   0.757  11.695 -0.6673  0.7441 -1.6285
 4533TIP3    H235091   3.920   0.877  11.726 -0.9250  0.0771  0.3763
 4534TIP3   OH235092   3.838   4.116   1.981 -0.2330  0.6656  0.3516
 4534TIP3    H135093   3.786   4.065   2.043 -0.0520  2.1113  1.7529
 4534TIP3    H235094   3.927   4.080   1.989 -0.1795  0.9470  1.0527
 4535TIP3   OH235095   4.210   5.607   2.957  0.2997 -0.6427 -0.1051
 4535TIP3    H135096   4.300   5.627   2.933  0.2608 -0.2447  0.0674
 4535TIP3    H235097   4.166   5.692   2.957  0.1002 -0.7376  0.5523
 4536TIP3   OH235098   0.432   4.974   2.498 -0.3085 -0.2605  0.1831
 4536TIP3    H135099   0.479   4.923   2.432 -0.2541  1.8673 -1.5347
 4536TIP3    H235100   0.494   5.042   2.524 -0.8189 -0.2520  1.4422
 4537TIP3   OH235101   0.536   1.214  15.778 -0.7313 -0.1428  0.4901
 4537TIP3    H135102   0.609   1.276  15.784  0.7694 -1.8746  1.0433
 4537TIP3    H235103   0.558   1.158  15.703 -1.2224 -0.9899  0.9591
 4538TIP3   OH235104   5.435   4.720   0.419  0.9235 -0.1306  0.5204
 4538TIP3    H135105   5.429   4.747   0.327  2.1183  0.8530  0.7052
 4538TIP3    H235106   5.354   4.751   0.459  0.6142 -0.1385 -0.0963
 4539TIP3   OH235107   2.837   4.450  16.865 -0.0090 -0.7871  0.1508
 4539TIP3    H135108   2.830   4.438  16.770 -3.9421 -0.3719  0.2340
 4539TIP3    H235109   2.809   4.540  16.880 -1.4123 -1.4540  1.8092
 4540TIP3   OH235110   4.153   2.295   1.211  0.1055 -0.7416 -0.2457
 4540TIP3    H135111   4.143   2.245   1.292 -0.5101 -0.9997 -0.4702
 4540TIP3    H235112   4.112   2.241   1.144 -0.0310 -0.2111 -0.6040
 4541TIP3   OH235113   2.352   6.006   2.319  0.5936 -0.3315 -0.0846
 4541TIP3    H135114   2.421   6.027   2.382 -0.5650  0.4588  0.9688
 4541TIP3    H235115   2.303   5.935   2.361 -0.4586  0.5072  0.1376
 4542TIP3   OH235116   6.148   0.181   3.455  0.1065  0.3675 -0.1148
 4542TIP3    H135117   6.133   0.148   3.544 -1.2141  0.2652 -0.3570
 4542TIP3    H235118   6.066   0.164   3.409  0.2333  1.8024 -0.9308
 4543TIP3   OH235119   2.453   4.816   3.419  0.6204  0.0754 -0.1444
 4543TIP3    H135120   2.470   4.722   3.416  0.9355  0.1549 -1.9817
 4543TIP3    H235121   2.453   4.844   3.328  0.4784  1.8635  0.3520
 4544TIP3   OH235122   5.672   4.846   3.153  0.0411 -0.2115 -0.0478
 4544TIP3    H135123   5.685   4.919   3.092 -0.3606  0.5513  0.7674
 4544TIP3    H235124   5.578   4.835   3.157  0.0150  0.3325  1.1081
 4545TIP3   OH235125   1.803   6.239   0.166  0.2732  0.7136  0.2583
 4545TIP3    H135126   1.751   6.204   0.093  2.6219  0.8479 -1.6258
 4545TIP3    H235127   1.758   6.319   0.191 -0.8568  0.4345 -0.7626
 4546TIP3   OH235128   4.344   5.609  15.952 -0.9675 -0.4200 -0.0698
 4546TIP3    H135129   4.321   5.549  16.024  0.4425 -0.2888  0.5312
 4546TIP3    H235130   4.273   5.600  15.889 -0.7992 -2.7688 -0.0165
 4547TIP3   OH235131   6.656   4.460  12.198 -0.2149  0.0249 -0.2514
 4547TIP3    H135132   6.715   4.531  12.224 -0.7081 -0.0703  1.2318
 4547TIP3    H235133   6.715   4.388  12.175  0.2698  0.5053 -0.5482
 4548TIP3   OH235134   4.044   2.593   3.836  0.0320 -0.2958  0.0169
 4548TIP3    H135135   4.019   2.642   3.915  1.8459  0.8648 -0.0689
 4548TIP3    H235136   4.103   2.652   3.789 -0.0727 -1.4350 -1.6208
 4549TIP3   OH235137   0.613   0.454   1.869 -0.0337  0.2365  0.1683
 4549TIP3    H135138   0.594   0.426   1.958  1.1271 -0.3498  0.2490
 4549TIP3    H235139   0.686   0.516   1.878 -2.1437  2.9360 -0.0668
 4550TIP3   OH235140   3.216   3.218  15.112  0.2671 -0.3380 -0.1326
 4550TIP3    H135141   3.200   3.240  15.020 -3.1051  0.1824  0.4580
 4550TIP3    H235142   3.283   3.280  15.139  0.0545  0.6995 -1.8002
 4551TIP3   OH235143   1.618   3.191   1.644  0.6169  0.3663  0.0900
 4551TIP3    H135144   1.661   3.277   1.646 -0.0734  0.7224  0.1911
 4551TIP3    H235145   1.610   3.171   1.551 -0.2773  0.9763  0.0192
 4552TIP3   OH235146   1.658   2.695   0.643  0.4452 -0.5439 -0.0823
 4552TIP3    H135147   1.676   2.601   0.638  0.8426 -0.4387 -0.6995
 4552TIP3    H235148   1.580   2.707   0.588  0.8939 -0.3885 -0.6921
 4553TIP3   OH235149   0.524   3.143   2.709 -0.3673 -0.1676  0.7123
 4553TIP3    H135150   0.445   3.111   2.665  1.0147 -1.0591 -1.2959
 4553TIP3    H235151   0.544   3.225   2.664 -1.0743  0.9811  2.4050
 4554TIP3   OH235152   4.256   0.447   4.546  0.0586  0.2103 -0.8150
 4554TIP3    H135153   4.219   0.508   4.482 -1.6262 -0.0756 -0.1473
 4554TIP3    H235154   4.194   0.446   4.618  0.0827 -2.1730 -0.7251
 4555TIP3   OH235155   4.260   2.727   3.409  0.2355  0.3281 -0.4603
 4555TIP3    H135156   4.250   2.739   3.503 -1.4531 -0.3257 -0.5196
 4555TIP3    H235157   4.342   2.678   3.399 -0.1000 -0.4971  0.7429
 4556TIP3   OH235158   2.224   4.554  13.694  0.2385  0.2466  0.2989
 4556TIP3    H135159   2.258   4.468  13.667 -0.2265  0.3687 -0.6893
 4556TIP3    H235160   2.284   4.617  13.654 -0.4875  0.4311 -0.5083
 4557TIP3   OH235161   5.179   5.512   5.192 -0.0518 -0.4098 -0.0748
 4557TIP3    H135162   5.122   5.551   5.257 -0.7906 -1.4255 -0.0877
 4557TIP3    H235163   5.265   5.551   5.209 -0.4106 -0.0282  0.9463
 4558TIP3   OH235164   2.855   4.082  16.392 -0.2739  0.3001  0.1357
 4558TIP3    H135165   2.930   4.112  16.341  0.7683 -1.4915  0.5059
 4558TIP3    H235166   2.879   4.098  16.483  0.3315 -1.5604  0.3436
 4559TIP3   OH235167   4.408   1.916  12.635  0.1180 -0.0327  0.4731
 4559TIP3    H135168   4.374   1.948  12.718 -0.6549 -0.0411  0.1680
 4559TIP3    H235169   4.349   1.953  12.569  1.3676  0.8794 -0.1661
 4560TIP3   OH235170   6.624   4.916   5.888  0.3059  0.1237  0.3531
 4560TIP3    H135171   6.679   4.860   5.944 -0.6217 -0.9243  0.2353
 4560TIP3    H235172   6.628   5.002   5.931  1.0824 -0.2137  1.0041
 4561TIP3   OH235173   2.918   3.223  13.209  0.2326 -0.0371  0.0407
 4561TIP3    H135174   2.964   3.307  13.219  0.2826 -0.1330  0.6738
 4561TIP3    H235175   2.930   3.180  13.293  0.5026 -0.8371 -0.4039
 4562TIP3   OH235176   4.708   2.165  13.206 -0.0077 -0.1967 -0.1162
 4562TIP3    H135177   4.780   2.219  13.173  0.3985 -0.1302  0.8348
 4562TIP3    H235178   4.680   2.209  13.287 -0.9392 -0.3766 -0.3239
 4563TIP3   OH235179   0.010   5.536  14.206 -0.1334 -0.1642 -0.1973
 4563TIP3    H135180  -0.037   5.478  14.267 -0.0047 -0.1036 -0.0415
 4563TIP3    H235181   0.077   5.480  14.166  0.9463  0.2090  1.0119
 4564TIP3   OH235182   6.531   4.980   5.073 -0.6369  0.5896 -0.2794
 4564TIP3    H135183   6.555   4.909   5.133  1.3870  2.2653  1.0410
 4564TIP3    H235184   6.464   4.942   5.017 -1.0345 -1.7498  1.6152
 4565TIP3   OH235185   3.076   1.672   6.207 -0.4350  0.5534  0.0511
 4565TIP3    H135186   3.031   1.727   6.271  1.0882  1.8379  0.0879
 4565TIP3    H235187   3.065   1.582   6.240  2.4317  1.3008  3.6414
 4566TIP3   OH235188   0.853   5.903  12.714 -0.1114  0.1717  0.2829
 4566TIP3    H135189   0.805   5.981  12.687 -0.3030 -0.4663 -1.3574
 4566TIP3    H235190   0.800   5.830  12.680 -0.0286 -0.6950  1.9129
 4567TIP3   OH235191   3.214   2.263  12.364 -0.0666 -0.4190  0.4001
 4567TIP3    H135192   3.293   2.219  12.396 -1.0328 -2.2667  0.4002
 4567TIP3    H235193   3.190   2.324  12.434  1.1317 -0.1137  0.5588
 4568TIP3   OH235194   5.095   0.394   1.922 -0.2783 -0.8083 -0.8764
 4568TIP3    H135195   5.090   0.487   1.898 -0.7806  0.1701  2.5113
 4568TIP3    H235196   5.164   0.389   1.988  0.2780 -3.0401 -1.5380
 4569TIP3   OH235197   2.979   4.279  13.465  0.0180 -0.2068  0.0288
 4569TIP3    H135198   2.952   4.338  13.535 -0.1333  0.6663 -0.7480
 4569TIP3    H235199   3.070   4.258  13.485 -0.9506 -2.7732  2.3903
 4570TIP3   OH235200   1.984   5.407   2.608 -0.1022 -0.3338  0.5135
 4570TIP3    H135201   2.060   5.465   2.611  0.3939 -0.9937  1.3805
 4570TIP3    H235202   1.928   5.444   2.540  0.0290  1.3461  1.2592
 4571TIP3   OH235203   5.594   6.795  13.081 -0.4422  0.3185  0.2535
 4571TIP3    H135204   5.550   6.742  13.148 -2.2119  1.8523  0.3924
 4571TIP3    H235205   5.555   6.882  13.090  0.0726  0.8515 -2.0463
 4572TIP3   OH235206   5.464   2.918   1.185  0.2875 -0.2270  0.2228
 4572TIP3    H135207   5.475   2.905   1.279  0.1582 -0.6113  0.1861
 4572TIP3    H235208   5.543   2.964   1.158  0.1490  0.2364  0.5878
 4573TIP3   OH235209   2.766   2.139   6.374 -0.4411  0.3115  0.1949
 4573TIP3    H135210   2.811   2.193   6.439  0.6016  0.5539 -0.6890
 4573TIP3    H235211   2.675   2.167   6.378  0.0452  2.1079 -0.1756
 4574TIP3   OH235212   2.739   2.485  16.062 -0.2542 -0.2901  0.3802
 4574TIP3    H135213   2.648   2.486  16.035 -0.5555 -2.4134  1.1329
 4574TIP3    H235214   2.739   2.440  16.147  1.5257 -0.6836  0.2171
 4575TIP3   OH235215   3.412   4.470  13.432 -0.5522  0.7542 -0.3075
 4575TIP3    H135216   3.499   4.450  13.396  0.3484  1.6547  1.2636
 4575TIP3    H235217   3.358   4.487  13.355 -0.5156 -3.8773 -1.6533
 4576TIP3   OH235218   2.649   4.912   4.156  0.2617  0.7944 -0.0396
 4576TIP3    H135219   2.629   5.005   4.170 -0.0931  0.9038 -1.1478
 4576TIP3    H235220   2.593   4.887   4.082 -1.5761 -0.9840  1.8330
 4577TIP3   OH235221   5.456   0.951   6.534  0.1817 -0.3649  0.2960
 4577TIP3    H135222   5.405   0.912   6.463 -0.6354 -0.7359  1.0619
 4577TIP3    H235223   5.497   0.877   6.579  0.2729 -0.1838  0.5143
 4578TIP3   OH235224   0.739   3.375  16.252 -0.1940  0.3231 -0.1087
 4578TIP3    H135225   0.689   3.450  16.218 -0.1059  1.2880  1.7778
 4578TIP3    H235226   0.830   3.405  16.252  0.0773 -0.4331 -0.9180
 4579TIP3   OH235227   4.559   3.185  13.618 -0.1568 -0.5941 -0.2175
 4579TIP3    H135228   4.498   3.142  13.558  1.4112 -1.6406 -1.1584
 4579TIP3    H235229   4.628   3.120  13.632  2.0433  1.3668 -1.2222
 4580TIP3   OH235230   6.066   3.421  15.072  0.4880 -0.2104  0.2387
 4580TIP3    H135231   6.025   3.377  15.146 -0.3319 -0.6402 -0.4622
 4580TIP3    H235232   6.044   3.367  14.996  1.4867  0.1113 -0.3029
 4581TIP3   OH235233   5.033   0.707   1.337 -0.7433  0.1000  0.0869
 4581TIP3    H135234   4.985   0.636   1.294  1.2404 -0.3196 -1.6129
 4581TIP3    H235235   5.048   0.676   1.426 -1.0910 -1.0245 -0.2336
 4582TIP3   OH235236   6.025   6.625   5.287  0.3230  0.5948 -0.4254
 4582TIP3    H135237   5.980   6.579   5.357  0.7643  1.4898  0.4718
 4582TIP3    H235238   6.063   6.556   5.233 -0.1153 -0.1040  0.1542
 4583TIP3   OH235239   3.209   3.954   4.405  0.3293  0.3192  0.1315
 4583TIP3    H135240   3.126   3.948   4.452 -0.8675  1.6767 -1.6493
 4583TIP3    H235241   3.189   3.921   4.317  1.9363 -0.1917 -0.0738
 4584TIP3   OH235242   6.195   6.379   0.419  0.3454  0.9627  0.4739
 4584TIP3    H135243   6.192   6.420   0.505 -0.6882 -0.2821  1.0678
 4584TIP3    H235244   6.137   6.303   0.427  0.9818  0.2879 -1.0395
 4585TIP3   OH235245   5.762   2.234   1.873  0.7209  0.3183  0.0131
 4585TIP3    H135246   5.762   2.185   1.791  0.0553  0.3179  0.0046
 4585TIP3    H235247   5.670   2.258   1.886  0.8902  0.7021  0.5293
 4586TIP3   OH235248   1.395   3.424  12.093 -0.4819 -0.3636 -0.6391
 4586TIP3    H135249   1.457   3.496  12.085  0.0564 -0.8267 -0.7067
 4586TIP3    H235250   1.376   3.420  12.187 -0.6230 -0.0441 -0.6538
 4587TIP3   OH235251   6.413   4.733   4.394 -0.6717  0.4387  0.2775
 4587TIP3    H135252   6.492   4.700   4.350 -0.1192  2.3551 -0.2806
 4587TIP3    H235253   6.420   4.828   4.386 -3.5488  0.6608 -0.6718
 4588TIP3   OH235254   4.395   2.239  16.085 -0.1918  0.4383 -0.7211
 4588TIP3    H135255   4.303   2.245  16.113 -0.0850  0.7471 -0.4278
 4588TIP3    H235256   4.400   2.156  16.037 -0.2338 -0.4496  0.7460
 4589TIP3   OH235257   4.442   1.342  12.252  0.4501  0.2357  0.1079
 4589TIP3    H135258   4.414   1.381  12.334  1.2665  0.6027  0.2262
 4589TIP3    H235259   4.365   1.347  12.195  0.2519  1.1388  0.4404
 4590TIP3   OH235260   2.557   2.509  15.852  0.2611  0.1233  0.0285
 4590TIP3    H135261   2.466   2.538  15.847  0.1626  0.4264  2.4724
 4590TIP3    H235262   2.603   2.561  15.786 -1.1340  0.7401 -0.4945
 4591TIP3   OH235263   0.267   5.582  10.285 -0.6594  0.3299 -0.5432
 4591TIP3    H135264   0.261   5.670  10.322  0.5619 -0.2038  0.9827
 4591TIP3    H235265   0.349   5.581  10.236  0.3470 -0.5385  1.1068
 4592TIP3   OH235266   3.697   4.574   2.725  0.1352  0.0374 -0.0492
 4592TIP3    H135267   3.675   4.646   2.784  2.3479  0.2300  0.6476
 4592TIP3    H235268   3.727   4.504   2.782 -0.0512 -0.6982 -0.8285
 4593TIP3   OH235269   4.137   3.127   0.809 -0.2333  0.3589  0.0527
 4593TIP3    H135270   4.077   3.059   0.778  0.1029 -1.1018  2.4040
 4593TIP3    H235271   4.205   3.080   0.858 -0.2090  2.3575  2.1205
 4594TIP3   OH235272   3.023   0.041   1.398 -0.0167 -0.2105  0.5633
 4594TIP3    H135273   3.021   0.122   1.346 -0.9409  0.3849  1.4948
 4594TIP3    H235274   3.013   0.070   1.488  1.2901 -1.2596  1.0901
 4595TIP3   OH235275   3.469   2.326  15.514  0.4306 -0.0461 -0.5499
 4595TIP3    H135276   3.440   2.276  15.438  0.4880 -0.5709 -0.2323
 4595TIP3    H235277   3.563   2.341  15.499  0.8194 -1.4927  0.1203
 4596TIP3   OH235278   4.585   0.294   3.037 -0.3046 -1.0014 -0.2655
 4596TIP3    H135279   4.520   0.360   3.060 -0.1695 -0.7805 -0.5091
 4596TIP3    H235280   4.629   0.273   3.119  0.6700  0.3081 -0.4137
 4597TIP3   OH235281   0.268   0.728   1.248 -0.4584 -0.2680  0.3035
 4597TIP3    H135282   0.174   0.713   1.254 -1.4526  4.8338  2.0742
 4597TIP3    H235283   0.298   0.734   1.339  0.5891  2.2327 -0.1165
 4598TIP3   OH235284   4.291   4.549  15.405 -0.6170  0.0428  0.4719
 4598TIP3    H135285   4.289   4.522  15.497  0.1625  0.5687  0.6511
 4598TIP3    H235286   4.207   4.592  15.391  0.0443  1.7812  1.5223
 4599TIP3   OH235287   0.014   0.179  12.256 -0.4294  0.5642 -0.3338
 4599TIP3    H135288   0.041   0.101  12.209  2.3146  0.9197  0.4995
 4599TIP3    H235289  -0.046   0.147  12.323  1.4691 -1.0401  0.6967
 4600TIP3   OH235290   5.130   3.594  15.623 -0.4106 -0.3639 -0.0585
 4600TIP3    H135291   5.219   3.565  15.643  0.4810  1.7881 -0.6095
 4600TIP3    H235292   5.124   3.590  15.528 -0.6185  0.2335 -0.0726
 4601TIP3   OH235293   5.976   2.170  12.966  0.3085 -0.5355 -0.6396
 4601TIP3    H135294   5.902   2.193  13.023 -0.8796 -2.8723 -1.1188
 4601TIP3    H235295   5.962   2.221  12.886 -0.8799 -1.0161 -0.7591
 4602TIP3   OH235296   5.462   6.260   5.352 -1.8012 -0.1277  0.0348
 4602TIP3    H135297   5.469   6.169   5.382  1.9646  0.2280  0.7719
 4602TIP3    H235298   5.488   6.257   5.260 -2.8127  0.0915 -0.2672
 4603TIP3   OH235299   3.428   4.143  15.333  0.1670  0.3040 -0.1786
 4603TIP3    H135300   3.430   4.076  15.265  0.3306  0.8435 -0.7089
 4603TIP3    H235301   3.507   4.126  15.385 -1.3095 -1.8250  1.5851
 4604TIP3   OH235302   5.761   5.469   2.216 -0.7875 -0.2136  0.0252
 4604TIP3    H135303   5.714   5.386   2.222  2.0484 -1.9440  0.1845
 4604TIP3    H235304   5.736   5.505   2.131 -2.5412 -0.8607  0.2210
 4605TIP3   OH235305   1.526   3.476   4.375 -0.7686 -0.4715 -0.2920
 4605TIP3    H135306   1.463   3.470   4.303 -0.9785  1.3814 -0.3163
 4605TIP3    H235307   1.488   3.540   4.435  2.3743  3.2036 -1.7928
 4606TIP3   OH235308   4.053   5.856   4.923  0.6758  0.2472  0.2299
 4606TIP3    H135309   4.059   5.951   4.934  1.2700  0.5802 -2.3622
 4606TIP3    H235310   4.019   5.844   4.834 -2.7664 -1.9819  1.6338
 4607TIP3   OH235311   1.533   2.353  17.040 -0.5540 -0.0563  0.2747
 4607TIP3    H135312   1.451   2.306  17.056 -0.4328 -0.7732 -1.0813
 4607TIP3    H235313   1.506   2.438  17.006 -0.7463 -0.3908 -0.4267
 4608TIP3   OH235314   3.436   4.615  12.642  0.0103 -0.4432  0.0908
 4608TIP3    H135315   3.476   4.701  12.655 -1.3325  0.2240 -0.0034
 4608TIP3    H235316   3.452   4.595  12.549 -0.6343  0.2254 -0.1721
 4609TIP3   OH235317   4.107   3.696   4.412  0.0662 -0.0415  0.3363
 4609TIP3    H135318   4.067   3.779   4.388  2.0371  0.9254  0.1836
 4609TIP3    H235319   4.165   3.717   4.485  0.8116 -1.2083  0.1213
 4610TIP3   OH235320   4.291   2.707  13.467 -0.1906 -0.1591 -0.0682
 4610TIP3    H135321   4.304   2.621  13.507 -0.6034  0.1623  0.7715
 4610TIP3    H235322   4.313   2.694  13.374 -0.4339 -1.2086  0.0130
 4611TIP3   OH235323   5.329   5.518  12.262 -0.2568  0.2463  0.5819
 4611TIP3    H135324   5.319   5.612  12.246 -1.3104 -0.3304 -3.4260
 4611TIP3    H235325   5.423   5.502  12.255 -0.2030  0.8618 -0.3850
 4612TIP3   OH235326   4.919   1.517   0.030 -0.0444  0.1904  0.2018
 4612TIP3    H135327   4.969   1.451   0.079  0.8717 -0.0678 -1.0349
 4612TIP3    H235328   4.881   1.468  -0.043 -1.2678  0.5995  0.5509
 4613TIP3   OH235329   2.367   1.955   3.299 -0.3246  0.5682 -0.1672
 4613TIP3    H135330   2.306   1.880   3.296 -1.2330  1.3005 -0.4857
 4613TIP3    H235331   2.370   1.979   3.392  0.1228  0.0303 -0.0336
 4614TIP3   OH235332   0.280   5.204  13.466 -0.2121 -0.1121  0.4326
 4614TIP3    H135333   0.337   5.196  13.389 -0.4559 -2.6219  0.4334
 4614TIP3    H235334   0.202   5.249  13.434  0.8414  1.4207 -0.0761
 4615TIP3   OH235335   1.720   0.268   0.899 -0.7538  0.2588  0.0660
 4615TIP3    H135336   1.630   0.235   0.903 -1.2602  1.4497  5.1635
 4615TIP3    H235337   1.710   0.362   0.886 -0.3803  0.4842  1.2413
 4616TIP3   OH235338   4.704   4.603  13.159  0.0512  0.0895  0.4689
 4616TIP3    H135339   4.726   4.656  13.235 -0.7201  1.7601 -0.4131
 4616TIP3    H235340   4.786   4.597  13.110  0.3383 -0.2595  0.9783
 4617TIP3   OH235341   2.600   4.218  13.088  0.2831  0.7708  0.5130
 4617TIP3    H135342   2.590   4.160  13.163  0.0963 -0.1460 -0.1900
 4617TIP3    H235343   2.684   4.192  13.049 -0.5131 -0.1296 -0.6881
 4618TIP3   OH235344   2.962   0.843  13.365 -0.3733  0.7654  0.2377
 4618TIP3    H135345   2.880   0.799  13.387  0.2060 -0.5561 -0.2152
 4618TIP3    H235346   3.005   0.857  13.450  1.2771 -3.2012  0.2786
 4619TIP3   OH235347   4.931   0.068  11.540 -0.5300  0.0749  0.4178
 4619TIP3    H135348   4.924   0.071  11.444 -2.2068  0.2823  0.5148
 4619TIP3    H235349   5.017   0.030  11.556 -0.2709 -0.1046 -1.1769
 4620TIP3   OH235350   4.140   1.795   5.645  0.1435  0.0965  0.5566
 4620TIP3    H135351   4.192   1.805   5.566  0.9755 -1.3884  0.8695
 4620TIP3    H235352   4.190   1.841   5.713 -0.5183  1.2808  0.2627
 4621TIP3   OH235353   0.063   3.266  15.000  0.8685  0.1541  0.6240
 4621TIP3    H135354   0.122   3.335  14.969  1.7101  0.2001  2.1844
 4621TIP3    H235355   0.119   3.189  15.008  0.3043 -0.2764  0.4409
 4622TIP3   OH235356   5.872   2.749  13.118  0.0756  0.2016 -0.4302
 4622TIP3    H135357   5.893   2.656  13.129 -1.8517 -0.0697  1.6360
 4622TIP3    H235358   5.953   2.788  13.085  1.5769 -1.8563  0.6280
 4623TIP3   OH235359   6.083   3.641  11.227  0.6708  0.0557  0.2776
 4623TIP3    H135360   6.119   3.705  11.289  0.3292  1.0496 -0.5146
 4623TIP3    H235361   6.160   3.599  11.188  0.8878 -0.9198  1.6816
 4624TIP3   OH235362   5.116   2.788   5.085  0.5492 -0.1382  0.0115
 4624TIP3    H135363   5.208   2.780   5.060  0.5781  1.2794 -0.4589
 4624TIP3    H235364   5.086   2.868   5.040 -1.6474 -1.9663 -2.0597
 4625TIP3   OH235365   2.900   5.919   3.660 -0.2930  0.0030  0.4292
 4625TIP3    H135366   2.973   5.886   3.608 -0.7701 -1.7118  0.8099
 4625TIP3    H235367   2.893   6.011   3.634  1.8042  0.1545  0.1742
 4626TIP3   OH235368   5.606   6.848   0.055  0.1566 -0.0821 -0.0456
 4626TIP3    H135369   5.518   6.812   0.053 -0.0235  0.3593 -0.0413
 4626TIP3    H235370   5.601   6.920   0.118  0.3367  0.4249 -0.6029
 4627TIP3   OH235371   3.163   1.181   0.998  0.4241 -0.2788  0.6855
 4627TIP3    H135372   3.108   1.137   1.063 -0.8647 -0.5095 -0.5127
 4627TIP3    H235373   3.209   1.250   1.047 -1.1367  0.0831  1.6862
 4628TIP3   OH235374   1.213   2.487   1.045  0.1312 -0.3301  0.5080
 4628TIP3    H135375   1.270   2.563   1.031 -0.5666  0.0647 -0.3128
 4628TIP3    H235376   1.262   2.431   1.105  1.7534 -0.3805 -0.7764
 4629TIP3   OH235377   6.359   1.779   1.408  0.1851 -0.2293 -0.3593
 4629TIP3    H135378   6.270   1.789   1.375  0.0904  0.3227  0.0557
 4629TIP3    H235379   6.350   1.781   1.504  0.7423  0.7294 -0.3167
 4630TIP3   OH235380   4.577   4.332  13.768 -0.5234 -0.5570  0.3221
 4630TIP3    H135381   4.654   4.276  13.775 -0.9332 -0.9651  2.0230
 4630TIP3    H235382   4.594   4.404  13.829 -1.2523 -0.3717  0.3207
 4631TIP3   OH235383   5.278   6.557  14.390 -0.9361  0.2176  0.4826
 4631TIP3    H135384   5.223   6.635  14.383 -2.0106 -0.5006  0.7024
 4631TIP3    H235385   5.222   6.492  14.433  0.7278  0.0542  2.5506
 4632TIP3   OH235386   5.861   5.455  11.678  0.2172 -0.2219 -0.1532
 4632TIP3    H135387   5.861   5.527  11.742  0.6090  0.5463 -0.9989
 4632TIP3    H235388   5.785   5.402  11.702  0.6557 -0.2398  1.2701
 4633TIP3   OH235389   5.410   0.961   1.374  0.4481 -0.8529  0.1785
 4633TIP3    H135390   5.318   0.946   1.394  0.7331 -1.7475  0.9009
 4633TIP3    H235391   5.457   0.931   1.452  1.2667  1.1825  0.5397
 4634TIP3   OH235392   1.653   5.745  13.950 -0.0100  0.0592  0.2092
 4634TIP3    H135393   1.740   5.767  13.985  0.2571  0.4733 -0.6798
 4634TIP3    H235394   1.638   5.655  13.978  1.0573 -0.2847 -0.2848
 4635TIP3   OH235395   5.079   0.385  12.402  0.4078  0.1171  0.3980
 4635TIP3    H135396   5.110   0.452  12.341  1.0071 -0.1396  0.4149
 4635TIP3    H235397   5.016   0.430  12.458 -0.2448  0.3263 -0.4886
 4636TIP3   OH235398   2.922   6.188   3.568 -0.0539  0.4956  0.0679
 4636TIP3    H135399   3.014   6.200   3.592  0.1219 -0.3317 -0.1677
 4636TIP3    H235400   2.878   6.266   3.603  0.6327  0.5954  0.7334
 4637TIP3   OH235401   0.001   0.365   5.806  0.2453 -0.4290 -0.3745
 4637TIP3    H135402  -0.067   0.344   5.742 -0.1932  0.6721 -0.2995
 4637TIP3    H235403   0.054   0.433   5.763 -1.3434  1.9467  1.1721
 4638TIP3   OH235404   1.621   3.036   2.115  0.5354 -0.3365 -0.1081
 4638TIP3    H135405   1.622   3.000   2.026  0.3824  0.7353 -0.5648
 4638TIP3    H235406   1.697   3.095   2.117 -0.1476  0.5618  0.0650
 4639TIP3   OH235407   1.333   0.110  11.080 -0.5010 -0.1140  0.2904
 4639TIP3    H135408   1.423   0.138  11.064 -1.0056  1.2388 -0.3318
 4639TIP3    H235409   1.288   0.123  10.997 -2.1579  2.9109  1.4881
 4640TIP3   OH235410   2.117   0.492  14.143  0.1586  0.0763  0.3773
 4640TIP3    H135411   2.199   0.537  14.123 -0.5029  0.9464 -0.4189
 4640TIP3    H235412   2.097   0.518  14.233  0.9719 -0.4989  0.7358
 4641TIP3   OH235413   4.482   0.184  13.406  0.0318  0.7485 -0.3252
 4641TIP3    H135414   4.389   0.168  13.418  0.2025 -0.2689 -0.2671
 4641TIP3    H235415   4.524   0.099  13.424  0.9051  1.0113 -1.0143
 4642TIP3   OH235416   1.947   5.982  12.751  0.2549  0.0903  0.2157
 4642TIP3    H135417   1.855   5.958  12.738  0.2368 -0.9347  1.9968
 4642TIP3    H235418   1.995   5.929  12.687 -0.4082  1.0508 -1.1177
 4643TIP3   OH235419   4.952   1.923  16.100 -0.0065 -0.0737  0.0380
 4643TIP3    H135420   4.948   1.945  16.193 -2.4253  1.1596 -0.2619
 4643TIP3    H235421   4.997   1.839  16.097 -0.6827 -0.5950  2.4106
 4644TIP3   OH235422   6.655   4.067  12.024 -0.1970  1.1347  0.0295
 4644TIP3    H135423   6.635   3.983  11.984 -0.6775  1.2039  0.1180
 4644TIP3    H235424   6.649   4.052  12.118  1.2116  0.9035  0.1081
 4645TIP3   OH235425   3.996   2.899   2.198 -0.1283  0.1809  0.1477
 4645TIP3    H135426   4.026   2.808   2.204 -1.0218 -0.2203 -0.9524
 4645TIP3    H235427   4.020   2.938   2.282  2.1396 -0.4755 -0.1238
 4646TIP3   OH235428   5.658   5.801  12.172  0.0225 -0.4180 -0.0370
 4646TIP3    H135429   5.635   5.721  12.126 -1.3998 -0.4307  0.6371
 4646TIP3    H235430   5.618   5.871  12.120  1.7163 -0.0616 -0.9240
 4647TIP3   OH235431   5.731   4.019  15.214 -0.2524  0.3558  0.2845
 4647TIP3    H135432   5.754   4.107  15.245  0.0324  0.6377 -0.6630
 4647TIP3    H235433   5.636   4.017  15.214 -0.3734  1.6805 -2.2189
 4648TIP3   OH235434   0.412   3.101  11.945 -0.4654  0.6244 -0.0435
 4648TIP3    H135435   0.470   3.028  11.967 -1.2659  0.4779  1.7499
 4648TIP3    H235436   0.461   3.151  11.880  1.2455 -0.0442  0.6609
 4649TIP3   OH235437   1.024   4.342   5.396 -0.6718 -0.4290 -0.2851
 4649TIP3    H135438   0.991   4.253   5.402 -0.5929 -0.7727 -3.1916
 4649TIP3    H235439   0.978   4.380   5.321 -0.6385  1.9744  0.8095
 4650TIP3   OH235440   0.521   6.759  13.367 -0.7800 -0.5164 -0.0468
 4650TIP3    H135441   0.576   6.780  13.291  0.8504 -0.1729  1.1768
 4650TIP3    H235442   0.497   6.844  13.403 -1.8786 -0.6724 -0.3699
 4651TIP3   OH235443   4.514   1.762  10.936 -0.3027 -0.1772 -0.3634
 4651TIP3    H135444   4.593   1.716  10.907 -0.0604  0.2108 -0.3346
 4651TIP3    H235445   4.547   1.832  10.993 -0.6593  0.0616 -0.4461
 4652TIP3   OH235446   1.701   5.658  12.508 -0.3997 -0.0433  0.0785
 4652TIP3    H135447   1.717   5.577  12.556 -1.5765 -0.8117 -0.7653
 4652TIP3    H235448   1.781   5.709  12.520  0.1332 -1.0727  1.1214
 4653TIP3   OH235449   2.578   0.973  16.831  0.0742  0.7907 -0.0427
 4653TIP3    H135450   2.665   1.011  16.842  0.9825 -1.3393  0.5921
 4653TIP3    H235451   2.589   0.905  16.765 -1.4274  1.3614 -0.9322
 4654TIP3   OH235452   1.534   6.000  10.713  0.4387  0.2329 -0.7304
 4654TIP3    H135453   1.455   6.055  10.720 -1.4629 -2.4311  0.3836
 4654TIP3    H235454   1.511   5.935  10.646  1.3983 -1.0104  0.1210
 4655TIP3   OH235455   3.546   6.414  15.913 -0.3124 -0.1892  0.4391
 4655TIP3    H135456   3.555   6.409  15.818  0.4595 -1.8027  0.5539
 4655TIP3    H235457   3.498   6.335  15.937  2.9770 -2.0430  1.6824
 4656TIP3   OH235458   2.255   1.851   0.473 -0.1881  0.5220  0.1420
 4656TIP3    H135459   2.191   1.814   0.534  0.3736 -1.6125 -0.4804
 4656TIP3    H235460   2.283   1.777   0.420  0.8469  1.9308 -1.3745
 4657TIP3   OH235461   1.832   6.131   3.638 -0.6983 -0.2913 -0.3860
 4657TIP3    H135462   1.775   6.074   3.587  0.4348 -0.3951 -1.5799
 4657TIP3    H235463   1.779   6.209   3.655 -1.7535 -1.0806 -0.0123
 4658TIP3   OH235464   0.415   1.435   4.608 -0.1308  0.5379 -0.2750
 4658TIP3    H135465   0.338   1.490   4.590 -1.1732 -1.1688 -1.2711
 4658TIP3    H235466   0.482   1.468   4.549 -1.0282  0.1968 -1.5335
 4659TIP3   OH235467   2.075   5.806   1.435 -0.3299  0.1836 -0.2700
 4659TIP3    H135468   1.999   5.854   1.468  0.5204  1.1064  0.4262
 4659TIP3    H235469   2.080   5.831   1.342 -1.0221 -0.0965 -0.3894
 4660TIP3   OH235470   6.823   0.833  12.952  0.3177 -0.1045  0.1324
 4660TIP3    H135471   6.861   0.803  12.869 -0.7231  0.5565 -0.5973
 4660TIP3    H235472   6.819   0.928  12.943 -0.8346 -0.1108  0.4893
 4661TIP3   OH235473   1.585   1.918  11.695  0.5928 -0.1085 -0.2462
 4661TIP3    H135474   1.637   1.876  11.763  0.8914 -0.6896 -0.8273
 4661TIP3    H235475   1.546   1.846  11.646 -0.3372  0.3101 -0.1516
 4662TIP3   OH235476   5.221   4.079  10.908  0.2957  0.5892  0.9372
 4662TIP3    H135477   5.266   4.138  10.848  1.3558 -0.4241  0.6971
 4662TIP3    H235478   5.177   4.016  10.851  1.6406 -0.6200  1.1772
 4663TIP3   OH235479   3.535   6.213   1.764  0.6726  0.6558  0.0650
 4663TIP3    H135480   3.547   6.305   1.741  0.6814  0.2986 -1.4356
 4663TIP3    H235481   3.534   6.167   1.680 -1.4094 -0.4837  0.6600
 4664TIP3   OH235482   2.869   3.592   1.576  0.2879 -0.3461 -0.7668
 4664TIP3    H135483   2.912   3.654   1.517  0.6452  1.3277  1.1486
 4664TIP3    H235484   2.938   3.533   1.603  0.7538  0.5565  0.0547
 4665TIP3   OH235485   6.291   5.135   6.036 -0.0867 -0.6425  0.5576
 4665TIP3    H135486   6.257   5.109   5.950  1.2805 -0.9158  0.0849
 4665TIP3    H235487   6.386   5.129   6.028  0.0725 -0.6045  2.0777
 4666TIP3   OH235488   5.949   1.040  16.465  0.6841 -0.2483  0.1714
 4666TIP3    H135489   5.938   1.118  16.519  0.4933 -0.9402  1.1587
 4666TIP3    H235490   5.860   1.006  16.454  0.7412 -0.1969 -0.4542
 4667TIP3   OH235491   2.059   0.945   4.090 -0.0727 -0.7378  0.3303
 4667TIP3    H135492   1.986   1.000   4.060  0.5079  0.3701  0.8764
 4667TIP3    H235493   2.137   0.999   4.077  0.5022 -1.3763  1.0402
 4668TIP3   OH235494   2.407   5.364   2.639  0.0490 -0.7498  0.8346
 4668TIP3    H135495   2.427   5.339   2.729  0.6847 -0.1353  0.8778
 4668TIP3    H235496   2.493   5.368   2.596 -0.1690 -0.1503  0.4461
 4669TIP3   OH235497   3.251   3.236  13.285  0.2777 -0.0282 -0.1085
 4669TIP3    H135498   3.178   3.186  13.322  0.9177 -0.4985  0.5377
 4669TIP3    H235499   3.281   3.292  13.357 -0.4484  1.3517 -0.8267
 4670TIP3   OH235500   2.616   5.666   2.379  0.1704  0.0482 -0.0037
 4670TIP3    H135501   2.688   5.723   2.351 -0.1138  0.8077  0.7735
 4670TIP3    H235502   2.657   5.598   2.432  0.3482  0.3413  0.2365
 4671TIP3   OH235503   4.503   5.493   1.904  0.5911  0.3794  0.0350
 4671TIP3    H135504   4.488   5.399   1.895 -1.9667  0.8170 -1.3471
 4671TIP3    H235505   4.555   5.516   1.827  2.2941 -0.0363  1.0140
 4672TIP3   OH235506   4.134   5.431   1.500 -0.2477  0.0942  0.3913
 4672TIP3    H135507   4.055   5.413   1.552  0.0633 -2.6289  0.0581
 4672TIP3    H235508   4.172   5.345   1.483 -0.6317  0.6566 -4.8963
 4673TIP3   OH235509   5.742   0.374   4.630 -0.2493  0.7029  0.0271
 4673TIP3    H135510   5.691   0.415   4.699  1.5904 -0.1916  2.0313
 4673TIP3    H235511   5.823   0.425   4.626  0.0533  0.1830 -0.8485
 4674TIP3   OH235512   0.507   6.184   6.394 -0.3570 -0.4261  0.2836
 4674TIP3    H135513   0.538   6.121   6.329 -0.4543 -0.2508  0.0690
 4674TIP3    H235514   0.561   6.262   6.380  0.9433 -1.0191  1.6484
 4675TIP3   OH235515   3.329   0.422   3.492 -0.1405 -0.7515  0.0843
 4675TIP3    H135516   3.261   0.468   3.443 -0.5717  1.2159  2.3555
 4675TIP3    H235517   3.407   0.428   3.436 -0.9362  0.2268 -0.9548
 4676TIP3   OH235518   3.337   1.357  14.175  0.1974 -0.1207  0.0130
 4676TIP3    H135519   3.355   1.364  14.269  0.2350  0.7401 -0.0504
 4676TIP3    H235520   3.322   1.263  14.160  1.1254 -0.3882  0.7054
 4677TIP3   OH235521   6.041   3.520   0.175 -0.5574  0.3011 -0.0187
 4677TIP3    H135522   5.982   3.525   0.251  0.4860  0.1419  0.8402
 4677TIP3    H235523   5.985   3.537   0.100 -1.7495 -0.1300  0.7389
 4678TIP3   OH235524   5.547   4.475  16.424 -0.3830  0.1634  0.2976
 4678TIP3    H135525   5.459   4.476  16.386 -0.3029  1.4220  0.0766
 4678TIP3    H235526   5.551   4.393  16.473 -1.2308 -0.5049 -0.7008
 4679TIP3   OH235527   0.784   3.117  13.699  0.5044  0.6292 -0.3697
 4679TIP3    H135528   0.877   3.129  13.716  1.3387 -1.5434 -2.6603
 4679TIP3    H235529   0.751   3.070  13.775  1.6705  0.0218 -0.2223
 4680TIP3   OH235530   6.508   4.522  10.624 -0.3649 -0.0708 -0.1310
 4680TIP3    H135531   6.572   4.451  10.617 -0.8402 -0.4025 -1.2358
 4680TIP3    H235532   6.549   4.596  10.580 -0.9738 -0.4653 -1.4019
 4681TIP3   OH235533   2.687   2.774  11.151 -0.1117  0.1121 -0.3161
 4681TIP3    H135534   2.754   2.791  11.217  1.8150  0.1026 -2.1719
 4681TIP3    H235535   2.726   2.709  11.092 -1.2374  1.0144 -2.1687
 4682TIP3   OH235536   5.474   3.563  14.908 -0.1546  0.3082 -0.3008
 4682TIP3    H135537   5.387   3.604  14.906 -0.0052  0.6354 -0.2182
 4682TIP3    H235538   5.514   3.596  14.988 -0.0916 -0.1320 -0.1519
 4683TIP3   OH235539   6.476   6.508  11.508  0.1121  0.2328  0.0340
 4683TIP3    H135540   6.412   6.579  11.503 -1.6746 -1.3515 -1.2739
 4683TIP3    H235541   6.546   6.534  11.448 -0.6520  0.7868 -0.6324
 4684TIP3   OH235542   0.908   6.800   2.013  0.1075  0.1833  0.2025
 4684TIP3    H135543   0.829   6.760   1.975  1.1565 -1.1240 -0.6941
 4684TIP3    H235544   0.940   6.735   2.075  1.7444 -0.3876 -1.1532
 4685TIP3   OH235545   2.960   2.240   3.726 -0.0872 -0.0006  0.1732
 4685TIP3    H135546   2.908   2.179   3.673 -1.7351  1.4385  0.0430
 4685TIP3    H235547   3.022   2.279   3.665  1.7519 -2.2344  0.4609
 4686TIP3   OH235548   5.051   4.976   4.005 -0.6789  0.3842  0.2869
 4686TIP3    H135549   4.966   4.966   4.046 -0.3400  1.6623  1.3485
 4686TIP3    H235550   5.032   4.998   3.914 -1.5140  1.6141  0.7398
 4687TIP3   OH235551   5.886   1.438   0.135  0.8974 -0.1497 -0.3595
 4687TIP3    H135552   5.830   1.516   0.127  1.4076  0.3955  1.1465
 4687TIP3    H235553   5.828   1.366   0.111  0.1388  0.5958 -0.8535
 4688TIP3   OH235554   5.516   0.417   1.675  0.3064 -0.2707 -0.2081
 4688TIP3    H135555   5.502   0.505   1.640  0.8374  0.2024  0.7162
 4688TIP3    H235556   5.478   0.359   1.609 -0.3424  0.6564 -0.6861
 4689TIP3   OH235557   0.878   4.682  16.171  0.1300  0.0188  0.1579
 4689TIP3    H135558   0.849   4.597  16.137  0.4551 -0.0788  0.1271
 4689TIP3    H235559   0.817   4.701  16.243 -1.4292  0.8555 -1.3137
 4690TIP3   OH235560   1.278   0.695   5.085  0.1948  0.4215  0.7583
 4690TIP3    H135561   1.340   0.630   5.052 -0.8679  0.1257 -0.7489
 4690TIP3    H235562   1.307   0.778   5.046 -0.4409  0.2480 -0.1208
 4691TIP3   OH235563   0.942   0.557  15.934 -0.1947 -0.4164  0.2675
 4691TIP3    H135564   0.879   0.629  15.932  0.8435  0.5338 -1.3094
 4691TIP3    H235565   0.991   0.570  16.015 -1.0289 -0.2651  0.7539
 4692TIP3   OH235566   4.277   6.522   1.150 -0.1863  0.1351  0.1038
 4692TIP3    H135567   4.224   6.577   1.092 -0.8248  0.1207  0.6567
 4692TIP3    H235568   4.236   6.436   1.145 -0.3235  0.1645  0.6663
 4693TIP3   OH235569   0.984   5.244   0.687  0.2466 -0.2004 -0.2451
 4693TIP3    H135570   0.911   5.234   0.748 -0.0056  0.9119 -0.3523
 4693TIP3    H235571   1.049   5.180   0.717 -0.7835 -1.2754 -0.1935
 4694TIP3   OH235572   3.763   1.027  13.480 -0.5389  0.1045 -0.4713
 4694TIP3    H135573   3.728   1.046  13.393 -2.1978 -1.4807 -0.2161
 4694TIP3    H235574   3.851   0.994  13.464 -0.5453  0.5574 -1.4804
 4695TIP3   OH235575   0.505   2.775  14.887  0.0112  0.0580 -0.2687
 4695TIP3    H135576   0.499   2.689  14.846  0.3043 -0.0570 -0.0624
 4695TIP3    H235577   0.593   2.780  14.922 -0.4011 -0.0395  0.8041
 4696TIP3   OH235578   0.076   2.671  16.642 -0.3488 -0.0716 -0.0238
 4696TIP3    H135579   0.082   2.694  16.549 -1.2226 -1.0174 -0.3291
 4696TIP3    H235580   0.155   2.709  16.681  0.3289 -0.1576 -1.2545
 4697TIP3   OH235581   1.406   2.692  13.688  0.5957 -0.0084  0.0857
 4697TIP3    H135582   1.349   2.639  13.632 -0.1084 -0.5781  1.2899
 4697TIP3    H235583   1.492   2.651  13.681  0.6399  0.2485 -0.9725
 4698TIP3   OH235584   6.507   3.703  11.252  0.6313 -0.1035  0.0031
 4698TIP3    H135585   6.448   3.652  11.307 -1.0652  1.3455 -0.3665
 4698TIP3    H235586   6.451   3.737  11.182  1.8883  1.3729 -0.3475
 4699TIP3   OH235587   1.330   1.054  17.018 -0.4036  0.0661  0.5436
 4699TIP3    H135588   1.410   1.094  17.049 -0.2389  0.1545  0.0164
 4699TIP3    H235589   1.304   1.107  16.942 -1.0475  0.1398  0.8083
 4700TIP3   OH235590   0.285   1.382  16.840  0.1882 -0.3656  0.0098
 4700TIP3    H135591   0.206   1.419  16.880 -0.4286 -0.5508 -1.0162
 4700TIP3    H235592   0.253   1.312  16.783  1.1012 -0.5069 -0.3470
 4701TIP3   OH235593   0.479   0.087  11.193  0.1254  0.1572 -0.0794
 4701TIP3    H135594   0.471   0.089  11.097  0.1157 -0.0081 -0.0835
 4701TIP3    H235595   0.559   0.136  11.211 -0.6705  1.4810 -0.0652
 4702TIP3   OH235596   2.454   3.712   4.396 -0.7091 -0.0377 -0.0461
 4702TIP3    H135597   2.409   3.797   4.390 -1.5217 -0.5117 -0.9138
 4702TIP3    H235598   2.388   3.653   4.432 -0.7328 -0.6998 -1.1484
 4703TIP3   OH235599   2.642   5.970  10.796  0.0929 -0.5761  0.3517
 4703TIP3    H135600   2.585   5.931  10.862 -0.2317  0.2643  0.5765
 4703TIP3    H235601   2.586   5.981  10.719  0.1587 -0.4742  0.3170
 4704TIP3   OH235602   1.058   6.623   4.202 -0.4151 -0.2982 -0.5987
 4704TIP3    H135603   1.120   6.561   4.163 -1.1588 -0.2660 -1.8979
 4704TIP3    H235604   0.972   6.590   4.177 -1.0020 -0.6913  1.7022
 4705TIP3   OH235605   1.750   1.819   3.730 -0.1240  0.0200 -0.2798
 4705TIP3    H135606   1.682   1.780   3.785 -0.1734  0.3508 -0.1025
 4705TIP3    H235607   1.703   1.879   3.672  0.1270  1.1030  0.6059
 4706TIP3   OH235608   2.644   4.729  16.285 -0.6270 -0.9077 -0.0657
 4706TIP3    H135609   2.619   4.820  16.302  1.0062 -0.7030  1.5054
 4706TIP3    H235610   2.629   4.684  16.369  1.1754 -1.4460  0.0002
 4707TIP3   OH235611   3.843   1.947   3.030 -0.1248  0.4852  0.1053
 4707TIP3    H135612   3.884   1.943   2.944  0.1755 -0.8278  0.3006
 4707TIP3    H235613   3.782   1.873   3.032  0.5872 -0.0884  1.3748
 4708TIP3   OH235614   1.395   6.582  11.220  0.7798 -0.1391 -0.4274
 4708TIP3    H135615   1.366   6.641  11.150 -0.5116 -1.2738 -0.8889
 4708TIP3    H235616   1.409   6.498  11.176  2.9652 -0.1467  0.1488
 4709TIP3   OH235617   5.442   0.654  16.478  0.0098 -0.3826  0.5127
 4709TIP3    H135618   5.442   0.721  16.410  0.8429  0.5990  1.4402
 4709TIP3    H235619   5.473   0.575  16.434 -0.6031 -0.0615 -0.5098
 4710TIP3   OH235620   5.943   4.100  11.820  0.2366 -0.7274 -0.1349
 4710TIP3    H135621   5.940   4.182  11.771  0.6217 -0.5577  0.1234
 4710TIP3    H235622   5.980   4.124  11.905 -1.2812 -0.8460  0.5869
 4711TIP3   OH235623   4.852   3.979  12.138 -0.0578  0.5408 -0.1141
 4711TIP3    H135624   4.874   3.963  12.230  1.1935  0.9966 -0.3217
 4711TIP3    H235625   4.887   4.066  12.120 -0.5664  0.5788 -0.9460
 4712TIP3   OH235626   6.050   2.906   5.904 -0.0764 -0.3677 -0.3599
 4712TIP3    H135627   6.084   2.918   5.815 -3.2786 -1.8392 -1.9783
 4712TIP3    H235628   5.987   2.977   5.915  0.3460 -0.1604  0.7818
 4713TIP3   OH235629   6.478   1.078   6.353 -0.8317 -0.1509 -0.0060
 4713TIP3    H135630   6.515   0.991   6.367  2.0703  1.3581  2.7922
 4713TIP3    H235631   6.386   1.069   6.377 -0.7919 -2.5366 -0.4619
 4714TIP3   OH235632   1.216   6.507  13.064  0.0847  0.3234 -0.1404
 4714TIP3    H135633   1.253   6.433  13.016  1.2802  1.2140 -0.6337
 4714TIP3    H235634   1.240   6.492  13.155 -1.6930 -1.0729  0.1483
 4715TIP3   OH235635   1.047   0.362  10.649  0.3294 -0.0123 -0.1282
 4715TIP3    H135636   0.984   0.405  10.591  0.7652  0.0844 -0.5336
 4715TIP3    H235637   1.035   0.269  10.632 -0.1634 -0.0251  0.2773
 4716TIP3   OH235638   3.032   1.560   5.353 -0.0977  0.0955  0.0774
 4716TIP3    H135639   3.075   1.633   5.308 -0.9891  0.1154 -0.7869
 4716TIP3    H235640   3.009   1.499   5.283  1.4611 -1.4866  0.8726
 4717TIP3   OH235641   2.893   3.143   0.327  0.1259 -0.9045 -0.4928
 4717TIP3    H135642   2.886   3.199   0.405 -1.0901 -1.1435 -0.4089
 4717TIP3    H235643   2.987   3.126   0.318  0.2883 -0.9143  0.9586
 4718TIP3   OH235644   0.850   4.711   2.377 -0.0713  0.1060 -0.5957
 4718TIP3    H135645   0.891   4.775   2.318  3.0487 -0.8799  0.2848
 4718TIP3    H235646   0.790   4.763   2.430  1.0067  1.9910 -1.1010
 4719TIP3   OH235647   1.072   0.693   1.974 -0.9955  0.2425  0.7024
 4719TIP3    H135648   1.077   0.599   1.955 -0.4863  0.4657 -0.3565
 4719TIP3    H235649   1.109   0.702   2.062  2.4490 -0.1727 -0.5443
 4720TIP3   OH235650   3.459   1.457   2.226 -0.2775 -0.2209  0.6026
 4720TIP3    H135651   3.407   1.403   2.167 -1.6038  0.5708  1.0228
 4720TIP3    H235652   3.500   1.394   2.285 -0.7339 -0.8582  0.2531
 4721TIP3   OH235653   5.126   2.775   0.076  0.3265  0.1042  0.4467
 4721TIP3    H135654   5.162   2.755  -0.011  0.8283  2.0357  0.1640
 4721TIP3    H235655   5.034   2.752   0.069  0.2578  0.6417 -0.7605
 4722TIP3   OH235656   2.297   5.315   0.082  0.1988  0.2573  0.3635
 4722TIP3    H135657   2.360   5.340   0.015 -0.7314  0.2675 -0.5367
 4722TIP3    H235658   2.243   5.248   0.040 -0.7524  0.6666  0.8937
 4723TIP3   OH235659   0.523   5.628  12.279 -0.0360 -0.1395 -0.1086
 4723TIP3    H135660   0.571   5.687  12.337 -0.2766  0.0076 -0.0588
 4723TIP3    H235661   0.503   5.680  12.201 -1.7640  0.4038  0.6430
 4724TIP3   OH235662   3.437   0.214   3.021  0.7561 -0.3221  0.3165
 4724TIP3    H135663   3.378   0.163   2.964  1.0091 -0.5656  0.2702
 4724TIP3    H235664   3.516   0.160   3.027  1.1438  0.2039  0.0251
 4725TIP3   OH235665   1.156   4.744  10.230 -0.0576  0.0716  0.4861
 4725TIP3    H135666   1.179   4.836  10.244 -1.1116  0.2305  1.3277
 4725TIP3    H235667   1.209   4.717  10.155  1.7648  0.7924  1.4310
 4726TIP3   OH235668   2.506   2.864  14.762  0.1320 -0.0633 -0.0675
 4726TIP3    H135669   2.470   2.798  14.822 -1.0048 -0.3557 -1.0424
 4726TIP3    H235670   2.431   2.895  14.713  0.7482  1.5602 -0.0352
 4727TIP3   OH235671   3.124   0.970   0.406 -0.3795  0.1585 -0.2983
 4727TIP3    H135672   3.056   0.912   0.439 -0.0703 -0.1988 -0.2829
 4727TIP3    H235673   3.206   0.929   0.433 -0.1640  0.8720  0.1748
 4728TIP3   OH235674   0.643   3.590  12.468 -0.0884  0.5432  0.9007
 4728TIP3    H135675   0.634   3.568  12.375  0.3612  0.4646  0.8732
 4728TIP3    H235676   0.571   3.543  12.510  0.1104  0.0246  0.6769
 4729TIP3   OH235677   1.837   1.257  14.937  0.3467  0.2157 -0.8047
 4729TIP3    H135678   1.916   1.296  14.897  0.1967  0.0097 -1.3168
 4729TIP3    H235679   1.850   1.162  14.926 -0.0110  0.1852 -0.9694
 4730TIP3   OH235680   1.057   0.907  11.806 -0.2475 -0.4018  0.3053
 4730TIP3    H135681   1.017   0.839  11.752  3.3697 -1.7952 -0.9284
 4730TIP3    H235682   1.093   0.860  11.881 -1.1139  0.8311  1.5471
 4731TIP3   OH235683   0.290   4.250   3.887 -0.3031  0.0372 -0.1203
 4731TIP3    H135684   0.331   4.311   3.825  0.9586 -0.3959  0.2610
 4731TIP3    H235685   0.360   4.226   3.948 -0.9591 -1.2159  0.1881
 4732TIP3   OH235686   1.691   6.478  15.012 -0.7233 -0.4552  0.2892
 4732TIP3    H135687   1.686   6.385  14.994  0.2802 -0.5651  0.5480
 4732TIP3    H235688   1.783   6.495  15.029 -1.2022  0.1555  2.5404
 4733TIP3   OH235689   0.470   1.051  15.193 -0.1436  0.2771 -0.0964
 4733TIP3    H135690   0.512   1.009  15.117 -0.1725  2.7027 -1.5421
 4733TIP3    H235691   0.387   1.005  15.203  1.0835 -2.0064  0.3608
 4734TIP3   OH235692   0.225   4.664   4.533 -0.2429 -0.7765 -0.4618
 4734TIP3    H135693   0.305   4.639   4.578 -0.9167 -1.2771  0.5030
 4734TIP3    H235694   0.251   4.734   4.473  0.7303 -0.2510  0.5430
 4735TIP3   OH235695   5.553   1.743  16.227  0.4380 -0.4532 -0.4411
 4735TIP3    H135696   5.614   1.675  16.198  1.1930 -0.2462  0.6189
 4735TIP3    H235697   5.483   1.742  16.162  0.7976 -1.7582 -0.8247
 4736TIP3   OH235698   3.599   1.475   2.629 -0.3870 -0.5509 -0.3079
 4736TIP3    H135699   3.626   1.546   2.571  3.1278 -2.1174 -0.8810
 4736TIP3    H235700   3.651   1.489   2.709 -0.6170 -1.7391  0.0662
 4737TIP3   OH235701   4.670   5.875  14.992 -0.3744 -0.6814 -1.0857
 4737TIP3    H135702   4.626   5.926  15.061  1.0658 -1.3266  0.3775
 4737TIP3    H235703   4.731   5.937  14.952  0.9486 -1.0082  0.2973
 4738TIP3   OH235704   5.367   1.724  14.517  0.2861  0.2488 -0.5911
 4738TIP3    H135705   5.424   1.778  14.572 -1.1407  2.2934 -0.9861
 4738TIP3    H235706   5.396   1.742  14.427  0.7624 -0.8345 -0.6603
 4739TIP3   OH235707   2.543   3.619  15.202 -0.1672 -0.1678  0.3922
 4739TIP3    H135708   2.618   3.560  15.197  0.5658  0.8139 -0.4111
 4739TIP3    H235709   2.469   3.564  15.175  0.7425 -0.3499 -1.9562
 4740TIP3   OH235710   6.256   5.333  14.711  0.5014 -0.3748  0.3972
 4740TIP3    H135711   6.237   5.341  14.618  0.4721 -2.7404  0.1432
 4740TIP3    H235712   6.178   5.292  14.748  0.7857 -0.0927  1.3327
 4741TIP3   OH235713   6.710   4.629  15.433  0.3343  0.4298 -0.7187
 4741TIP3    H135714   6.640   4.622  15.498  1.5436 -2.8684  0.4145
 4741TIP3    H235715   6.676   4.691  15.368 -2.4493  1.0300  1.1372
 4742TIP3   OH235716   6.247   0.018  13.400  0.5787  0.4530 -0.1774
 4742TIP3    H135717   6.253   0.057  13.313  3.8530 -2.7603 -1.6670
 4742TIP3    H235718   6.222  -0.073  13.384  2.5271 -0.5984  2.0313
 4743TIP3   OH235719   4.635   2.858   2.588 -0.1639 -0.3946  0.3656
 4743TIP3    H135720   4.581   2.813   2.523 -0.1802  1.2568 -0.8229
 4743TIP3    H235721   4.626   2.950   2.566  2.8509 -0.0138  0.3161
 4744TIP3   OH235722   2.652   0.694   5.156  0.4701  0.4593 -0.0444
 4744TIP3    H135723   2.699   0.721   5.235 -1.2194 -0.3631  1.3118
 4744TIP3    H235724   2.570   0.745   5.159 -0.4173 -0.9130 -0.2628
 4745TIP3   OH235725   6.697   6.355  12.817  0.0923  0.1073 -0.6114
 4745TIP3    H135726   6.761   6.425  12.809  0.0098  0.1772 -0.6563
 4745TIP3    H235727   6.612   6.398  12.806  0.0494 -0.0262 -0.8054
 4746TIP3   OH235728   5.106   1.088  12.862  0.1351  0.4835  0.1528
 4746TIP3    H135729   5.120   1.129  12.947  1.2771  0.7476 -0.1471
 4746TIP3    H235730   5.190   1.097  12.817  0.1539 -1.3919 -0.2632
 4747TIP3   OH235731   3.025   2.714  13.167 -0.3466 -0.0287  0.5673
 4747TIP3    H135732   2.949   2.706  13.111 -0.8740  0.7641  1.1560
 4747TIP3    H235733   3.095   2.668  13.120 -1.1378 -0.6239 -0.0466
 4748TIP3   OH235734   3.293   6.361  16.434 -0.4625  0.1414  0.4892
 4748TIP3    H135735   3.207   6.393  16.408  0.3532  1.9831 -0.1114
 4748TIP3    H235736   3.353   6.432  16.413  1.2126 -1.0385  0.9994
 4749TIP3   OH235737   2.453   0.370  13.460  0.4900  0.5915  1.0070
 4749TIP3    H135738   2.420   0.376  13.549  0.8996 -0.3393  1.2375
 4749TIP3    H235739   2.545   0.397  13.467  0.7638 -0.2940  1.0423
 4750TIP3   OH235740   1.064   4.568  15.131 -0.3586 -0.0849 -0.4011
 4750TIP3    H135741   1.125   4.632  15.094  1.2568 -1.0942  0.4438
 4750TIP3    H235742   0.990   4.568  15.069 -0.4956  2.6467 -0.3925
 4751TIP3   OH235743   1.549   3.711   1.935 -0.1554  0.2130 -0.1308
 4751TIP3    H135744   1.508   3.725   1.850  0.1149 -1.9809 -0.6941
 4751TIP3    H235745   1.479   3.673   1.989  0.3279 -0.8020 -0.1958
 4752TIP3   OH235746   4.905   0.420  15.667 -0.6416  0.3762 -0.1505
 4752TIP3    H135747   4.819   0.382  15.650 -1.1387  1.0270  0.8289
 4752TIP3    H235748   4.898   0.458  15.755  1.2005 -1.1820  0.7601
 4753TIP3   OH235749   2.108   5.564  14.574 -0.0534  0.4339 -0.0297
 4753TIP3    H135750   2.180   5.613  14.534  0.0836 -0.0725 -0.4059
 4753TIP3    H235751   2.137   5.549  14.664  0.0185  0.8031  0.0139
 4754TIP3   OH235752   6.058   6.642  17.052  0.5146  0.2969 -0.1870
 4754TIP3    H135753   6.132   6.610  17.103  0.0550 -0.9815 -0.2889
 4754TIP3    H235754   5.986   6.650  17.115  0.6687  1.3461 -0.1249
 4755TIP3   OH235755   4.761   1.266  16.461 -0.7466  0.4114 -0.3657
 4755TIP3    H135756   4.693   1.256  16.395  0.1371 -3.1823 -0.9131
 4755TIP3    H235757   4.815   1.188  16.453  1.9170  1.8370  1.8299
 4756TIP3   OH235758   3.654   4.331  11.213 -0.0976 -0.4060 -0.4630
 4756TIP3    H135759   3.563   4.315  11.239  0.0897 -1.9124 -0.6422
 4756TIP3    H235760   3.706   4.294  11.285  0.3788 -0.8269 -1.0177
 4757TIP3   OH235761   2.929   0.156  13.445 -0.3609  0.0996  0.6463
 4757TIP3    H135762   2.971   0.096  13.507 -0.0981 -1.9377 -1.3776
 4757TIP3    H235763   2.988   0.231  13.440 -0.3155  0.2553  2.6817
 4758TIP3   OH235764   0.982   4.047  10.553 -0.1194 -0.1597 -0.5679
 4758TIP3    H135765   0.953   4.138  10.565 -1.1873 -0.3140 -1.7216
 4758TIP3    H235766   1.018   4.022  10.638 -0.8465  0.9786  0.1119
 4759TIP3   OH235767   2.102   5.966   0.918 -0.3998 -0.4591 -0.0438
 4759TIP3    H135768   2.054   5.935   0.995  1.5751 -0.3485  1.3284
 4759TIP3    H235769   2.133   5.887   0.876  2.2253 -0.5690  1.8483
 4760TIP3   OH235770   5.708   0.005  13.536 -0.9973 -0.5667 -0.2235
 4760TIP3    H135771   5.780   0.040  13.484 -1.3469 -0.9639 -0.9870
 4760TIP3    H235772   5.748  -0.014  13.621 -0.1027 -1.1667 -0.7612
 4761TIP3   OH235773   3.236   1.822  15.376 -0.3307  0.3171  0.1282
 4761TIP3    H135774   3.231   1.736  15.418  1.9729 -0.6642 -1.4141
 4761TIP3    H235775   3.320   1.858  15.404 -0.5700  1.3926 -0.4727
 4762TIP3   OH235776   2.980   3.585   3.450 -0.3031 -0.4016  0.2884
 4762TIP3    H135777   2.960   3.497   3.418 -0.7474 -0.0836 -0.3236
 4762TIP3    H235778   2.905   3.637   3.424  0.7442  0.5582 -0.9517
 4763TIP3   OH235779   0.839   0.348  12.749 -0.8065  0.2107 -0.0643
 4763TIP3    H135780   0.768   0.298  12.790 -0.1974  0.2503  1.0888
 4763TIP3    H235781   0.886   0.284  12.695  0.3541 -0.6871  1.8951
 4764TIP3   OH235782   6.684   2.209  11.861  0.3569  0.1084 -0.4376
 4764TIP3    H135783   6.741   2.201  11.937 -0.2025 -0.6752 -0.0841
 4764TIP3    H235784   6.696   2.127  11.814  0.1709  0.3029 -0.8292
 4765TIP3   OH235785   6.266   4.075   2.911 -0.5744  0.2085 -0.3773
 4765TIP3    H135786   6.333   4.032   2.965  1.1303  1.2313 -1.5496
 4765TIP3    H235787   6.214   4.003   2.876  2.2690 -1.0693 -2.4200
 4766TIP3   OH235788   4.934   0.544  11.443  0.3480 -0.8722 -0.0106
 4766TIP3    H135789   4.870   0.577  11.380  0.8025 -0.0319 -0.0466
 4766TIP3    H235790   5.011   0.598  11.429 -0.3289  1.0834  2.9344
 4767TIP3   OH235791   2.277   5.952   4.012  0.2013 -0.5158  0.1450
 4767TIP3    H135792   2.351   5.954   3.952  0.6031  0.4943  0.6565
 4767TIP3    H235793   2.203   5.982   3.959  0.8638  2.0055  0.5142
 4768TIP3   OH235794   0.574   1.172  16.192  0.9188 -0.6127 -0.0985
 4768TIP3    H135795   0.665   1.149  16.172  0.9225  0.1287 -0.9657
 4768TIP3    H235796   0.522   1.118  16.133  0.7943 -0.8121  0.1880
 4769TIP3   OH235797   4.716   1.458   0.188  0.2143 -0.2929 -0.1295
 4769TIP3    H135798   4.793   1.498   0.149  0.0346 -0.5954 -0.8039
 4769TIP3    H235799   4.644   1.516   0.163 -0.1673 -1.4120 -1.7739
 4770TIP3   OH235800   4.359   6.113   5.172  0.2069  0.1010  0.1692
 4770TIP3    H135801   4.338   6.046   5.237  2.1105 -1.0292 -0.3042
 4770TIP3    H235802   4.419   6.173   5.218  2.3527 -1.2448 -0.7232
 4771TIP3   OH235803   4.016   0.736   2.179 -0.1246 -0.2791  0.0150
 4771TIP3    H135804   3.935   0.734   2.128 -1.3986  0.5415  1.9022
 4771TIP3    H235805   4.074   0.674   2.134 -1.2082  0.2742 -2.2890
 4772TIP3   OH235806   0.750   2.127  11.837  0.2653 -0.2509 -0.5119
 4772TIP3    H135807   0.805   2.206  11.835  1.0354 -0.7791 -0.6192
 4772TIP3    H235808   0.663   2.158  11.812 -0.0241  1.0209  1.7567
 4773TIP3   OH235809   6.358   6.260  13.607  0.6880  0.3567 -0.7744
 4773TIP3    H135810   6.281   6.314  13.625  0.6290  0.2931 -0.8370
 4773TIP3    H235811   6.343   6.180  13.657  0.7328  0.3613 -0.7538
 4774TIP3   OH235812   2.231   1.624  16.539 -0.0345  0.3397 -0.0970
 4774TIP3    H135813   2.327   1.616  16.538 -0.0697 -0.7160  1.4506
 4774TIP3    H235814   2.202   1.567  16.469  0.4962  1.6549 -1.4324
 4775TIP3   OH235815   2.137   4.439  16.041 -0.0071  0.2844  0.1483
 4775TIP3    H135816   2.091   4.373  15.989  0.2758  1.0690 -1.1431
 4775TIP3    H235817   2.229   4.430  16.015  0.1746  0.5249  0.6971
 4776TIP3   OH235818   3.666   1.806   0.666 -0.7458 -0.9547  0.3506
 4776TIP3    H135819   3.745   1.766   0.702 -1.0171 -0.2136  1.8121
 4776TIP3    H235820   3.627   1.737   0.613  0.1547 -1.7662  0.7112
 4777TIP3   OH235821   5.169   1.350   4.761 -0.6624  0.0590  0.0126
 4777TIP3    H135822   5.218   1.269   4.770 -0.0986  0.0965 -2.1880
 4777TIP3    H235823   5.161   1.383   4.851  1.1270 -1.2350  0.7091
 4778TIP3   OH235824   6.690   1.420  12.536  0.2882  0.2779 -0.2357
 4778TIP3    H135825   6.720   1.470  12.460 -0.7778 -0.3548 -1.1063
 4778TIP3    H235826   6.732   1.335  12.527 -2.6717 -1.1473 -2.2877
 4779TIP3   OH235827   1.985   6.244   1.457 -0.5102 -0.2511  0.0088
 4779TIP3    H135828   1.929   6.317   1.431  1.3961  1.7307  1.0814
 4779TIP3    H235829   1.999   6.194   1.377 -0.4687  1.6016 -1.1976
 4780TIP3   OH235830   1.990   1.957  10.166  0.2440 -0.0269  0.2268
 4780TIP3    H135831   2.054   1.888  10.150 -0.1183 -0.5311  0.8738
 4780TIP3    H235832   1.968   1.948  10.259 -2.8038 -1.7125 -0.4997
 4781TIP3   OH235833   3.584   3.329   0.123  0.3469  0.6555 -0.5212
 4781TIP3    H135834   3.675   3.301   0.121 -0.1200 -1.2408  1.5365
 4781TIP3    H235835   3.583   3.402   0.185  0.5533  1.0715 -1.0049
 4782TIP3   OH235836   6.600   6.112  16.034 -0.3312  0.3551 -0.1143
 4782TIP3    H135837   6.578   6.049  15.966 -0.4733 -1.9227  1.9083
 4782TIP3    H235838   6.519   6.123  16.084  0.1837  0.7291  0.6590
 4783TIP3   OH235839   4.436   2.338  14.238 -0.6719  0.8912 -0.3712
 4783TIP3    H135840   4.506   2.356  14.300  0.1294  0.5314 -1.1428
 4783TIP3    H235841   4.400   2.254  14.266 -0.0553  0.5378 -0.5956
 4784TIP3   OH235842   2.161   2.577   3.773  0.3414  0.8648  0.1592
 4784TIP3    H135843   2.129   2.527   3.848  0.8901  0.4362  0.1147
 4784TIP3    H235844   2.209   2.512   3.720  0.5437  1.3100 -0.2087
 4785TIP3   OH235845   2.073   0.296   3.073  0.2830 -0.1497 -0.4317
 4785TIP3    H135846   2.088   0.283   3.167  1.4901 -1.5953 -0.7939
 4785TIP3    H235847   2.114   0.381   3.054 -0.5130  0.4535  0.4435
 4786TIP3   OH235848   6.823   4.309  14.579  0.2300 -0.0155 -0.0321
 4786TIP3    H135849   6.814   4.399  14.611 -1.1841 -0.2768  0.3813
 4786TIP3    H235850   6.897   4.273  14.627 -0.5388  0.2672  1.4163
 4787TIP3   OH235851   2.953   0.110  16.071 -0.1832 -0.6128  0.3065
 4787TIP3    H135852   2.997   0.027  16.091 -0.2006 -0.7947 -0.3752
 4787TIP3    H235853   2.875   0.084  16.022  0.0470 -0.1757 -0.3098
 4788TIP3   OH235854   1.192   6.367   2.437 -0.4704 -0.2839 -0.5054
 4788TIP3    H135855   1.283   6.348   2.460 -1.1684 -2.0475  1.0776
 4788TIP3    H235856   1.186   6.462   2.443  1.0590 -0.1908  0.2203
 4789TIP3   OH235857   0.899   3.806   5.082 -0.2669  0.4600 -0.2304
 4789TIP3    H135858   0.974   3.759   5.118 -1.1133 -0.2716  0.6362
 4789TIP3    H235859   0.889   3.773   4.993 -0.5870 -0.6957  0.2243
 4790TIP3   OH235860   2.047   0.415   0.377  0.1078 -0.3263 -0.1085
 4790TIP3    H135861   1.991   0.426   0.454 -1.3393 -1.9691 -0.8432
 4790TIP3    H235862   2.119   0.360   0.408 -0.1484 -0.4778  0.2338
 4791TIP3   OH235863   6.499   2.875  14.420  0.0349 -0.2686 -0.4618
 4791TIP3    H135864   6.556   2.948  14.445  1.8417 -1.5418 -0.7423
 4791TIP3    H235865   6.440   2.913  14.354 -0.3510  1.4020  0.7766
 4792TIP3   OH235866   4.403   2.235  16.831  0.8051  0.1551  0.2210
 4792TIP3    H135867   4.350   2.169  16.784  1.7372  1.0284 -2.2155
 4792TIP3    H235868   4.362   2.241  16.917 -2.3018 -0.1346 -1.1009
 4793TIP3   OH235869   0.412   0.182   1.800 -0.0628 -0.3996  0.4431
 4793TIP3    H135870   0.326   0.225   1.796  0.3845  0.4484 -0.8605
 4793TIP3    H235871   0.412   0.123   1.724  1.2500  1.1258 -0.8000
 4794TIP3   OH235872   6.161   0.148   5.051 -0.3921 -0.0467  0.5465
 4794TIP3    H135873   6.247   0.142   5.093 -0.4255 -0.6991  0.5292
 4794TIP3    H235874   6.110   0.078   5.091 -1.1017  0.6914  0.9717
 4795TIP3   OH235875   2.919   4.425   4.743 -0.7052  0.3560 -0.3245
 4795TIP3    H135876   2.930   4.505   4.796  0.2028  0.6115 -0.8761
 4795TIP3    H235877   2.888   4.457   4.658  0.5186  0.2123 -0.8364
 4796TIP3   OH235878   6.676   3.790   3.095 -0.5434 -0.0695  0.0637
 4796TIP3    H135879   6.624   3.796   3.015 -0.2829 -0.2477 -0.1212
 4796TIP3    H235880   6.659   3.702   3.129 -0.5366 -0.0477  0.1241
 4797TIP3   OH235881   5.551   1.692   1.182  0.2404 -0.3614 -0.4868
 4797TIP3    H135882   5.636   1.648   1.182  0.7733  0.5729 -2.3772
 4797TIP3    H235883   5.489   1.624   1.210  1.1518 -2.0559 -2.3238
 4798TIP3   OH235884   2.110   5.984  15.475 -0.4070 -0.2294  0.2626
 4798TIP3    H135885   2.133   5.950  15.388  0.6373 -0.9903  0.8083
 4798TIP3    H235886   2.103   6.078  15.462  2.5346  0.0364 -0.1415
 4799TIP3   OH235887   5.846   1.467   5.912 -0.9476 -0.3292 -0.1963
 4799TIP3    H135888   5.919   1.520   5.879 -1.8398  0.9296 -0.2457
 4799TIP3    H235889   5.878   1.429   5.993  0.3300 -1.1965 -1.0793
 4800TIP3   OH235890   0.260   2.742   2.197  0.2380  0.8362 -0.4678
 4800TIP3    H135891   0.286   2.761   2.287 -0.4908  1.9508 -0.4706
 4800TIP3    H235892   0.341   2.752   2.146  0.4673  1.1127 -0.0590
 4801TIP3   OH235893   5.240   2.938  16.101 -0.0777 -0.1603 -0.0525
 4801TIP3    H135894   5.172   2.895  16.049 -0.2893 -1.1838  1.0372
 4801TIP3    H235895   5.203   2.943  16.189  0.1652  1.7974 -0.0183
 4802TIP3   OH235896   3.926   6.106   2.318  0.1409 -0.7271  0.2738
 4802TIP3    H135897   3.984   6.131   2.246 -1.5887  0.3731 -0.8300
 4802TIP3    H235898   3.977   6.122   2.397  1.7082 -0.8793 -0.6681
 4803TIP3   OH235899   5.063   4.679  16.057  0.7412 -0.3345  0.0303
 4803TIP3    H135900   5.004   4.755  16.058 -0.3000 -1.0760  2.2317
 4803TIP3    H235901   5.095   4.675  15.967 -2.8020 -0.0211 -1.4380
 4804TIP3   OH235902   2.513   5.404  14.454 -0.6016  0.0908 -0.3040
 4804TIP3    H135903   2.509   5.472  14.521 -1.0415 -0.1800 -0.0521
 4804TIP3    H235904   2.516   5.452  14.371  3.1723  0.5616 -0.0727
 4805TIP3   OH235905   5.892   2.891  10.749 -0.0288 -0.5374 -0.3603
 4805TIP3    H135906   5.953   2.818  10.743  1.5873  0.6541  0.5127
 4805TIP3    H235907   5.904   2.925  10.838 -1.4277  0.1922 -0.4304
 4806TIP3   OH235908   4.607   2.848  13.495 -0.6933 -0.4611  0.6089
 4806TIP3    H135909   4.576   2.901  13.421 -1.0705  1.4881  2.0959
 4806TIP3    H235910   4.702   2.841  13.482 -0.7501 -0.1078 -0.0327
 4807TIP3   OH235911   5.892   4.994  15.329  0.4525 -0.5106 -0.7089
 4807TIP3    H135912   5.857   4.956  15.410  0.0064  1.3764  0.0280
 4807TIP3    H235913   5.833   4.962  15.260 -0.0252 -0.9854 -0.0893
 4808TIP3   OH235914   0.778   2.649  15.358 -0.5731 -0.0761  0.4097
 4808TIP3    H135915   0.711   2.717  15.363  1.4007  1.9407  1.3803
 4808TIP3    H235916   0.763   2.594  15.435 -0.5192  1.0004  1.2109
 4809TIP3   OH235917   1.591   5.574   4.588  0.2076  0.4709  0.2419
 4809TIP3    H135918   1.660   5.612   4.534  0.4779  1.0036  0.9411
 4809TIP3    H235919   1.603   5.614   4.674  0.7175 -1.4141  1.1126
 4810TIP3   OH235920   3.527   1.086  12.634  0.0184  0.3763  0.2344
 4810TIP3    H135921   3.473   1.144  12.580 -1.4948 -0.5081  0.7433
 4810TIP3    H235922   3.548   1.139  12.711 -1.4574  0.2578  0.7514
 4811TIP3   OH235923   6.308   2.244  17.070 -0.4587  0.5817  0.1981
 4811TIP3    H135924   6.369   2.303  17.026 -0.2525  1.6591  1.8499
 4811TIP3    H235925   6.236   2.234  17.008  0.5444  0.7228 -1.0419
 4812TIP3   OH235926   5.064   0.769  15.027 -0.1990 -0.8191  0.4252
 4812TIP3    H135927   5.073   0.719  14.946  0.5265 -0.4403  0.2705
 4812TIP3    H235928   4.997   0.834  15.008 -1.1693 -1.7269  0.6325
 4813TIP3   OH235929   2.840   0.747   5.352 -0.4792  0.1655  0.2204
 4813TIP3    H135930   2.877   0.703   5.428  0.6140 -0.7311 -0.7976
 4813TIP3    H235931   2.886   0.831   5.348 -0.0496 -0.0741  0.1542
 4814TIP3   OH235932   5.877   1.992  14.006 -0.3929 -0.4823  0.0313
 4814TIP3    H135933   5.889   2.035  14.091 -1.1240 -0.1095 -0.0454
 4814TIP3    H235934   5.826   1.913  14.027 -3.7076  1.3386 -0.4152
 4815TIP3   OH235935   2.221   0.843  12.066 -0.4910  0.3872  0.0715
 4815TIP3    H135936   2.166   0.917  12.092  1.4259  1.8075  0.3250
 4815TIP3    H235937   2.299   0.850  12.121  0.0569 -1.4539 -0.3736
 4816TIP3   OH235938   4.059   0.161  12.413  0.2469  0.7106  0.0922
 4816TIP3    H135939   3.997   0.231  12.430  0.1224  0.7144 -0.3484
 4816TIP3    H235940   4.040   0.133  12.323 -0.2917 -0.4858  0.5562
 4817TIP3   OH235941   1.435   1.816  10.450  0.5244  0.1342  0.5572
 4817TIP3    H135942   1.457   1.897  10.496 -0.5647 -0.0223  1.3858
 4817TIP3    H235943   1.406   1.756  10.519 -1.2693 -0.0660 -0.3071
 4818TIP3   OH235944   1.202   0.823  14.546 -0.5704  0.0959  0.0311
 4818TIP3    H135945   1.108   0.824  14.530 -0.3336  0.9493 -1.4037
 4818TIP3    H235946   1.234   0.744  14.502 -0.3193  0.9808 -1.4302
 4819TIP3   OH235947   1.575   0.210  15.182 -0.2287  0.1138  0.2396
 4819TIP3    H135948   1.537   0.268  15.248  1.6472  2.6650 -0.7554
 4819TIP3    H235949   1.499   0.176  15.135 -1.5090 -0.2475  2.4317
 4820TIP3   OH235950   4.916   6.318  13.910  0.1381 -0.3159 -0.0555
 4820TIP3    H135951   4.921   6.337  14.004  1.4284 -0.8276  0.0018
 4820TIP3    H235952   4.982   6.250  13.896  0.8599  0.6512 -1.5535
 4821TIP3   OH235953   5.280   1.594   3.730  0.3556  0.4094  0.8087
 4821TIP3    H135954   5.375   1.584   3.731  0.3004 -0.5184  3.1008
 4821TIP3    H235955   5.252   1.551   3.650  1.9118  1.4733 -0.3554
 4822TIP3   OH235956   3.391   0.933   5.236  0.8068  0.0553  0.3432
 4822TIP3    H135957   3.439   1.010   5.204  0.1874  1.3393  2.3227
 4822TIP3    H235958   3.299   0.956   5.225  0.5946 -1.3354 -1.0448
 4823TIP3   OH235959   2.347   6.287   4.863  0.2908 -0.1387  0.1255
 4823TIP3    H135960   2.355   6.311   4.955  0.5121  1.2418 -0.2305
 4823TIP3    H235961   2.335   6.370   4.817  2.7492 -0.4981 -1.3689
 4824TIP3   OH235962   5.409   2.420  14.507  0.1387 -0.0180 -0.2294
 4824TIP3    H135963   5.418   2.409  14.601 -0.8009 -0.6088 -0.1951
 4824TIP3    H235964   5.319   2.450  14.495  0.3298  0.2959 -0.9230
 4825TIP3   OH235965   5.829   1.622  16.088  0.3015 -0.0005 -0.2293
 4825TIP3    H135966   5.813   1.559  16.018 -1.1271 -1.7546  1.5595
 4825TIP3    H235967   5.919   1.604  16.115  0.5464  0.0517 -0.9706
 4826TIP3   OH235968   3.313   5.772   4.519  0.7078 -0.0563  0.5904
 4826TIP3    H135969   3.221   5.744   4.528  0.4272  0.4132 -0.6180
 4826TIP3    H235970   3.337   5.748   4.430  1.9982 -0.7899  1.1110
 4827TIP3   OH235971   1.304   2.472  14.262  0.0126 -0.1388  0.1914
 4827TIP3    H135972   1.218   2.429  14.253  0.5317 -1.0099 -0.8759
 4827TIP3    H235973   1.311   2.493  14.355 -0.6852 -1.5023  0.5711
 4828TIP3   OH235974   1.708   6.377  11.827 -0.0409  0.4219 -0.2681
 4828TIP3    H135975   1.789   6.344  11.867 -0.0924  1.3309  0.6172
 4828TIP3    H235976   1.669   6.300  11.785  2.7818  0.4993 -3.4075
 4829TIP3   OH235977   4.495   6.511  14.462  0.0019  0.5725 -0.3738
 4829TIP3    H135978   4.460   6.568  14.394 -0.7560 -1.1592 -1.5170
 4829TIP3    H235979   4.482   6.560  14.544 -3.0322  1.0073 -0.9886
 4830TIP3   OH235980   6.134   3.829   2.814 -0.0364 -0.4936  0.2221
 4830TIP3    H135981   6.193   3.807   2.742 -0.1148  0.6048 -0.2108
 4830TIP3    H235982   6.119   3.747   2.859  1.7261 -0.8338  0.2693
 4831TIP3   OH235983   5.715   4.261  16.917  0.3109 -0.1243 -0.4450
 4831TIP3    H135984   5.756   4.205  16.982 -0.3956  0.4314  0.5072
 4831TIP3    H235985   5.622   4.236  16.918  0.7145 -2.3509 -3.5575
 4832TIP3   OH235986   3.121   5.082   0.366  0.2093  0.7953 -0.1927
 4832TIP3    H135987   3.182   5.155   0.376 -1.7812  2.4008  1.1387
 4832TIP3    H235988   3.142   5.045   0.280  3.8764  0.3504  0.7134
 4833TIP3   OH235989   5.996   1.047   4.562 -0.6662  0.7022 -0.0012
 4833TIP3    H135990   5.989   0.978   4.627  0.0929  2.2783  1.8317
 4833TIP3    H235991   6.086   1.043   4.531  0.0382  2.2075  1.7280
 4834TIP3   OH235992   0.679   3.740   3.474 -0.6967 -0.4304 -0.0985
 4834TIP3    H135993   0.741   3.691   3.420  0.1289 -0.1308  0.5569
 4834TIP3    H235994   0.598   3.689   3.469 -0.4156 -0.8101 -0.9945
 4835TIP3   OH235995   6.453   5.405  16.910  0.5194  0.7790 -0.0652
 4835TIP3    H135996   6.386   5.356  16.862 -0.1442  0.7114  0.8944
 4835TIP3    H235997   6.461   5.358  16.993  1.7531  0.8055 -0.1607
 4836TIP3   OH235998   5.231   2.534  16.315 -0.5925 -0.5027 -0.2047
 4836TIP3    H135999   5.188   2.572  16.392 -0.3224  1.1195 -0.8118
 4836TIP3    H236000   5.163   2.534  16.247  0.0126  1.0385 -0.8499
 4837TIP3   OH236001   0.098   0.726  12.666 -0.2827  0.4660 -0.2781
 4837TIP3    H136002   0.090   0.677  12.585  0.2418  1.8105 -1.1843
 4837TIP3    H236003   0.173   0.688  12.711 -1.0975 -0.8476 -0.0012
 4838TIP3   OH236004   5.693   3.377   3.745  0.3126  0.0421 -0.1384
 4838TIP3    H136005   5.609   3.405   3.780  0.9577  1.9705  0.0135
 4838TIP3    H236006   5.730   3.320   3.812  0.0954  1.0426  0.8772
 4839TIP3   OH236007   3.923   3.607  15.915 -0.1396 -0.1674  0.1190
 4839TIP3    H136008   3.985   3.539  15.889  2.5530  2.0285  0.3035
 4839TIP3    H236009   3.926   3.670  15.843  0.0416  1.3506  1.4058
 4840TIP3   OH236010   0.105   5.944   0.672 -0.7568 -0.3145  0.4080
 4840TIP3    H136011   0.063   6.029   0.658 -0.0345  0.4131  2.3063
 4840TIP3    H236012   0.174   5.962   0.735  1.0375 -1.8827 -0.9791
 4841TIP3   OH236013   5.056   3.285   2.865 -0.5761  0.0520  0.1983
 4841TIP3    H136014   5.016   3.359   2.820 -0.7505 -0.2500 -0.1500
 4841TIP3    H236015   4.997   3.264   2.936  0.8913  2.1162  2.1749
 4842TIP3   OH236016   0.144   2.865   5.145  0.7888 -0.3066  0.4225
 4842TIP3    H136017   0.100   2.816   5.214  1.0127 -0.6416  0.3331
 4842TIP3    H236018   0.230   2.886   5.183  0.3265  0.9167  0.8459
 4843TIP3   OH236019   6.367   5.934  11.578  0.2280 -0.1516  0.0662
 4843TIP3    H136020   6.387   5.867  11.512  0.2180  1.1233 -1.2691
 4843TIP3    H236021   6.359   6.015  11.529 -0.7500  0.6890  1.5260
 4844TIP3   OH236022   2.725   1.651   0.451  0.3341  0.0639  0.0610
 4844TIP3    H136023   2.815   1.662   0.484 -0.4037 -1.8955  3.0974
 4844TIP3    H236024   2.672   1.704   0.511 -0.7469 -0.7195 -0.1882
 4845TIP3   OH236025   5.548   4.460  11.628  0.0908 -0.0097 -0.5363
 4845TIP3    H136026   5.547   4.369  11.598 -0.7218  0.3019 -1.5024
 4845TIP3    H236027   5.614   4.502  11.574  2.5005 -0.5765  1.7581
 4846TIP3   OH236028   1.917   4.707  16.342  0.5825  0.0696  0.6736
 4846TIP3    H136029   1.990   4.673  16.394  1.8666  0.5668 -0.6945
 4846TIP3    H236030   1.866   4.629  16.318  0.0313 -0.1698  2.5253
 4847TIP3   OH236031   4.980   5.406  10.138 -0.1046  0.8900  0.1525
 4847TIP3    H136032   4.938   5.392  10.223 -0.7766  0.9674 -0.1672
 4847TIP3    H236033   5.069   5.374  10.150  0.1795  2.0063  1.2638
 4848TIP3   OH236034   3.099   5.856   0.676  0.4076 -0.2570 -0.1879
 4848TIP3    H136035   3.162   5.911   0.721  0.0812  1.3834 -1.6166
 4848TIP3    H236036   3.071   5.908   0.600 -2.4758 -0.9764  0.2371
 4849TIP3   OH236037   5.760   1.010   5.737 -0.6914 -0.0183 -0.4573
 4849TIP3    H136038   5.851   1.038   5.723 -1.5254  2.7076 -0.9911
 4849TIP3    H236039   5.723   1.004   5.649 -0.8820 -1.8960 -0.2899
 4850TIP3   OH236040   6.196   1.519   3.125 -0.0143  0.2555 -0.1128
 4850TIP3    H136041   6.206   1.493   3.217  3.5337 -0.1193 -0.4694
 4850TIP3    H236042   6.175   1.612   3.129 -0.5692  0.0996  1.0758
 4851TIP3   OH236043   2.027   1.148   1.614 -0.1995 -0.1726  0.2290
 4851TIP3    H136044   1.977   1.082   1.566  2.2433 -0.9442 -1.4994
 4851TIP3    H236045   1.990   1.232   1.586  0.0542 -0.6732 -1.7838
 4852TIP3   OH236046   6.212   6.017   1.219  0.3235  0.2920  0.0530
 4852TIP3    H136047   6.162   6.018   1.138  0.8693 -0.6806 -0.3109
 4852TIP3    H236048   6.258   5.933   1.218 -1.4287 -0.8061  2.4523
 4853TIP3   OH236049   2.937   4.392  13.720  0.2328  0.2877 -0.4546
 4853TIP3    H136050   2.929   4.488  13.721  0.8490  0.3460 -0.8051
 4853TIP3    H236051   3.021   4.375  13.763  2.1472  0.1538 -3.8688
 4854TIP3   OH236052   0.319   2.367  12.531  0.1413 -0.3936  0.1333
 4854TIP3    H136053   0.320   2.463  12.535  0.0470 -0.4082  0.6278
 4854TIP3    H236054   0.410   2.342  12.521  0.1030 -0.2331 -0.7033
 4855TIP3   OH236055   5.673   6.754  12.170 -0.7666  0.6954  0.3474
 4855TIP3    H136056   5.739   6.800  12.119  0.3995 -2.2775 -1.0352
 4855TIP3    H236057   5.593   6.763  12.119 -0.1981 -0.0783 -0.7105
 4856TIP3   OH236058   1.798   0.097  16.429 -0.0820  0.2844  0.4959
 4856TIP3    H136059   1.872   0.157  16.436 -0.2076  0.3963  0.9149
 4856TIP3    H236060   1.823   0.021  16.481  1.0895 -1.1070 -1.9493
 4857TIP3   OH236061   0.024   6.422   2.194  0.7312 -0.9161  0.0993
 4857TIP3    H136062   0.041   6.514   2.176 -0.4174 -0.4071  1.4255
 4857TIP3    H236063   0.034   6.414   2.289 -1.8023 -1.5471  0.3774
 4858TIP3   OH236064   1.669   5.492   5.612 -0.4691  0.8801 -0.5030
 4858TIP3    H136065   1.753   5.446   5.613 -0.3673  1.0548  0.8328
 4858TIP3    H236066   1.632   5.476   5.699  0.3152  4.6539  0.6895
 4859TIP3   OH236067   4.772   5.179  15.796  0.4416 -0.3556 -0.5405
 4859TIP3    H136068   4.831   5.190  15.721  2.1274  1.0700  0.9124
 4859TIP3    H236069   4.824   5.207  15.872 -1.3333 -1.3564  1.1363
 4860TIP3   OH236070   3.663   2.873  16.185  0.1132 -0.2557 -0.1358
 4860TIP3    H136071   3.679   2.840  16.096  1.5535 -1.0396  0.3907
 4860TIP3    H236072   3.713   2.954  16.190  1.8856 -1.3390  0.6378
 4861TIP3   OH236073   2.545   2.437  11.183  0.5853 -0.2291  0.0681
 4861TIP3    H136074   2.588   2.476  11.107  1.4193 -0.4414  0.4247
 4861TIP3    H236075   2.615   2.392  11.230 -0.2406 -1.6145  0.0191
 4862TIP3   OH236076   3.477   1.378   0.182 -0.4917  0.3653 -0.0248
 4862TIP3    H136077   3.487   1.365   0.277  1.5657  0.7868 -0.1314
 4862TIP3    H236078   3.496   1.292   0.144 -3.6746 -0.4640 -0.0323
 4863TIP3   OH236079   5.146   1.506  11.691  0.3774  0.2401 -0.2053
 4863TIP3    H136080   5.108   1.579  11.641  1.4045  1.8270  1.2028
 4863TIP3    H236081   5.080   1.437  11.686 -1.3184  1.7683 -0.4368
 4864TIP3   OH236082   2.467   0.630   4.035 -0.1350 -0.1376  0.2517
 4864TIP3    H136083   2.387   0.683   4.033  0.4142  0.6951 -0.6742
 4864TIP3    H236084   2.520   0.669   4.105 -0.9586 -1.3695  1.6100
 4865TIP3   OH236085   3.654   4.996  11.439  0.3676 -0.4980  0.5904
 4865TIP3    H136086   3.722   5.010  11.373 -0.5431 -1.9033 -0.7206
 4865TIP3    H236087   3.586   5.060  11.418 -0.1723 -1.3170 -0.2295
 4866TIP3   OH236088   5.275   1.625  13.197 -0.6975  0.4763  0.5842
 4866TIP3    H136089   5.240   1.555  13.141 -0.6599  0.8102  0.1344
 4866TIP3    H236090   5.248   1.601  13.285 -2.7832  1.1559  0.1837
 4867TIP3   OH236091   0.707   1.201   6.662  0.2027 -0.3748 -0.2587
 4867TIP3    H136092   0.734   1.112   6.685  2.4555  0.2174 -0.4016
 4867TIP3    H236093   0.748   1.218   6.577 -2.1010  0.0307 -1.3733
 4868TIP3   OH236094   4.703   3.286  16.457 -0.3004  0.2510 -0.2447
 4868TIP3    H136095   4.741   3.319  16.375 -1.8036  2.5776 -0.1225
 4868TIP3    H236096   4.755   3.209  16.479  1.2626  0.5735 -2.4652
 4869TIP3   OH236097   5.557   3.369  17.010  0.7260  0.1153 -0.4258
 4869TIP3    H136098   5.590   3.298  16.954  1.1300 -0.4712  0.5352
 4869TIP3    H236099   5.564   3.447  16.955 -1.2496 -0.7873 -2.1016
 4870TIP3   OH236100   0.398   0.168   5.352  0.4705 -0.2355  0.1453
 4870TIP3    H136101   0.443   0.111   5.289  1.3243  0.2378  0.3103
 4870TIP3    H236102   0.465   0.230   5.380 -0.7954  1.7905 -1.1030
 4871TIP3   OH236103   2.602   5.381  16.623  0.8003 -0.2771 -0.1912
 4871TIP3    H136104   2.610   5.428  16.540  0.7706 -1.4570 -0.8755
 4871TIP3    H236105   2.512   5.350  16.626  0.5018  0.6142  0.7689
 4872TIP3   OH236106   2.212   6.474   3.555 -0.3003 -0.4767  0.0017
 4872TIP3    H136107   2.143   6.434   3.502 -3.0983  3.0737  0.5425
 4872TIP3    H236108   2.181   6.464   3.645  0.3281  0.4636  0.3328
 4873TIP3   OH236109   2.306   3.707  12.666  0.9019  0.4437 -0.0613
 4873TIP3    H136110   2.337   3.620  12.692 -0.3718 -0.5951 -1.7570
 4873TIP3    H236111   2.230   3.722  12.723  0.8435  0.2254 -0.0771
 4874TIP3   OH236112   1.906   3.169  12.734  0.3963 -0.0835 -0.5661
 4874TIP3    H136113   1.963   3.100  12.699  1.1507  0.3552 -0.2052
 4874TIP3    H236114   1.957   3.249  12.726  0.4314  0.0943  1.1748
 4875TIP3   OH236115   5.015   2.127  15.170 -0.1983 -0.0235  0.7164
 4875TIP3    H136116   4.928   2.119  15.132  0.1663  1.5118 -0.5469
 4875TIP3    H236117   5.017   2.215  15.207  1.1424  0.3956 -0.2522
 4876TIP3   OH236118   1.949   2.177  10.629  0.5795 -0.2657  0.4994
 4876TIP3    H136119   1.938   2.270  10.649  0.8200  0.4995 -2.4812
 4876TIP3    H236120   2.041   2.169  10.605  0.3545 -1.0745 -0.1300
 4877TIP3   OH236121   2.044   3.212  15.197 -0.3541  0.0939 -0.2299
 4877TIP3    H136122   2.032   3.280  15.262 -0.2141 -1.2405  1.2569
 4877TIP3    H236123   1.978   3.146  15.219  0.4561 -0.9123 -0.7168
 4878TIP3   OH236124   3.233   1.770  11.001 -0.2619 -0.5582  0.2805
 4878TIP3    H136125   3.235   1.794  10.909  1.0605 -2.0101 -0.0935
 4878TIP3    H236126   3.292   1.695  11.009 -0.6016 -0.6846  2.2465
 4879TIP3   OH236127   2.440   1.357   0.367 -0.0547 -1.0041 -0.1212
 4879TIP3    H136128   2.520   1.304   0.357 -0.3620 -1.3379 -0.8592
 4879TIP3    H236129   2.471   1.442   0.397  0.9322 -0.0800 -3.3328
 4880TIP3   OH236130   3.593   5.984   5.809  0.1189  0.5766 -0.0216
 4880TIP3    H136131   3.679   6.009   5.776 -0.8734  3.3773 -0.8489
 4880TIP3    H236132   3.600   5.993   5.904  0.8082  0.5522 -0.0660
 4881TIP3   OH236133   1.346   2.987  14.196  0.0824 -0.7484 -0.3089
 4881TIP3    H136134   1.328   2.963  14.286 -0.5756 -0.7072 -0.4275
 4881TIP3    H236135   1.360   3.082  14.199 -1.2174 -0.5363 -0.4373
 4882TIP3   OH236136   4.913   5.933  16.858 -0.8217 -0.0002  0.6376
 4882TIP3    H136137   4.941   5.907  16.946 -1.1524  1.7977  1.3188
 4882TIP3    H236138   4.970   6.006  16.835 -0.5426 -0.6374 -0.7874
 4883TIP3   OH236139   0.244   0.231  14.672  1.0135 -0.0317 -0.5293
 4883TIP3    H136140   0.190   0.185  14.608 -1.0253  1.6554 -0.1219
 4883TIP3    H236141   0.299   0.290  14.619 -0.6927  1.3888 -0.8125
 4884TIP3   OH236142   6.847   3.277  12.314  0.5798 -0.4919 -0.3575
 4884TIP3    H136143   6.781   3.303  12.250  1.4850  0.8528 -0.8132
 4884TIP3    H236144   6.919   3.242  12.261  0.9778 -0.2036 -0.0164
 4885TIP3   OH236145   3.512   4.954  14.744 -0.1602 -0.2648  0.1776
 4885TIP3    H136146   3.561   4.882  14.782 -0.6696 -1.3947 -1.2158
 4885TIP3    H236147   3.421   4.925  14.745 -0.3195  0.1596 -0.8118
 4886TIP3   OH236148   0.598   1.711  17.108 -0.2953 -0.5220 -0.0270
 4886TIP3    H136149   0.503   1.718  17.114 -0.2279 -0.5395  1.4535
 4886TIP3    H236150   0.618   1.625  17.143  0.2320 -0.8086 -0.9930
 4887TIP3   OH236151   4.578   1.740   2.300  0.6734 -0.4627  0.0449
 4887TIP3    H136152   4.491   1.752   2.263  0.0340  1.4378  1.9692
 4887TIP3    H236153   4.635   1.795   2.246  1.1386 -3.0168 -2.3118
 4888TIP3   OH236154   2.997   3.154  17.091  0.5313  0.1734  0.0684
 4888TIP3    H136155   3.015   3.092  17.020 -0.9166  0.6554 -0.7637
 4888TIP3    H236156   3.070   3.143  17.151  1.5419 -0.6189 -1.2411
 4889TIP3   OH236157   5.427   6.736  15.556  0.0177  0.4659 -1.2355
 4889TIP3    H136158   5.405   6.655  15.510 -0.8183  0.2684 -0.5176
 4889TIP3    H236159   5.350   6.792  15.544 -0.4304  0.2238  0.3160
 4890TIP3   OH236160   1.801   4.252   5.387 -0.0290  0.3492 -0.2041
 4890TIP3    H136161   1.848   4.255   5.304  0.0990  0.9980 -0.1144
 4890TIP3    H236162   1.858   4.297   5.449 -0.4892  0.6090  0.0439
 4891TIP3   OH236163   0.496   3.979  13.182  0.0809 -0.1299 -0.1776
 4891TIP3    H136164   0.468   3.945  13.267 -0.9209  0.6788 -0.1669
 4891TIP3    H236165   0.567   4.039  13.202 -0.0091 -0.1032  0.0666
 4892TIP3   OH236166   2.133   2.185  13.118  0.7511 -0.1333 -0.2808
 4892TIP3    H136167   2.205   2.180  13.056  0.5675 -0.4348 -0.4702
 4892TIP3    H236168   2.165   2.242  13.188  1.7323 -1.4683  0.3877
 4893TIP3   OH236169   3.929   4.517   4.520  0.4472  0.2989 -0.0566
 4893TIP3    H136170   4.013   4.550   4.553  1.1215 -0.3092 -1.1292
 4893TIP3    H236171   3.866   4.585   4.544  1.7175  2.1782 -1.7750
 4894TIP3   OH236172   1.987   0.210   5.352  0.3184  0.4732  0.0140
 4894TIP3    H136173   2.081   0.205   5.371  0.3725 -0.9108 -0.5094
 4894TIP3    H236174   1.957   0.119   5.356 -0.6194  0.6676 -1.6824
 4895TIP3   OH236175   5.744   4.629   4.725 -0.2506 -0.1802 -0.2447
 4895TIP3    H136176   5.771   4.593   4.810  0.1469  0.0938 -0.2508
 4895TIP3    H236177   5.826   4.632   4.674 -0.0716  1.7097  0.1028
 4896TIP3   OH236178   0.867   2.473   6.111  0.8843 -0.3022 -0.6560
 4896TIP3    H136179   0.900   2.383   6.114  1.1375 -0.1880  0.6389
 4896TIP3    H236180   0.870   2.496   6.019 -0.6029 -2.1242 -1.2324
 4897TIP3   OH236181   3.951   3.891  10.374  0.4721  0.4192  0.1195
 4897TIP3    H136182   3.927   3.928  10.459  2.2047  2.6097 -0.2364
 4897TIP3    H236183   3.920   3.956  10.311 -0.3868 -0.9630 -0.9078
 4898TIP3   OH236184   4.698   4.524   3.976  0.1813  0.4782  0.1468
 4898TIP3    H136185   4.696   4.469   3.898  0.2889 -0.4476  0.7674
 4898TIP3    H236186   4.791   4.538   3.994  0.1553  0.7923  0.0378
 4899TIP3   OH236187   6.343   1.319   4.459  0.1375  0.2034 -0.3666
 4899TIP3    H136188   6.276   1.329   4.392 -4.2454 -0.4066  3.3989
 4899TIP3    H236189   6.331   1.229   4.491  2.9366  0.0233  0.4240
 4900TIP3   OH236190   5.406   4.900   1.823 -0.3182  0.0760  0.1779
 4900TIP3    H136191   5.312   4.905   1.840 -0.5506 -1.3459 -0.5480
 4900TIP3    H236192   5.439   4.841   1.891 -0.0929 -0.0906 -0.0773
 4901TIP3   OH236193   6.753   3.944  16.339  0.2115 -0.2819 -0.1141
 4901TIP3    H136194   6.742   3.912  16.429  2.9450 -1.8872 -0.2188
 4901TIP3    H236195   6.786   4.033  16.348 -2.4012  0.7538  0.2988
 4902TIP3   OH236196   0.633   4.249   1.225 -0.0551  0.1229 -0.2896
 4902TIP3    H136197   0.623   4.165   1.270  0.0863 -0.0350 -0.5469
 4902TIP3    H236198   0.548   4.266   1.186  0.0624 -0.1676 -0.6856
 4903TIP3   OH236199   5.547   6.133  11.521 -0.3060 -0.5858 -0.3076
 4903TIP3    H136200   5.581   6.171  11.439  0.6920 -0.8862 -0.0479
 4903TIP3    H236201   5.483   6.068  11.493 -0.0678 -0.5929 -0.8477
 4904TIP3   OH236202   6.410   3.233   3.509  0.1035  0.1550 -0.1127
 4904TIP3    H136203   6.351   3.307   3.525  0.8570  0.5435  0.8900
 4904TIP3    H236204   6.432   3.200   3.596  1.0346 -0.2568 -0.4982
 4905TIP3   OH236205   5.879   1.244   0.405  0.6716 -0.3053  0.2814
 4905TIP3    H136206   5.812   1.190   0.446 -0.3858  0.3311 -0.5374
 4905TIP3    H236207   5.892   1.204   0.319  2.1705 -1.0678  0.8298
 4906TIP3   OH236208   3.638   3.172   3.587 -0.4691  0.1345 -0.0118
 4906TIP3    H136209   3.681   3.196   3.669 -0.7723 -0.3441  0.2926
 4906TIP3    H236210   3.710   3.154   3.526 -0.1936 -1.4130  0.7145
 4907TIP3   OH236211   4.424   2.398   0.708  0.0509 -0.0496  0.0234
 4907TIP3    H136212   4.355   2.440   0.658 -0.2308  0.5815  0.9250
 4907TIP3    H236213   4.380   2.358   0.782  0.7178  1.0552  1.0587
 4908TIP3   OH236214   1.874   3.194   2.211  0.2413  0.0659 -0.6237
 4908TIP3    H136215   1.818   3.259   2.254  0.0422  0.5599 -1.6203
 4908TIP3    H236216   1.938   3.170   2.278  0.6746  1.7153 -0.4197
 4909TIP3   OH236217   3.764   1.971  15.041 -0.3225  0.2235  0.1396
 4909TIP3    H136218   3.808   2.054  15.020 -0.0529  0.0945  0.1894
 4909TIP3    H236219   3.833   1.905  15.034 -0.7438 -0.1288 -0.8192
 4910TIP3   OH236220   0.865   3.268  11.833  0.3497 -0.0935  0.4664
 4910TIP3    H136221   0.831   3.184  11.865 -0.4237  0.3371  0.8031
 4910TIP3    H236222   0.889   3.316  11.912  0.5418  0.1059  0.2866
 4911TIP3   OH236223   2.328   3.948   4.927  0.1308 -0.2551  0.3643
 4911TIP3    H136224   2.271   3.872   4.924  0.3647 -0.3931 -0.8931
 4911TIP3    H236225   2.411   3.915   4.960 -0.0087 -0.3785  0.5943
 4912TIP3   OH236226   2.793   6.434   1.337  0.4527 -0.1886  0.4045
 4912TIP3    H136227   2.770   6.343   1.352 -1.6353  0.6106  2.5063
 4912TIP3    H236228   2.856   6.455   1.406 -0.1214  0.3339  0.7690
 4913TIP3   OH236229   3.804   0.405  16.695 -0.1772 -0.3495  0.4210
 4913TIP3    H136230   3.844   0.321  16.720 -0.4391 -1.5803 -2.8255
 4913TIP3    H236231   3.744   0.383  16.623 -1.1714  2.4819  0.2413
 4914TIP3   OH236232   3.219   0.603  12.788  0.4815 -0.0775  0.2684
 4914TIP3    H136233   3.282   0.649  12.843 -0.5572  1.7120  0.0351
 4914TIP3    H236234   3.185   0.670  12.729 -2.3988 -0.6902  1.0766
 4915TIP3   OH236235   3.948   3.997   2.871  0.2719 -0.1255  0.5192
 4915TIP3    H136236   3.891   3.921   2.877  0.1493 -0.3240 -1.9864
 4915TIP3    H236237   3.912   4.060   2.935 -1.5569 -0.9712  0.3761
 4916TIP3   OH236238   4.586   5.243  15.450 -0.4933  0.6016 -0.2410
 4916TIP3    H136239   4.579   5.264  15.543  1.6992  0.4358  0.0322
 4916TIP3    H236240   4.497   5.248  15.416 -1.6469 -1.2360  2.2726
 4917TIP3   OH236241   1.039   6.205   3.829  0.4388  0.2516  0.1163
 4917TIP3    H136242   1.059   6.114   3.849 -0.9158  0.3726  2.2916
 4917TIP3    H236243   1.112   6.255   3.865  0.0245  0.1746  1.0770
 4918TIP3   OH236244   2.553   5.676   1.909 -0.0342  0.3609 -0.1420
 4918TIP3    H136245   2.478   5.646   1.961 -0.0487 -0.9458 -0.8637
 4918TIP3    H236246   2.569   5.765   1.938 -1.1105  0.2370  0.8865
 4919TIP3   OH236247   2.977   4.528  12.500  0.0426  0.3338  0.0193
 4919TIP3    H136248   3.047   4.475  12.463  0.7246  1.8620 -0.9599
 4919TIP3    H236249   3.012   4.561  12.582  0.1636  0.4675 -0.0875
 4920TIP3   OH236250   1.841   6.068   1.031  0.2081  0.1951  0.1817
 4920TIP3    H136251   1.897   6.123   1.085 -0.9091  1.2952  0.2671
 4920TIP3    H236252   1.839   6.111   0.946  0.6498 -0.6310 -0.2513
 4921TIP3   OH236253   5.694   0.173   4.460  0.2013  0.0548  0.1742
 4921TIP3    H136254   5.712   0.233   4.533  0.8522 -0.0809  0.1393
 4921TIP3    H236255   5.658   0.228   4.391 -1.1318  0.0692  0.8489
 4922TIP3   OH236256   2.877   5.284  16.646  0.1482 -0.7109  0.1965
 4922TIP3    H136257   2.786   5.313  16.656  0.4444  0.4328 -0.1916
 4922TIP3    H236258   2.879   5.196  16.683 -0.7424 -0.1085  1.7765
 4923TIP3   OH236259   0.698   4.635   0.669 -0.8473 -0.0955 -0.0365
 4923TIP3    H136260   0.734   4.569   0.610 -2.3550 -1.4692  0.4898
 4923TIP3    H236261   0.613   4.657   0.631 -0.9976  0.4454  0.5893
 4924TIP3   OH236262   4.974   3.959  13.206 -0.5675  0.4489 -0.4563
 4924TIP3    H136263   4.949   4.015  13.133  0.8048  1.0661 -0.4814
 4924TIP3    H236264   5.068   3.945  13.194 -0.3079  0.6124  1.2163
 4925TIP3   OH236265   4.000   4.791   1.620 -0.3653  0.4888 -0.2635
 4925TIP3    H136266   4.025   4.768   1.710 -0.6097  0.0227 -0.3119
 4925TIP3    H236267   4.062   4.743   1.566 -2.5309 -2.3406 -0.4593
 4926TIP3   OH236268   6.487   0.684   3.222  0.1174 -0.3372 -0.0287
 4926TIP3    H136269   6.476   0.768   3.178  0.4672 -0.0755  0.3716
 4926TIP3    H236270   6.467   0.619   3.155 -3.9675  0.0356  0.5643
 4927TIP3   OH236271   5.023   5.712   2.494  0.3097 -0.2069 -0.3031
 4927TIP3    H136272   4.959   5.703   2.424 -1.1855 -1.1205  1.1111
 4927TIP3    H236273   5.068   5.627   2.497 -0.3902 -0.5593  0.5295
 4928TIP3   OH236274   4.103   2.345   0.847 -0.5735  0.0528 -0.1524
 4928TIP3    H136275   4.106   2.254   0.875 -2.4224 -0.2307 -0.7381
 4928TIP3    H236276   4.030   2.383   0.895 -0.6406  0.8801 -0.8716
 4929TIP3   OH236277   0.453   2.808   0.468 -0.7427  0.5147  0.0653
 4929TIP3    H136278   0.522   2.875   0.470 -0.3177  0.1908 -2.0070
 4929TIP3    H236279   0.378   2.850   0.511  0.7240  0.8378  2.5022
 4930TIP3   OH236280   3.898   1.931  13.733 -0.3358  0.2819 -0.4036
 4930TIP3    H136281   3.848   1.853  13.757 -0.5373  0.4593 -0.2422
 4930TIP3    H236282   3.844   1.975  13.668  0.1290 -0.1065 -1.0729
 4931TIP3   OH236283   4.289   1.480   1.805 -0.5241 -0.1629 -0.2464
 4931TIP3    H136284   4.233   1.403   1.790 -0.4797  0.1112 -1.9953
 4931TIP3    H236285   4.286   1.493   1.900 -2.8789 -0.5858 -0.1822
 4932TIP3   OH236286   0.079   1.417  11.971 -0.1275  0.0572 -0.3149
 4932TIP3    H136287   0.027   1.362  12.030  0.0740  0.7117  0.4987
 4932TIP3    H236288   0.014   1.468  11.923 -0.2828 -0.2643 -0.4538
 4933TIP3   OH236289   6.783   4.014  14.119  0.1440  0.1559  0.2396
 4933TIP3    H136290   6.720   4.085  14.120  0.9468  0.8854 -0.2385
 4933TIP3    H236291   6.833   4.025  14.200 -1.3448 -1.3740  1.4375
 4934TIP3   OH236292   6.600   4.531   3.825 -0.4562  0.1369  0.1076
 4934TIP3    H136293   6.695   4.515   3.822 -0.3052  1.0085  0.0656
 4934TIP3    H236294   6.584   4.592   3.753 -1.1124 -0.2959 -0.1205
 4935TIP3   OH236295   0.714   2.235  11.229  0.4970  0.5142  0.1015
 4935TIP3    H136296   0.740   2.198  11.145 -0.5341  2.2889 -1.0793
 4935TIP3    H236297   0.760   2.319  11.234  0.9555  0.1943  1.5743
 4936TIP3   OH236298   2.496   0.322   1.578 -0.3800  0.0326 -0.4766
 4936TIP3    H136299   2.424   0.365   1.532 -0.4989  0.7032  0.2993
 4936TIP3    H236300   2.456   0.285   1.657 -0.2270 -1.3137 -1.0228
 4937TIP3   OH236301   4.729   4.541  12.387  0.1382 -0.1483 -0.2828
 4937TIP3    H136302   4.673   4.467  12.363  2.2603 -1.9125 -0.1049
 4937TIP3    H236303   4.686   4.580  12.462 -1.6697 -0.4146 -1.1167
 4938TIP3   OH236304   3.562   6.681  14.757 -0.0940  0.0472  0.1346
 4938TIP3    H136305   3.584   6.688  14.664  0.6902  0.4720  0.3406
 4938TIP3    H236306   3.486   6.623  14.760 -0.6084  0.6410 -0.8384
 4939TIP3   OH236307   0.566   2.950  13.807 -0.6240 -0.2775  0.6482
 4939TIP3    H136308   0.620   2.880  13.843  1.1778  1.1867  0.9301
 4939TIP3    H236309   0.574   3.022  13.870  0.3942  1.3886 -1.2661
 4940TIP3   OH236310   3.455   0.847  11.914 -0.4618 -0.0011  0.6296
 4940TIP3    H136311   3.542   0.810  11.932 -0.2172  0.3174  0.1296
 4940TIP3    H236312   3.395   0.793  11.965 -0.0537 -0.7447  0.3319
 4941TIP3   OH236313   1.150   4.703  13.997  0.3708  0.5857  0.3123
 4941TIP3    H136314   1.085   4.735  13.934  0.7841 -0.7862 -0.8558
 4941TIP3    H236315   1.105   4.708  14.081 -0.8143  0.8414 -0.3070
 4942TIP3   OH236316   4.388   1.114   4.113 -0.1195  0.1743  0.0181
 4942TIP3    H136317   4.383   1.190   4.055 -0.3118 -0.2019 -0.4636
 4942TIP3    H236318   4.358   1.147   4.198  0.4126  0.7969 -0.0187
 4943TIP3   OH236319   6.183   0.435  13.619 -0.4637  0.2295 -0.0022
 4943TIP3    H136320   6.146   0.469  13.700  1.8106  2.6041  0.1528
 4943TIP3    H236321   6.264   0.484  13.607  0.0437 -1.1266 -2.9384
 4944TIP3   OH236322   5.191   5.372  13.179 -0.5160  0.6351  0.0437
 4944TIP3    H136323   5.256   5.334  13.121  1.2440  0.3060  2.1092
 4944TIP3    H236324   5.210   5.466  13.178 -1.2796  0.7977 -0.7950
 4945TIP3   OH236325   4.281   0.045   0.102 -0.2881 -0.5577 -0.5970
 4945TIP3    H136326   4.194   0.079   0.079 -0.1408 -0.1003 -0.4872
 4945TIP3    H236327   4.332   0.056   0.023 -0.2729 -0.6424 -0.5990
 4946TIP3   OH236328   4.925   3.939  12.406  0.5632  0.5864  0.1439
 4946TIP3    H136329   4.918   4.011  12.468 -1.6058  1.5900 -1.1388
 4946TIP3    H236330   4.835   3.909  12.394  1.3907 -2.5339  0.7784
 4947TIP3   OH236331   2.532   0.328   3.306  0.1038 -0.8437  0.3659
 4947TIP3    H136332   2.614   0.325   3.355  0.2500  1.7829  0.4180
 4947TIP3    H236333   2.557   0.310   3.216  0.7646 -0.0229  0.3732
 4948TIP3   OH236334   4.487   4.830  10.916 -0.0990  1.0152 -0.2111
 4948TIP3    H136335   4.516   4.845  10.826  0.5230  1.6746  0.0876
 4948TIP3    H236336   4.568   4.811  10.964 -0.3583  1.2434  0.3199
 4949TIP3   OH236337   5.075   6.240   1.183  0.5285 -0.0962 -0.1666
 4949TIP3    H136338   5.105   6.193   1.261 -1.0740 -0.9101  0.0007
 4949TIP3    H236339   4.983   6.260   1.200  0.4599  0.7519 -1.3740
 4950TIP3   OH236340   3.473   3.129   2.001 -0.5866 -0.3930 -0.0290
 4950TIP3    H136341   3.394   3.137   1.947 -0.5945 -0.8214 -0.0848
 4950TIP3    H236342   3.442   3.088   2.082 -0.7625  1.1558  0.7300
 4951TIP3   OH236343   3.986   1.260   3.803  1.0446 -0.4955  0.5514
 4951TIP3    H136344   4.007   1.300   3.888 -1.5941  0.8436  0.6605
 4951TIP3    H236345   4.030   1.317   3.739  1.7320 -0.5868  0.9288
 4952TIP3   OH236346   5.310   5.983   0.027  0.0511 -0.1643 -0.0394
 4952TIP3    H136347   5.298   6.049  -0.041  0.1690 -0.2943 -0.1863
 4952TIP3    H236348   5.396   6.003   0.065 -0.9256  1.2605  1.5503
 4953TIP3   OH236349   1.249   2.999  15.355  0.1917  0.3290 -0.9557
 4953TIP3    H136350   1.198   2.968  15.279 -0.0100  0.0079 -0.6910
 4953TIP3    H236351   1.277   2.919  15.399  0.4354  0.5151 -0.7741
 4954TIP3   OH236352   3.185   5.135   4.325  0.0817 -0.6222  0.1896
 4954TIP3    H136353   3.278   5.123   4.305  0.3203 -1.4095  1.5838
 4954TIP3    H236354   3.184   5.152   4.420 -1.0720  1.1011 -0.0871
 4955TIP3   OH236355   1.230   6.774  12.671 -0.6543  0.0119 -0.3036
 4955TIP3    H136356   1.214   6.741  12.583 -0.7066 -3.4770  0.8703
 4955TIP3    H236357   1.166   6.729  12.726  0.5242  0.7395  1.7785
 4956TIP3   OH236358   1.078   5.326  16.484 -0.2039 -0.3471 -0.0199
 4956TIP3    H136359   1.081   5.416  16.453 -0.3345 -0.2783  0.1633
 4956TIP3    H236360   1.025   5.280  16.419  0.1265 -0.3597 -0.2803
 4957TIP3   OH236361   4.743   0.157  11.956  0.3611 -0.2511  0.0195
 4957TIP3    H136362   4.723   0.245  11.927  0.2485 -0.0723  0.6152
 4957TIP3    H236363   4.750   0.164  12.052 -4.0225 -1.6481  0.6593
 4958TIP3   OH236364   3.562   3.624  15.227  0.3273  0.4126  0.0497
 4958TIP3    H136365   3.627   3.587  15.286 -0.3683 -0.2545  0.4147
 4958TIP3    H236366   3.581   3.586  15.142  0.3385  0.1209  0.1831
 4959TIP3   OH236367   6.327   5.932  16.975  0.4453  0.2086  0.2381
 4959TIP3    H136368   6.337   5.957  17.067 -0.2126 -0.4883  0.5127
 4959TIP3    H236369   6.237   5.957  16.953  0.2130 -0.6727  0.1366
 4960TIP3   OH236370   5.066   4.113  12.965  0.0074 -1.0992  1.0266
 4960TIP3    H136371   5.010   4.190  12.955  0.8627 -0.3837  1.5148
 4960TIP3    H236372   5.046   4.059  12.889  0.2791  0.2138 -0.0168
 4961TIP3   OH236373   0.840   4.934  10.848  0.2634  0.1217  1.1019
 4961TIP3    H136374   0.897   4.970  10.780 -0.5281  0.5512  0.6476
 4961TIP3    H236375   0.797   4.860  10.806  1.7462 -1.2994  1.9761
 4962TIP3   OH236376   0.399   1.676   5.068 -0.2053  0.3684 -0.2986
 4962TIP3    H136377   0.442   1.749   5.113 -0.5714  0.3851  0.0369
 4962TIP3    H236378   0.383   1.708   4.979  0.4301  0.3762 -0.4120
 4963TIP3   OH236379   2.256   1.876   3.799 -0.1731 -0.0672  0.2301
 4963TIP3    H136380   2.171   1.852   3.762  0.3308  0.3443 -1.2651
 4963TIP3    H236381   2.235   1.939   3.868 -1.0987 -0.2315  0.1148
 4964TIP3   OH236382   3.431   4.287  11.807  0.3860  0.3047  0.1838
 4964TIP3    H136383   3.355   4.340  11.832  1.0876  1.8425 -0.7563
 4964TIP3    H236384   3.503   4.350  11.801  1.0723 -0.5876 -1.8581
 4965TIP3   OH236385   4.448   3.729  16.607 -0.2031  0.4696 -0.1749
 4965TIP3    H136386   4.445   3.766  16.519  0.5226  0.8702 -0.0391
 4965TIP3    H236387   4.541   3.711  16.622 -0.5921 -2.0737 -0.5043
 4966TIP3   OH236388   2.882   5.187  12.517 -0.1639 -0.1734  0.0476
 4966TIP3    H136389   2.865   5.110  12.462  1.0088 -0.3263 -0.1229
 4966TIP3    H236390   2.869   5.156  12.606  0.5445 -0.6399 -0.0089
 4967TIP3   OH236391   3.267   3.649  15.165 -0.5771 -0.0958 -0.5175
 4967TIP3    H136392   3.230   3.728  15.125  0.9490  1.2227  0.5561
 4967TIP3    H236393   3.355   3.643  15.129 -0.4186 -0.8965 -0.0119
 4968TIP3   OH236394   5.015   3.670  16.359  0.0616  0.6752 -0.1592
 4968TIP3    H136395   5.082   3.613  16.321  0.1125 -0.1860  1.1486
 4968TIP3    H236396   4.939   3.613  16.370  0.3397  0.6007  1.8415
 4969TIP3   OH236397   6.849   1.996  15.413  0.0216 -0.2505 -0.4732
 4969TIP3    H136398   6.856   1.963  15.503  1.8470  1.3976  0.0774
 4969TIP3    H236399   6.761   2.032  15.408  0.1767  0.4586  1.0235
 4970TIP3   OH236400   0.364   3.248  10.988 -0.6440  0.3925 -0.0978
 4970TIP3    H136401   0.436   3.221  10.931 -1.8342 -0.6768 -1.1514
 4970TIP3    H236402   0.297   3.282  10.928 -1.2524  0.8198  0.8033
 4971TIP3   OH236403   2.707   5.159  15.331 -0.4497 -0.2246 -0.5464
 4971TIP3    H136404   2.749   5.196  15.254 -1.6024  2.1478 -0.1442
 4971TIP3    H236405   2.613   5.174  15.317 -0.7040 -0.0174  1.1519
 4972TIP3   OH236406   3.493   1.166   0.387 -0.4117 -0.0533  0.1159
 4972TIP3    H136407   3.471   1.109   0.313 -0.6346 -0.5086  0.5245
 4972TIP3    H236408   3.505   1.106   0.461  0.5663  0.3250  0.2866
 4973TIP3   OH236409   3.169   3.181   6.775 -0.5204 -0.4190  0.1325
 4973TIP3    H136410   3.084   3.191   6.819 -0.6245 -0.9341  0.0525
 4973TIP3    H236411   3.227   3.147   6.843 -0.2838  0.2643  0.2807
 4974TIP3   OH236412   5.717   2.773   5.300  0.1258  0.5780  0.2645
 4974TIP3    H136413   5.666   2.693   5.293 -0.2600  0.6301  2.0995
 4974TIP3    H236414   5.668   2.837   5.248  0.0593 -0.1749 -0.6219
 4975TIP3   OH236415   3.657   5.616  12.590  0.2344  0.4808  0.2500
 4975TIP3    H136416   3.652   5.708  12.563 -1.4414  0.7000  1.1207
 4975TIP3    H236417   3.733   5.612  12.648  1.0518  1.0344 -0.7665
 4976TIP3   OH236418   3.442   5.997  15.871  0.2464 -0.1708 -0.1082
 4976TIP3    H136419   3.491   5.939  15.812  2.0056 -1.8682  2.7668
 4976TIP3    H236420   3.506   6.064  15.896  0.3238 -0.8439  1.6073
 4977TIP3   OH236421   0.248   2.916   5.962  0.6684  0.2574  0.7537
 4977TIP3    H136422   0.318   2.869   5.916 -0.7095  0.0185 -1.2707
 4977TIP3    H236423   0.170   2.862   5.946 -0.8852  2.8244 -1.1843
 4978TIP3   OH236424   3.482   1.380  15.696  0.4097 -0.1951  0.6778
 4978TIP3    H136425   3.445   1.468  15.703  0.2878 -0.0648 -1.0810
 4978TIP3    H236426   3.534   1.369  15.775 -0.1339  1.1816  1.2623
 4979TIP3   OH236427   2.076   3.084   3.832 -0.4164 -0.3526  0.0793
 4979TIP3    H136428   2.103   2.992   3.840 -2.2593 -1.2759 -2.8551
 4979TIP3    H236429   2.000   3.092   3.890 -0.3469 -0.7240  0.2251
 4980TIP3   OH236430   4.729   1.749  16.012 -0.2801 -0.3476  0.3906
 4980TIP3    H136431   4.784   1.820  16.044  0.9978 -0.0606 -2.1750
 4980TIP3    H236432   4.650   1.754  16.065  0.9121  1.1878  2.1452
 4981TIP3   OH236433   4.871   1.525  14.591  0.3198  0.0246 -0.1327
 4981TIP3    H136434   4.837   1.571  14.668 -0.2475 -0.3618 -0.1496
 4981TIP3    H236435   4.796   1.477  14.556  0.2486  1.1691 -1.6685
 4982TIP3   OH236436   5.766   4.481  15.968  0.4049 -0.0936 -0.1655
 4982TIP3    H136437   5.709   4.518  16.036  0.2360 -0.2248 -0.2355
 4982TIP3    H236438   5.840   4.444  16.017 -0.1256 -0.9443  0.0166
 4983TIP3   OH236439   5.948   3.918   1.627  0.3553  0.0498 -0.3132
 4983TIP3    H136440   5.920   3.943   1.539 -0.5295  0.9515  0.2103
 4983TIP3    H236441   6.044   3.921   1.623  0.3579 -0.6189 -1.4230
 4984TIP3   OH236442   5.585   2.862   3.327  0.8437  0.0884 -0.3625
 4984TIP3    H136443   5.655   2.808   3.363  1.7891  1.2714 -0.3892
 4984TIP3    H236444   5.622   2.950   3.320 -0.4815  0.6446 -0.8425
 4985TIP3   OH236445   3.105   2.111   5.375  0.4382  0.3650  0.7087
 4985TIP3    H136446   3.153   2.034   5.343  0.4550  0.0734  1.4004
 4985TIP3    H236447   3.044   2.075   5.439  1.1170  1.0262  1.7619
 4986TIP3   OH236448   1.727   3.276   4.753 -0.4454 -0.6501 -0.0509
 4986TIP3    H136449   1.678   3.205   4.710  0.5042 -0.8090 -0.9261
 4986TIP3    H236450   1.739   3.246   4.843  0.2176 -1.7848 -0.4836
 4987TIP3   OH236451   3.088   0.619  14.252 -0.0234  0.0324 -0.2687
 4987TIP3    H136452   3.158   0.653  14.308 -0.4689  0.6492 -0.0786
 4987TIP3    H236453   3.098   0.666  14.169  0.9361 -1.2230 -0.9076
 4988TIP3   OH236454   3.836   5.380  14.728 -0.2418  0.0037 -0.2899
 4988TIP3    H136455   3.806   5.293  14.755 -0.1017  0.2676  0.8027
 4988TIP3    H236456   3.845   5.428  14.811 -1.6015  1.4811 -0.9474
 4989TIP3   OH236457   3.382   3.205   2.793  0.0022  0.1603 -0.0561
 4989TIP3    H136458   3.372   3.226   2.700 -0.8897  0.0262 -0.0005
 4989TIP3    H236459   3.402   3.111   2.794 -2.7565 -0.5176 -0.0286
 4990TIP3   OH236460   3.122   5.681  12.964  0.2050 -0.5424 -0.4135
 4990TIP3    H136461   3.133   5.694  13.058 -0.0277 -2.5727 -0.0649
 4990TIP3    H236462   3.190   5.737  12.925 -0.5867  1.4199  0.8410
 4991TIP3   OH236463   4.711   4.317  15.940 -0.7453 -0.5626  0.2053
 4991TIP3    H136464   4.778   4.264  15.897 -0.2100  0.7889 -0.6739
 4991TIP3    H236465   4.760   4.375  15.998 -1.1072  0.5386 -0.5536
 4992TIP3   OH236466   3.522   2.739   2.079  0.0085  0.0680  0.0380
 4992TIP3    H136467   3.608   2.764   2.045  0.1327  0.1955  0.4435
 4992TIP3    H236468   3.533   2.737   2.174 -0.6939  1.0267  0.1508
 4993TIP3   OH236469   1.615   0.070  15.488  0.4830 -0.8061  0.1017
 4993TIP3    H136470   1.668  -0.003  15.521  2.3998  0.5813  0.2314
 4993TIP3    H236471   1.677   0.142  15.479 -1.2896  0.7111 -0.3944
 4994TIP3   OH236472   5.608   1.646   4.141  0.0050  0.5134 -0.4474
 4994TIP3    H136473   5.693   1.611   4.169  0.0602  0.7463 -0.3192
 4994TIP3    H236474   5.621   1.741   4.139 -0.3169  0.5632 -0.2195
 4995TIP3   OH236475   5.014   5.511   1.942  0.0980  0.3111 -0.0638
 4995TIP3    H136476   4.940   5.552   1.897 -0.8526 -0.4509  0.7544
 4995TIP3    H236477   5.086   5.573   1.931 -1.2647  2.2112  1.1031
 4996TIP3   OH236478   3.144   1.681   3.883  0.4714  0.5420 -0.4144
 4996TIP3    H136479   3.179   1.603   3.925  1.1403  1.4299  0.7106
 4996TIP3    H236480   3.091   1.647   3.810 -2.4613 -1.1910  2.2635
 4997TIP3   OH236481   1.410   6.312  13.208 -0.0249 -0.0494 -0.0831
 4997TIP3    H136482   1.338   6.346  13.262  1.4047 -0.3584  2.1605
 4997TIP3    H236483   1.370   6.241  13.157 -1.3843 -0.0317  0.8922
 4998TIP3   OH236484   5.256   6.123  13.191  0.2738 -0.5593  0.2202
 4998TIP3    H136485   5.265   6.133  13.286  0.6889  1.4249  0.0122
 4998TIP3    H236486   5.346   6.115  13.159  0.1512 -0.8901 -0.0563
 4999TIP3   OH236487   6.475   1.887   2.772  0.2289 -0.4688  0.0136
 4999TIP3    H136488   6.421   1.881   2.693  0.9254 -1.0898 -0.4275
 4999TIP3    H236489   6.544   1.949   2.749  0.6471 -0.9337 -0.0049
 5000TIP3   OH236490   5.930   2.548  13.962  0.3816  0.1964 -0.5524
 5000TIP3    H136491   5.953   2.520  13.874  0.6646  0.4951 -0.5745
 5000TIP3    H236492   5.927   2.467  14.013 -1.2952 -0.1642 -1.1628
 5001TIP3   OH236493   1.052   2.669   1.575 -0.2435  0.0128 -0.0488
 5001TIP3    H136494   1.118   2.601   1.556 -1.4719 -0.7431 -1.9262
 5001TIP3    H236495   1.060   2.730   1.502 -2.2957 -0.6673 -0.9024
 5002TIP3   OH236496   0.613   5.399  11.616 -0.2838 -0.6295 -0.7179
 5002TIP3    H136497   0.557   5.380  11.541  1.1573  0.8630 -2.2579
 5002TIP3    H236498   0.553   5.439  11.680 -2.2674 -4.9927  0.5242
 5003TIP3   OH236499   3.497   1.923  17.098 -0.7455 -0.1076  0.3388
 5003TIP3    H136500   3.509   2.018  17.090 -0.4049 -0.2655 -1.5038
 5003TIP3    H236501   3.404   1.909  17.082 -0.6078 -0.1656 -0.4292
 5004TIP3   OH236502   6.465   1.883  16.004 -0.3830 -0.4474 -0.0130
 5004TIP3    H136503   6.475   1.977  15.986 -2.5527 -0.1090  0.2391
 5004TIP3    H236504   6.502   1.840  15.927  1.5212  0.5380  0.2808
 5005TIP3   OH236505   2.456   0.446   3.779 -0.4074 -0.1335  0.2020
 5005TIP3    H136506   2.505   0.493   3.711  1.1810 -0.0591  1.3425
 5005TIP3    H236507   2.506   0.461   3.859 -2.1844 -0.2892  1.3970
 5006TIP3   OH236508   5.791   0.933  16.050  0.0550 -0.0743 -0.1544
 5006TIP3    H136509   5.858   0.996  16.078 -0.5775 -0.9440  3.9609
 5006TIP3    H236510   5.709   0.982  16.053 -0.4085 -0.7865  2.8501
 5007TIP3   OH236511   4.530   3.150   3.728 -0.0300 -0.4698 -0.4489
 5007TIP3    H136512   4.530   3.188   3.816 -1.2436 -1.8628  0.1866
 5007TIP3    H236513   4.585   3.073   3.735  0.1032 -0.4261 -0.9900
 5008TIP3   OH236514   0.866   1.718  12.593 -0.4868 -0.5118 -0.1147
 5008TIP3    H136515   0.889   1.673  12.512 -0.0187  0.2690 -0.4293
 5008TIP3    H236516   0.822   1.652  12.646  0.6269 -1.4770 -0.3610
 5009TIP3   OH236517   1.765   5.239  14.423  0.0325  0.8774 -0.4800
 5009TIP3    H136518   1.832   5.307  14.430  0.0639  0.8356 -0.3760
 5009TIP3    H236519   1.809   5.159  14.450 -0.3887  1.0565  0.7871
 5010TIP3   OH236520   4.744   3.146  16.720  0.0762  0.2959  0.0257
 5010TIP3    H136521   4.697   3.216  16.765  1.5484  0.7829  0.8732
 5010TIP3    H236522   4.827   3.186  16.693  1.6762 -1.4991  1.9738
 5011TIP3   OH236523   3.969   2.007  12.253 -0.0154  0.1249  0.9019
 5011TIP3    H136524   3.913   2.081  12.278 -0.8976 -0.1130 -0.3044
 5011TIP3    H236525   3.915   1.930  12.269  0.8247 -0.2716  1.9511
 5012TIP3   OH236526   6.315   2.165   3.174  0.2502  0.7898 -0.2536
 5012TIP3    H136527   6.238   2.207   3.137 -0.4598 -0.7107 -0.5395
 5012TIP3    H236528   6.345   2.226   3.242 -0.0525  2.2736 -1.4012
 5013TIP3   OH236529   3.827   3.728   2.062  0.0574  0.2997 -0.0246
 5013TIP3    H136530   3.818   3.702   2.153  0.6614  1.8481  0.5220
 5013TIP3    H236531   3.749   3.782   2.045  0.9023  1.6583  0.2284
 5014TIP3   OH236532   4.007   4.368   1.200  0.0759  0.3927 -0.1938
 5014TIP3    H136533   4.096   4.369   1.164  1.0995  0.1105  2.1690
 5014TIP3    H236534   4.018   4.393   1.292 -2.2877  0.1806  0.2060
 5015TIP3   OH236535   2.110   4.557   0.744 -0.0728  0.0343  0.1790
 5015TIP3    H136536   2.165   4.481   0.764  0.7082  0.6845  0.5659
 5015TIP3    H236537   2.038   4.552   0.808 -0.4246 -0.7589 -0.2590
 5016TIP3   OH236538   1.845   6.648  17.066 -0.0424 -0.0165 -0.0837
 5016TIP3    H136539   1.935   6.630  17.091  0.7478  1.7183 -1.4969
 5016TIP3    H236540   1.811   6.703  17.137  0.0627 -0.4781  0.3326
 5017TIP3   OH236541   3.035   6.028  14.732  0.4156 -0.2106 -0.5970
 5017TIP3    H136542   3.102   6.096  14.723 -0.3292  0.4430 -1.2899
 5017TIP3    H236543   2.953   6.076  14.743 -0.3140 -0.9565 -2.4143
 5018TIP3   OH236544   1.793   0.933   5.523 -0.3501 -0.1572 -0.3858
 5018TIP3    H136545   1.820   0.847   5.493 -0.8979 -1.0712  1.6026
 5018TIP3    H236546   1.701   0.940   5.496 -0.2046 -0.0475 -0.8537
 5019TIP3   OH236547   3.389   4.621  16.848  0.0648 -0.1954 -0.2479
 5019TIP3    H136548   3.440   4.590  16.773 -0.4473 -1.1536 -0.2164
 5019TIP3    H236549   3.321   4.677  16.809 -0.1587 -0.6347 -0.4968
 5020TIP3   OH236550   1.701   0.560   1.282 -0.2006  0.6983  0.2088
 5020TIP3    H136551   1.775   0.574   1.341 -0.0243 -2.0229  0.8002
 5020TIP3    H236552   1.704   0.632   1.220  1.6737  1.7832  1.4843
 5021TIP3   OH236553   2.873   3.405  11.570  0.2738 -0.2591 -0.6159
 5021TIP3    H136554   2.803   3.373  11.512 -0.3538 -0.7534  0.3760
 5021TIP3    H236555   2.931   3.454  11.512 -0.1819 -0.9526 -1.7115
 5022TIP3   OH236556   3.374   3.350  12.352  0.1518 -0.3152 -0.0404
 5022TIP3    H136557   3.361   3.408  12.427  0.8095  1.3718 -1.1769
 5022TIP3    H236558   3.466   3.363  12.326  0.1882 -1.5246 -0.6175
 5023TIP3   OH236559   1.679   5.731  10.180 -0.5478 -0.2525  0.3435
 5023TIP3    H136560   1.619   5.781  10.125 -1.0624 -0.1393  0.9815
 5023TIP3    H236561   1.751   5.791  10.199  0.1418 -0.6112 -0.9923
 5024TIP3   OH236562   6.216   1.506  12.536 -0.0084 -0.2703 -0.5641
 5024TIP3    H136563   6.186   1.503  12.626 -0.8778 -0.1583 -0.8380
 5024TIP3    H236564   6.310   1.524  12.542 -0.1497  0.2272  0.2995
 5025TIP3   OH236565   5.934   5.698   2.132  0.1001  0.8349  0.6082
 5025TIP3    H136566   6.017   5.727   2.170 -0.2985  1.2131  1.1888
 5025TIP3    H236567   5.886   5.660   2.205  0.8948 -2.0717 -0.2166
 5026TIP3   OH236568   5.770   2.669  16.220 -0.4585 -0.0103  0.3049
 5026TIP3    H136569   5.721   2.590  16.200  0.8057 -1.0887  1.2165
 5026TIP3    H236570   5.744   2.691  16.310  0.2691 -0.2800  0.5961
 5027TIP3   OH236571   6.348   0.306  10.813 -0.8569  0.0174  0.5858
 5027TIP3    H136572   6.345   0.402  10.815  1.1035  0.1674 -0.6083
 5027TIP3    H236573   6.259   0.280  10.791 -1.6616  1.5011  1.8789
 5028TIP3   OH236574   0.407   2.214  15.496 -0.7627  0.1827  0.2339
 5028TIP3    H136575   0.420   2.130  15.453 -0.7511 -0.0451  0.6780
 5028TIP3    H236576   0.313   2.225  15.502 -0.7755  0.5668 -0.5212
 5029TIP3   OH236577   6.584   5.611   5.167  0.6598  0.8709 -0.3132
 5029TIP3    H136578   6.514   5.587   5.228  0.0028  0.9718 -1.0193
 5029TIP3    H236579   6.648   5.657   5.222  0.5093  0.1644  0.4673
 5030TIP3   OH236580   3.145   3.958   0.156  0.0985  0.1079 -0.2964
 5030TIP3    H136581   3.057   3.947   0.121 -0.4506  0.4139  0.9214
 5030TIP3    H236582   3.170   4.047   0.133 -0.0600  0.1413 -0.3388
 5031TIP3   OH236583   2.827   0.149  13.018 -0.2922 -0.0687  0.3202
 5031TIP3    H136584   2.736   0.128  12.999 -0.4690  1.4024 -0.6137
 5031TIP3    H236585   2.824   0.198  13.100 -0.5893  1.5529 -0.6115
 5032TIP3   OH236586   2.704   3.558   6.507 -0.0654  0.2791 -0.0296
 5032TIP3    H136587   2.691   3.616   6.433 -1.1322  1.3165  0.9265
 5032TIP3    H236588   2.615   3.535   6.536  0.2572 -2.8637 -1.0921
 5033TIP3   OH236589   4.548   6.422   6.270  0.4265  0.1276 -0.3282
 5033TIP3    H136590   4.473   6.401   6.213  0.5591 -1.1481 -0.0434
 5033TIP3    H236591   4.522   6.504   6.313  0.1709  0.9415 -1.9415
 5034TIP3   OH236592   4.999   1.358   5.147 -0.1482  0.0308 -0.3590
 5034TIP3    H136593   4.905   1.377   5.151  0.2190  2.0868 -0.2363
 5034TIP3    H236594   5.007   1.289   5.081 -1.7988 -0.7038  0.1576
 5035TIP3   OH236595   4.710   0.553  15.404  0.4234  0.2245 -0.5386
 5035TIP3    H136596   4.630   0.605  15.405  0.6065  0.5046 -0.2796
 5035TIP3    H236597   4.779   0.616  15.381  0.6847  0.1632  0.0483
 5036TIP3   OH236598   2.071   2.008  15.182  0.3229  0.4838  0.0010
 5036TIP3    H136599   2.146   1.963  15.144 -0.7899 -0.3029 -1.3581
 5036TIP3    H236600   2.097   2.027  15.273  2.0817  0.1152 -0.3982
 5037TIP3   OH236601   1.507   4.017   5.180 -0.6804  0.2397 -0.4689
 5037TIP3    H136602   1.423   4.036   5.222 -0.5379  0.2868 -0.2018
 5037TIP3    H236603   1.572   4.028   5.250 -0.5006 -0.2912 -0.5505
 5038TIP3   OH236604   4.997   5.109   3.467 -0.6077  0.1754 -0.2928
 5038TIP3    H136605   5.087   5.099   3.435  0.5787 -1.3026  3.0189
 5038TIP3    H236606   4.956   5.024   3.448 -0.3270 -0.2108  0.7427
 5039TIP3   OH236607   5.452   1.497   6.868 -0.0527  0.3035  0.2545
 5039TIP3    H136608   5.398   1.418   6.870 -1.1535  1.0290  0.2815
 5039TIP3    H236609   5.474   1.508   6.775  0.6709 -0.3791  0.3292
 5040TIP3   OH236610   5.272   1.625   0.173 -0.1560 -0.0243  0.1196
 5040TIP3    H136611   5.214   1.549   0.176 -1.4846  0.7216 -2.7408
 5040TIP3    H236612   5.229   1.691   0.227  0.2615 -0.7880  1.4322
 5041TIP3   OH236613   6.068   6.197   0.175 -0.4951  0.5441  0.5195
 5041TIP3    H136614   6.094   6.287   0.193 -0.5666  0.6908 -0.0950
 5041TIP3    H236615   6.033   6.165   0.259  2.2940  0.0860  1.6235
 5042TIP3   OH236616   3.925   2.472   2.604  0.4271  0.6351 -0.0981
 5042TIP3    H136617   3.990   2.450   2.537  1.5704  0.1251  1.1494
 5042TIP3    H236618   3.975   2.516   2.673 -0.8190  1.6709  0.1902
 5043TIP3   OH236619   2.628   4.703  10.940 -0.1157 -0.0298  0.5074
 5043TIP3    H136620   2.563   4.661  10.996  0.7777 -1.1820  0.7250
 5043TIP3    H236621   2.710   4.660  10.962  1.1926  2.8768  1.8052
 5044TIP3   OH236622   3.148   5.192   3.242 -0.2686 -0.2855  0.0267
 5044TIP3    H136623   3.147   5.282   3.275 -1.1846 -0.2411 -0.1053
 5044TIP3    H236624   3.205   5.145   3.303 -0.4986  0.1880  0.6188
 5045TIP3   OH236625   6.397   1.990   3.503 -0.3624  0.0568 -0.7989
 5045TIP3    H136626   6.347   2.071   3.502  0.7406  0.7660 -0.9243
 5045TIP3    H236627   6.374   1.946   3.422 -0.2290  0.7310 -1.2133
 5046TIP3   OH236628   5.842   5.304   3.780  0.1897  0.4112 -0.1197
 5046TIP3    H136629   5.800   5.246   3.717 -0.7306  1.1904 -0.2452
 5046TIP3    H236630   5.809   5.391   3.758 -0.9841  0.5799  2.0902
 5047TIP3   OH236631   1.572   3.102  16.860  0.3836  0.1256  0.5446
 5047TIP3    H136632   1.656   3.058  16.850  0.0277 -0.2932 -0.6904
 5047TIP3    H236633   1.553   3.138  16.774 -1.0981 -0.5158  0.5713
 5048TIP3   OH236634   3.463   0.455  16.683  0.0932 -0.3378  0.5306
 5048TIP3    H136635   3.547   0.425  16.650  0.1816 -0.9380  1.2732
 5048TIP3    H236636   3.447   0.401  16.761 -0.6258  0.2771  0.8215
 5049TIP3   OH236637   3.894   0.785  14.975 -0.5675  0.3771  0.3736
 5049TIP3    H136638   3.827   0.851  14.956 -0.6260  0.0626 -0.5496
 5049TIP3    H236639   3.885   0.720  14.906  1.8231  1.1987 -0.8265
 5050TIP3   OH236640   0.072   2.389   4.810  0.4654 -0.2880  0.0690
 5050TIP3    H136641  -0.005   2.346   4.771  1.1238  0.2045 -1.8810
 5050TIP3    H236642   0.116   2.319   4.858  0.4930 -1.3706 -1.4513
 5051TIP3   OH236643   2.286   2.375   0.102 -0.2010 -0.4401 -0.2682
 5051TIP3    H136644   2.290   2.433   0.177  3.0645  1.3886 -1.6521
 5051TIP3    H236645   2.334   2.297   0.129 -0.1009 -0.3109 -0.0777
 5052TIP3   OH236646   4.258   6.502   4.895 -0.1009 -0.4400  0.3961
 5052TIP3    H136647   4.203   6.456   4.832 -1.1906  0.5092  0.6128
 5052TIP3    H236648   4.312   6.559   4.841 -1.5626  0.9339  0.3004
 5053TIP3   OH236649   5.275   5.890  16.823  0.2664  0.3558  0.1447
 5053TIP3    H136650   5.253   5.800  16.847 -0.2016  0.2746 -0.5450
 5053TIP3    H236651   5.227   5.944  16.886  1.1491  0.1188  1.0363
 5054TIP3   OH236652   6.474   0.464  13.620 -0.1333  0.5651 -0.8110
 5054TIP3    H136653   6.564   0.496  13.623 -0.5615  1.7909  2.3652
 5054TIP3    H236654   6.472   0.405  13.544  3.6817 -0.5305 -0.2622
 5055TIP3   OH236655   3.467   6.636   0.694 -0.3798 -0.3104 -0.4095
 5055TIP3    H136656   3.401   6.665   0.632 -0.4099  1.3076  0.3308
 5055TIP3    H236657   3.455   6.541   0.700 -1.3658 -0.2882 -1.7020
 5056TIP3   OH236658   2.562   5.413   0.225  0.1638  0.4386 -0.4652
 5056TIP3    H136659   2.477   5.370   0.221  0.1203  0.2983  1.2051
 5056TIP3    H236660   2.617   5.353   0.277  0.8136  1.2562 -0.1818
 5057TIP3   OH236661   0.942   3.042   1.665  0.2724  0.0357  0.9092
 5057TIP3    H136662   0.992   3.026   1.745  2.6006 -0.1492 -0.4574
 5057TIP3    H236663   0.935   3.137   1.660  0.9552  0.0916  0.8839
 5058TIP3   OH236664   3.804   6.748  12.738  0.3289  0.2243 -0.7962
 5058TIP3    H136665   3.813   6.841  12.760 -1.6879  0.6539 -1.5304
 5058TIP3    H236666   3.890   6.722  12.706  2.2263  0.6555  3.3779
 5059TIP3   OH236667   2.957   6.009  12.144 -0.7241 -0.2860 -0.5739
 5059TIP3    H136668   2.985   5.946  12.210 -0.6472  0.2379 -0.0990
 5059TIP3    H236669   2.949   5.957  12.064  0.8903 -0.6082 -0.5668
 5060TIP3   OH236670   1.564   4.170  12.668 -0.4018  0.1074  0.1199
 5060TIP3    H136671   1.574   4.215  12.752 -0.4731  0.0527  0.1583
 5060TIP3    H236672   1.474   4.136  12.670 -0.2497 -0.2975  0.2220
 5061TIP3   OH236673   3.318   0.629  12.020 -0.1043 -0.6004 -0.2246
 5061TIP3    H136674   3.307   0.540  12.056 -0.8834 -0.5997 -0.4380
 5061TIP3    H236675   3.228   0.660  12.007  0.1580  0.3639  0.1881
 5062TIP3   OH236676   3.426   1.839   0.214 -0.2104 -0.2743 -0.5862
 5062TIP3    H136677   3.450   1.881   0.132 -2.0294  2.6668  0.2329
 5062TIP3    H236678   3.343   1.794   0.196 -1.3507  1.5515 -0.1110
 5063TIP3   OH236679   0.323   4.434  15.312 -0.0112 -0.3019 -0.3867
 5063TIP3    H136680   0.344   4.355  15.361  0.5984 -1.5022 -2.4724
 5063TIP3    H236681   0.366   4.505  15.359  2.3486 -1.6894 -0.3503
 5064TIP3   OH236682   6.451   4.079   1.945  0.5259  0.3278  0.1122
 5064TIP3    H136683   6.495   4.151   1.992  2.1212 -0.2493 -0.4195
 5064TIP3    H236684   6.488   4.082   1.857  2.2912 -2.4208  0.6447
 5065TIP3   OH236685   1.440   5.535  11.289 -0.1671 -0.2613  0.0255
 5065TIP3    H136686   1.520   5.498  11.326 -0.5790  0.5376  1.8382
 5065TIP3    H236687   1.378   5.462  11.288  0.3652 -0.7169 -0.7569
 5066TIP3   OH236688   5.104   0.822   3.777  0.2391  0.0186  0.3459
 5066TIP3    H136689   5.179   0.830   3.719 -0.0866 -0.4493 -0.1585
 5066TIP3    H236690   5.049   0.755   3.735 -0.2016 -0.0201  0.9767
 5067TIP3   OH236691   0.314   1.827  12.580  0.0709 -0.4634  0.1541
 5067TIP3    H136692   0.358   1.762  12.635 -0.8402 -1.0721  0.1772
 5067TIP3    H236693   0.334   1.911  12.622  1.7905 -0.6379 -0.2370
 5068TIP3   OH236694   5.941   2.690   3.884 -0.0091  0.7740 -0.4010
 5068TIP3    H136695   5.884   2.722   3.814  0.2409  0.9905 -0.5067
 5068TIP3    H236696   5.896   2.612   3.918  0.2942  0.1552 -1.3791
 5069TIP3   OH236697   4.112   3.186   1.586  0.1954 -0.1903  0.2455
 5069TIP3    H136698   4.099   3.280   1.596  0.6661  0.0238 -0.9096
 5069TIP3    H236699   4.172   3.178   1.511 -3.0120 -1.4918 -2.4769
 5070TIP3   OH236700   1.403   5.895  13.312  0.6536 -0.2169  0.0612
 5070TIP3    H136701   1.484   5.866  13.269  0.9776  0.3221  0.2996
 5070TIP3    H236702   1.423   5.982  13.344  0.5062 -0.6983  1.5350
 5071TIP3   OH236703   1.169   5.129  16.088 -0.3861  0.4432  0.3261
 5071TIP3    H136704   1.133   5.082  16.163  1.0634  1.0405  1.4521
 5071TIP3    H236705   1.106   5.198  16.070 -1.3482 -0.4531  0.2001
 5072TIP3   OH236706   2.606   0.493   1.791 -0.3205  0.3094 -0.3017
 5072TIP3    H136707   2.569   0.406   1.807  1.0560 -0.1070  0.8163
 5072TIP3    H236708   2.598   0.505   1.696 -2.4302 -0.1084 -0.2420
 5073TIP3   OH236709   4.127   5.822   4.474 -0.0301  0.2306 -0.0617
 5073TIP3    H136710   4.052   5.848   4.420 -0.9898 -0.0887  1.0912
 5073TIP3    H236711   4.089   5.780   4.551  1.3416 -0.0799  0.4816
 5074TIP3   OH236712   1.893   6.194  11.592 -0.4294 -0.3402  0.1933
 5074TIP3    H136713   1.910   6.100  11.587  0.5897 -0.1508 -0.0479
 5074TIP3    H236714   1.899   6.215  11.685 -1.4655 -0.6460  0.3434
 5075TIP3   OH236715   6.636   6.793  10.250 -0.1688  0.1241 -0.4187
 5075TIP3    H136716   6.591   6.716  10.214  1.5202 -0.5432 -1.1871
 5075TIP3    H236717   6.719   6.758  10.284  0.0716  1.4174  0.3616
 5076TIP3   OH236718   2.792   5.985  12.460  0.5986 -0.7439 -0.7487
 5076TIP3    H136719   2.757   6.071  12.483 -0.7411 -1.1503 -1.2046
 5076TIP3    H236720   2.884   5.988  12.489  1.2285  1.5887 -2.7395
 5077TIP3   OH236721   0.572   6.688   3.356  0.2889  0.3680 -0.1554
 5077TIP3    H136722   0.562   6.636   3.436  0.0780  0.5307 -0.0750
 5077TIP3    H236723   0.660   6.726   3.364 -0.1990  1.3915  0.6043
 5078TIP3   OH236724   4.903   4.927   2.607 -0.7673 -0.4018  0.2269
 5078TIP3    H136725   4.898   4.913   2.701 -1.0619 -1.2877  0.0883
 5078TIP3    H236726   4.958   5.005   2.597  1.6121 -1.8549  1.0320
 5079TIP3   OH236727   2.688   0.333  10.624 -0.6349  0.0568  0.5607
 5079TIP3    H136728   2.602   0.372  10.639 -0.9314 -0.6609  0.7639
 5079TIP3    H236729   2.717   0.370  10.541 -0.7282  1.0206  0.9538
 5080TIP3   OH236730   6.057   2.374   1.169 -0.0052 -0.6104  0.4048
 5080TIP3    H136731   6.074   2.386   1.075 -0.7484 -0.9194  0.2228
 5080TIP3    H236732   6.134   2.326   1.201  0.9962  0.8526  0.2866
 5081TIP3   OH236733   2.724   5.618  16.783 -0.1989  0.0684 -0.5789
 5081TIP3    H136734   2.670   5.548  16.746 -3.3564  1.8041  0.3860
 5081TIP3    H236735   2.676   5.646  16.861  1.9513  2.0396  0.1228
 5082TIP3   OH236736   0.064   5.933  11.709 -0.4322 -0.8802  0.4357
 5082TIP3    H136737   0.034   5.842  11.716 -0.6328 -1.1289 -2.4368
 5082TIP3    H236738  -0.006   5.977  11.660  1.9843 -0.5633 -3.0345
 5083TIP3   OH236739   3.985   3.291  10.771 -0.3380 -0.0347  0.0947
 5083TIP3    H136740   3.896   3.309  10.801 -0.5167  0.4254 -0.6853
 5083TIP3    H236741   4.037   3.289  10.851 -1.3913 -2.6179  0.8463
 5084TIP3   OH236742   5.568   5.093   0.259 -0.3007 -0.1992 -0.1297
 5084TIP3    H136743   5.494   5.154   0.258 -0.3996 -0.3177 -1.0545
 5084TIP3    H236744   5.594   5.088   0.351 -0.1866  1.3732 -0.0472
 5085TIP3   OH236745   2.228   5.570   2.663  0.1873  0.6718 -0.2277
 5085TIP3    H136746   2.250   5.620   2.742 -0.2406  0.0468  0.2963
 5085TIP3    H236747   2.302   5.510   2.652 -0.2436  0.0172  0.3304
 5086TIP3   OH236748   6.699   5.726   0.539 -0.0229 -0.6421  0.1866
 5086TIP3    H136749   6.633   5.714   0.607  1.3941 -1.1378  1.5207
 5086TIP3    H236750   6.649   5.730   0.457 -1.7351 -0.3568  1.2162
 5087TIP3   OH236751   5.721   3.382  10.899 -0.1298  0.0074 -0.6657
 5087TIP3    H136752   5.665   3.368  10.976 -0.0831  0.3068 -0.5777
 5087TIP3    H236753   5.666   3.355  10.825 -0.6393  0.9262 -0.6437
 5088TIP3   OH236754   2.296   2.607  15.800  0.5397 -0.6561 -0.3648
 5088TIP3    H136755   2.298   2.666  15.724  0.8839 -0.1460  0.0403
 5088TIP3    H236756   2.222   2.548  15.782  0.5220 -0.4411 -1.0216
 5089TIP3   OH236757   1.007   2.628   6.489 -0.3508 -0.3211  0.0860
 5089TIP3    H136758   1.046   2.566   6.551  0.2929  0.7709  0.7900
 5089TIP3    H236759   0.913   2.621   6.505 -0.2541 -0.7642  0.4932
 5090TIP3   OH236760   5.537   2.733   5.534  0.1595  0.4219 -0.3700
 5090TIP3    H136761   5.621   2.703   5.499 -0.1680  0.1763 -0.9508
 5090TIP3    H236762   5.560   2.804   5.595  0.8574 -0.3065  0.2313
 5091TIP3   OH236763   3.032   1.394   4.761 -0.3180  0.1297  0.1775
 5091TIP3    H136764   3.092   1.465   4.784  2.5634 -0.3452 -4.5004
 5091TIP3    H236765   3.077   1.315   4.789 -0.9343 -0.0882  0.5676
 5092TIP3   OH236766   2.168   3.679   1.475 -0.1991 -0.5345  0.7880
 5092TIP3    H136767   2.094   3.624   1.449  0.3665 -0.4921 -1.0429
 5092TIP3    H236768   2.130   3.764   1.496 -0.7689 -0.8111  0.8812
 5093TIP3   OH236769   0.635   2.560   6.248  0.2117 -0.3743 -0.2337
 5093TIP3    H136770   0.685   2.479   6.255 -1.5560 -1.6745 -1.7512
 5093TIP3    H236771   0.682   2.612   6.182  1.5061  0.0054  0.9457
 5094TIP3   OH236772   2.188   3.279   0.530  0.4244  0.7492  0.1582
 5094TIP3    H136773   2.222   3.310   0.614  1.1950  0.1022  0.0998
 5094TIP3    H236774   2.245   3.319   0.464 -1.0143  2.3788 -0.1863
 5095TIP3   OH236775   1.230   3.687  15.283 -0.4418  0.5726  0.8997
 5095TIP3    H136776   1.272   3.603  15.305  0.4277  0.8127  0.1984
 5095TIP3    H236777   1.195   3.674  15.195 -0.7811  0.7717  1.0059
 5096TIP3   OH236778   0.256   3.639  13.102 -0.0576  0.5729 -0.6037
 5096TIP3    H136779   0.279   3.731  13.116  1.1806  0.0571  1.0210
 5096TIP3    H236780   0.325   3.590  13.145 -0.9060 -1.1441 -1.1079
 5097TIP3   OH236781   5.312   0.575   5.516  0.1506  0.1349 -0.4652
 5097TIP3    H136782   5.329   0.541   5.604 -1.7177  1.0054  0.2726
 5097TIP3    H236783   5.323   0.499   5.459 -1.9910 -1.3009  0.9143
 5098TIP3   OH236784   1.548   2.236  13.523 -0.5621 -0.0001 -0.1766
 5098TIP3    H136785   1.559   2.300  13.594  1.6428  2.4852 -2.5518
 5098TIP3    H236786   1.495   2.282  13.458  0.4730 -0.8143 -1.6411
 5099TIP3   OH236787   5.980   1.727   4.690  0.1746 -0.0803  0.5409
 5099TIP3    H136788   5.985   1.690   4.778 -0.4246  0.8449  0.9794
 5099TIP3    H236789   6.054   1.688   4.643 -0.3150 -1.6728  1.0190
 5100TIP3   OH236790   1.221   6.474   4.594  0.0475  0.2164  0.1201
 5100TIP3    H136791   1.254   6.404   4.539 -0.0657 -0.8544  1.3554
 5100TIP3    H236792   1.157   6.432   4.652 -0.0735  1.3386  0.8495
 5101TIP3   OH236793   4.022   4.668   4.984 -0.4256 -0.3671 -0.5700
 5101TIP3    H136794   4.037   4.583   5.027  1.1614  1.1547  2.1441
 5101TIP3    H236795   3.929   4.684   4.994 -0.6221 -1.4534 -0.4926
 5102TIP3   OH236796   5.024   2.746   1.736  0.1004  0.2231 -0.5849
 5102TIP3    H136797   5.102   2.705   1.698 -0.8021  0.2521 -2.6244
 5102TIP3    H236798   5.055   2.789   1.816  1.9196 -0.7559 -0.7211
 5103TIP3   OH236799   6.014   3.913  16.487 -0.4131  0.4486 -0.6039
 5103TIP3    H136800   6.049   3.833  16.526  0.8336  0.6548 -1.2565
 5103TIP3    H236801   6.039   3.982  16.548 -2.9532  0.2064  0.8437
 5104TIP3   OH236802   1.282   5.128  12.208 -0.1620 -0.2548  0.0523
 5104TIP3    H136803   1.345   5.112  12.138 -0.7079 -0.8867 -0.3078
 5104TIP3    H236804   1.205   5.077  12.183 -0.4425 -0.3182  1.0051
 5105TIP3   OH236805   1.638   3.641  13.141 -0.0472 -0.1454  0.0646
 5105TIP3    H136806   1.725   3.603  13.127 -0.0580 -1.3429  2.6602
 5105TIP3    H236807   1.654   3.734  13.152  1.1869 -0.5301  2.0315
 5106TIP3   OH236808   6.010   3.503  14.479  0.2836  0.1270 -0.1825
 5106TIP3    H136809   5.940   3.528  14.539  0.0851 -0.1410 -0.2995
 5106TIP3    H236810   5.971   3.509  14.392  0.0299 -1.1985 -0.1788
 5107TIP3   OH236811   5.234   6.820  14.811 -0.0128  0.4178 -0.2118
 5107TIP3    H136812   5.210   6.912  14.822 -0.4764  0.6188 -2.4077
 5107TIP3    H236813   5.153   6.772  14.831  0.8382  0.2289  3.2924
 5108TIP3   OH236814   3.083   0.840  14.972  0.1455  0.2639 -0.3031
 5108TIP3    H136815   3.175   0.843  14.948  0.3402  0.0309  0.3784
 5108TIP3    H236816   3.083   0.806  15.062 -0.7165 -1.6711 -0.9704
 5109TIP3   OH236817   1.966   0.380   0.987  0.2660  0.1927 -0.1404
 5109TIP3    H136818   1.890   0.325   0.969  0.5163 -0.2319  0.0857
 5109TIP3    H236819   2.007   0.340   1.064  1.2698 -0.1586 -0.8404
 5110TIP3   OH236820   4.275   0.797  10.365 -0.6521 -0.2052 -0.6128
 5110TIP3    H136821   4.275   0.703  10.349  0.2657 -0.0013 -2.0495
 5110TIP3    H236822   4.213   0.810  10.436 -2.5504 -1.6292 -1.9285
 5111TIP3   OH236823   1.223   3.458   6.714 -0.0762  0.2828 -0.4704
 5111TIP3    H136824   1.133   3.488   6.729 -0.4028 -0.5356 -0.7627
 5111TIP3    H236825   1.216   3.394   6.643  0.4558 -1.2781  0.8207
 5112TIP3   OH236826   4.386   0.993  13.296  0.3151 -0.3581 -0.0748
 5112TIP3    H136827   4.335   1.006  13.375 -0.4563  1.8792 -0.8611
 5112TIP3    H236828   4.474   1.025  13.318  0.4623 -0.9608  0.2392
 5113TIP3   OH236829   1.060   4.414  10.824 -0.1427 -0.3243 -0.6513
 5113TIP3    H136830   1.057   4.509  10.840 -0.6416 -0.6606  1.4141
 5113TIP3    H236831   1.029   4.405  10.734  0.1100  1.4860 -0.9646
 5114TIP3   OH236832   5.374   2.607   0.313  0.4279 -0.1502  0.9114
 5114TIP3    H136833   5.284   2.615   0.345  0.3322 -0.9667  0.8614
 5114TIP3    H236834   5.412   2.694   0.326 -0.0120 -0.1094  2.0035
 5115TIP3   OH236835   0.285   5.713   0.130  0.2341  0.2766 -0.3247
 5115TIP3    H136836   0.273   5.761   0.048 -1.2487  0.7757  0.1697
 5115TIP3    H236837   0.211   5.653   0.134 -0.6583  1.4317  1.4480
 5116TIP3   OH236838   3.885   6.344   5.723  0.9865  0.6279  0.2630
 5116TIP3    H136839   3.862   6.413   5.785 -1.3250 -0.0328  0.2071
 5116TIP3    H236840   3.849   6.374   5.639 -1.8118 -1.4384  0.6107
 5117TIP3   OH236841   1.726   6.345  16.123  0.5026 -0.2698 -0.0619
 5117TIP3    H136842   1.775   6.405  16.179  0.1025 -1.1481  1.2683
 5117TIP3    H236843   1.715   6.266  16.176 -0.0629 -1.0624 -1.3145
 5118TIP3   OH236844   6.237   3.278   2.761 -1.0654 -0.0786  0.3018
 5118TIP3    H136845   6.299   3.206   2.775  0.0112  0.6033 -0.7566
 5118TIP3    H236846   6.151   3.237   2.765 -0.5279 -1.1813  1.0807
 5119TIP3   OH236847   5.843   5.686  11.835 -0.1600 -0.7005  0.2617
 5119TIP3    H136848   5.808   5.770  11.807  1.2663 -0.8077 -2.2026
 5119TIP3    H236849   5.917   5.708  11.891 -1.1987 -0.4007  1.5536
 5120TIP3   OH236850   0.376   1.834  11.383 -0.5548  0.0877 -0.1878
 5120TIP3    H136851   0.362   1.770  11.453 -1.1660  0.0010 -0.3876
 5120TIP3    H236852   0.300   1.825  11.326 -0.0123  0.0824 -0.9290
 5121TIP3   OH236853   0.278   3.300  14.106 -0.1604  0.3743 -0.0854
 5121TIP3    H136854   0.278   3.365  14.035 -0.9145  0.9715  0.4481
 5121TIP3    H236855   0.196   3.253  14.096 -0.3537  0.5823  0.4980
 5122TIP3   OH236856   5.321   6.393  13.892  0.0835  0.0876  0.0437
 5122TIP3    H136857   5.399   6.435  13.855  0.1233 -0.6840 -0.7809
 5122TIP3    H236858   5.284   6.343  13.819  0.3286 -1.7305  1.1057
 5123TIP3   OH236859   1.936   4.484   1.536  0.1607  0.0879  0.4744
 5123TIP3    H136860   1.842   4.474   1.551  0.3380 -0.4563  1.3053
 5123TIP3    H236861   1.966   4.397   1.509  0.2339  0.5439 -1.0276
 5124TIP3   OH236862   3.697   6.540  13.996 -0.2714  0.1873  0.2712
 5124TIP3    H136863   3.735   6.591  13.926  0.0135 -0.1025  0.2111
 5124TIP3    H236864   3.603   6.540  13.977 -0.0464 -1.2980 -1.0757
 5125TIP3   OH236865   6.306   2.018   2.572 -0.1490 -0.3810 -0.1743
 5125TIP3    H136866   6.248   1.996   2.500 -0.2654  0.2248 -0.2723
 5125TIP3    H236867   6.354   2.096   2.542  0.2719 -0.5136  0.1433
 5126TIP3   OH236868   0.980   2.108   3.838  0.4178 -0.3747  0.1136
 5126TIP3    H136869   0.978   2.056   3.757  1.8113  2.3108 -1.8175
 5126TIP3    H236870   0.925   2.059   3.899 -0.5105 -2.6832 -2.3474
 5127TIP3   OH236871   3.981   3.557   1.327 -0.2714 -0.5787  0.2585
 5127TIP3    H136872   3.963   3.494   1.397 -0.7073 -1.0856 -0.3019
 5127TIP3    H236873   3.906   3.550   1.269  1.0386 -1.7239 -1.4110
 5128TIP3   OH236874   0.764   2.757   6.836  0.4204  0.4914 -0.4929
 5128TIP3    H136875   0.798   2.829   6.783  2.4060  0.4632  0.6304
 5128TIP3    H236876   0.840   2.728   6.887 -0.8349 -1.0594  0.5651
 5129TIP3   OH236877   5.851   4.299  11.166 -0.1364  0.5270  0.0915
 5129TIP3    H136878   5.930   4.284  11.114 -0.7378 -0.5829 -0.5546
 5129TIP3    H236879   5.837   4.394  11.161 -0.1266  0.4731 -1.7326
 5130TIP3   OH236880   0.041   0.875  15.017 -0.1376 -0.5394 -0.8683
 5130TIP3    H136881  -0.052   0.877  14.997 -0.1342  1.9022 -0.9687
 5130TIP3    H236882   0.084   0.899  14.935  0.4349  0.1987 -0.3752
 5131TIP3   OH236883   4.456   1.238  14.330  0.2024  0.0988  0.1834
 5131TIP3    H136884   4.546   1.224  14.302 -0.2066 -0.7024 -0.8272
 5131TIP3    H236885   4.437   1.329  14.309  1.3977  0.9117  2.3251
 5132TIP3   OH236886   0.967   3.880   0.768  0.4562  0.2560 -0.4233
 5132TIP3    H136887   0.903   3.951   0.778  0.0526 -0.3178  1.4926
 5132TIP3    H236888   1.038   3.902   0.828  1.3008  0.0627 -1.3313
 5133TIP3   OH236889   4.707   2.823  14.297  0.4734  0.0070  0.8158
 5133TIP3    H136890   4.736   2.763  14.366 -0.1298 -0.5722  0.5751
 5133TIP3    H236891   4.622   2.856  14.328 -1.0257 -2.1480 -0.7196
 5134TIP3   OH236892   5.248   6.530  12.049  0.1074 -0.2661  0.5467
 5134TIP3    H136893   5.316   6.594  12.067  0.3793 -0.5613  0.5746
 5134TIP3    H236894   5.171   6.582  12.027 -0.0213  0.0971  1.8005
 5135TIP3   OH236895   4.709   6.137  12.829 -0.4611  0.1162  0.6325
 5135TIP3    H136896   4.774   6.189  12.781 -1.2549  1.1523  0.6579
 5135TIP3    H236897   4.639   6.122  12.766 -1.2572  1.0116  1.2737
 5136TIP3   OH236898   2.903   4.967  12.351 -0.4738 -0.6919 -0.3469
 5136TIP3    H136899   2.953   4.896  12.393 -1.7527  0.0835  2.7864
 5136TIP3    H236900   2.812   4.938  12.357 -0.8835  0.5554 -0.4219
 5137TIP3   OH236901   2.504   5.557   4.115  0.2798  0.1236  0.2781
 5137TIP3    H136902   2.423   5.507   4.113  0.0537  0.4397  1.0586
 5137TIP3    H236903   2.540   5.541   4.203  0.6675  0.6023  0.2137
 5138TIP3   OH236904   4.567   2.324   5.385 -0.4178  0.1160 -0.1751
 5138TIP3    H136905   4.525   2.300   5.303 -1.0046  0.1902  0.1010
 5138TIP3    H236906   4.638   2.383   5.359 -0.7036  0.2662 -0.6129
 5139TIP3   OH236907   3.409   2.959   2.970 -0.0025  0.1760  0.3247
 5139TIP3    H136908   3.333   2.908   2.998 -1.1181  1.9306  0.6647
 5139TIP3    H236909   3.445   2.995   3.052  0.5741  0.1995  0.0678
 5140TIP3   OH236910   5.020   3.957  16.812  0.3904  0.2949  0.4720
 5140TIP3    H136911   4.947   3.896  16.804  0.6271  0.1864 -1.3733
 5140TIP3    H236912   4.979   4.040  16.835 -0.2270  0.0247  0.3647
 5141TIP3   OH236913   1.349   4.543  12.928 -0.3647 -0.1876  0.1548
 5141TIP3    H136914   1.425   4.506  12.884 -0.6426 -1.9101  1.0540
 5141TIP3    H236915   1.302   4.590  12.859 -1.4219 -3.7491 -1.8209
 5142TIP3   OH236916   4.734   2.949  14.588 -0.4580 -0.0727  0.3396
 5142TIP3    H136917   4.639   2.950  14.576 -0.7457 -0.4700  2.2514
 5142TIP3    H236918   4.757   3.039  14.609 -0.0397  0.4962 -2.2081
 5143TIP3   OH236919   1.072   3.068  11.872 -0.4129 -0.6509  0.4440
 5143TIP3    H136920   0.995   3.117  11.846 -0.6160 -0.3897  1.4778
 5143TIP3    H236921   1.142   3.134  11.877 -0.2455 -0.7927  0.0458
 5144TIP3   OH236922   5.741   3.877   2.835  0.0304 -0.7545  0.1695
 5144TIP3    H136923   5.768   3.810   2.772 -0.6010  0.4061 -1.4272
 5144TIP3    H236924   5.735   3.957   2.783  2.6283  1.0345  2.3670
 5145TIP3   OH236925   2.272   4.743  12.052 -0.1547  0.3258 -0.0795
 5145TIP3    H136926   2.242   4.832  12.034 -2.0451 -0.1416  0.5052
 5145TIP3    H236927   2.357   4.754  12.095  0.0108  1.7927 -0.7322
 5146TIP3   OH236928   0.134   4.286   3.351  0.1186 -0.4225  0.3869
 5146TIP3    H136929   0.062   4.253   3.296  0.1800 -0.8406  0.5539
 5146TIP3    H236930   0.092   4.314   3.432  0.1432 -0.6692  0.4856
 5147TIP3   OH236931   1.873   1.625   0.268 -0.0404 -0.2422 -0.7241
 5147TIP3    H136932   1.896   1.712   0.300  0.5076  0.5875 -3.1494
 5147TIP3    H236933   1.780   1.616   0.288  0.0223  0.6588  0.0636
 5148TIP3   OH236934   4.640   2.030  15.270  0.1701  0.2721 -0.2297
 5148TIP3    H136935   4.693   2.092  15.220 -0.8485  0.0864 -1.5918
 5148TIP3    H236936   4.701   1.960  15.293  0.6381  0.3077 -1.3232
 5149TIP3   OH236937   4.897   3.779  14.197 -0.0433 -0.2581 -0.2345
 5149TIP3    H136938   4.848   3.820  14.269  2.2353 -0.2389  1.4097
 5149TIP3    H236939   4.878   3.834  14.121 -2.1939 -0.0188  0.4013
 5150TIP3   OH236940   1.448   4.582   4.282 -0.4125  0.0290 -0.4076
 5150TIP3    H136941   1.528   4.613   4.324 -0.3038 -1.8670  0.9287
 5150TIP3    H236942   1.478   4.512   4.224 -1.1485 -1.6145  1.0930
 5151TIP3   OH236943   3.043   1.281  13.613  0.1403  0.8092 -0.0861
 5151TIP3    H136944   3.059   1.310  13.522 -0.0243 -0.4633 -0.5335
 5151TIP3    H236945   3.053   1.186  13.610 -2.7925  0.3777  0.5768
 5152TIP3   OH236946   4.976   2.558   5.434 -0.9470  0.5581  0.1554
 5152TIP3    H136947   4.949   2.501   5.506 -2.8777  0.1671 -0.8272
 5152TIP3    H236948   5.061   2.523   5.406 -1.9867 -1.7426 -0.2813
 5153TIP3   OH236949   4.755   6.102   0.875 -0.5584 -0.2563 -1.2146
 5153TIP3    H136950   4.796   6.061   0.951 -0.8199  0.3172 -0.7548
 5153TIP3    H236951   4.826   6.110   0.811 -0.1815 -0.1641 -0.7925
 5154TIP3   OH236952   4.553   1.678   4.635  0.7122  0.0445  0.2610
 5154TIP3    H136953   4.610   1.697   4.710 -1.5489  0.1874  2.0374
 5154TIP3    H236954   4.561   1.584   4.622  0.6147 -0.0939  1.1397
 5155TIP3   OH236955   1.398   5.735  16.612  0.4131  0.1130  0.0534
 5155TIP3    H136956   1.421   5.661  16.669 -0.2820 -0.4713 -0.4146
 5155TIP3    H236957   1.334   5.785  16.662  1.6487  1.0075  0.8058
 5156TIP3   OH236958   3.810   2.320   1.229  0.4365 -0.4617  0.2209
 5156TIP3    H136959   3.882   2.383   1.223 -0.2885  0.4801  0.9792
 5156TIP3    H236960   3.731   2.373   1.215 -0.2231 -1.0789  1.4344
 5157TIP3   OH236961   6.164   0.135  13.626  0.3904 -0.3122 -0.4942
 5157TIP3    H136962   6.182   0.228  13.619 -0.5607 -0.0733  0.1055
 5157TIP3    H236963   6.212   0.095  13.554  3.1290  0.2941  0.8668
 5158TIP3   OH236964   2.494   3.917  13.713  0.5346 -0.7885 -0.5095
 5158TIP3    H136965   2.457   4.003  13.731 -1.7554 -1.6769 -0.5900
 5158TIP3    H236966   2.577   3.915  13.761  1.3442  1.9200 -1.6270
 5159TIP3   OH236967   1.345   5.539  12.040  0.0478 -0.8890  0.0849
 5159TIP3    H136968   1.411   5.553  12.108  0.0331 -0.1239 -0.0488
 5159TIP3    H236969   1.320   5.627  12.013 -0.0416 -1.1846 -0.8221
 5160TIP3   OH236970   4.316   0.334  14.393 -0.3157 -0.2632  0.4876
 5160TIP3    H136971   4.235   0.313  14.346 -0.6366 -0.2961  1.0371
 5160TIP3    H236972   4.383   0.280  14.351  0.0235  1.8111 -1.8320
 5161TIP3   OH236973   3.069   6.475   3.790  0.2424 -0.2685  0.2353
 5161TIP3    H136974   3.118   6.443   3.866 -0.1848 -0.2193  0.5365
 5161TIP3    H236975   3.063   6.399   3.732 -0.3234 -0.6021  0.7173
 5162TIP3   OH236976   4.016   1.419  13.941 -0.2417  0.4616 -0.1787
 5162TIP3    H136977   3.927   1.393  13.967  0.5855 -1.9274  0.4465
 5162TIP3    H236978   4.020   1.401  13.847 -0.6041  1.2284 -0.3518
 5163TIP3   OH236979   5.585   6.316   1.007  0.0205 -0.1215 -0.3655
 5163TIP3    H136980   5.502   6.315   0.959  0.6360 -0.4726 -1.4726
 5163TIP3    H236981   5.567   6.364   1.087 -1.1847  0.0344 -0.7204
 5164TIP3   OH236982   3.868   2.152   2.389 -0.1431  0.2856 -0.3086
 5164TIP3    H136983   3.785   2.107   2.408  0.7127 -0.7840  1.1404
 5164TIP3    H236984   3.929   2.117   2.454  1.8444 -0.0610 -2.2391
 5165TIP3   OH236985   6.643   4.674  11.313  0.3910  0.7203 -0.1051
 5165TIP3    H136986   6.629   4.738  11.384  2.3665  0.8137  0.2605
 5165TIP3    H236987   6.630   4.589  11.355 -1.4502  0.8111 -0.4021
 5166TIP3   OH236988   2.937   3.282  13.710  0.0238  0.3088 -0.0015
 5166TIP3    H136989   2.945   3.348  13.779 -0.1695  0.6163 -0.2695
 5166TIP3    H236990   2.966   3.201  13.751 -0.7748  0.3443  0.6576
 5167TIP3   OH236991   2.154   0.344   1.640  0.3426  0.2927 -0.3098
 5167TIP3    H136992   2.168   0.414   1.576 -0.1552 -0.5401 -1.3629
 5167TIP3    H236993   2.162   0.263   1.589 -0.9981 -0.3745  0.4720
 5168TIP3   OH236994   1.524   1.872  12.674  0.0580 -0.2855  0.6081
 5168TIP3    H136995   1.490   1.956  12.646  0.7114 -0.2150 -0.0140
 5168TIP3    H236996   1.567   1.889  12.758  0.1708  0.0038  0.4915
 5169TIP3   OH236997   0.724   5.578  17.057  0.3258 -0.4223 -0.3243
 5169TIP3    H136998   0.642   5.590  17.105  0.7337  1.6662 -0.0567
 5169TIP3    H236999   0.790   5.563  17.125  0.6037  0.7512 -0.3061
 5170TIP3   OH237000   0.425   0.407   3.305 -0.0456  0.4176  0.0281
 5170TIP3    H137001   0.449   0.455   3.226 -1.8584 -0.1521 -0.9186
 5170TIP3    H237002   0.368   0.467   3.354  0.4212  0.4677  0.5271
 5171TIP3   OH237003   1.498   0.872   5.666  0.2499  0.2026  0.1782
 5171TIP3    H137004   1.509   0.852   5.573 -1.5481 -0.2170  0.0187
 5171TIP3    H237005   1.469   0.963   5.668 -0.1624  0.0726  0.2815
 5172TIP3   OH237006   3.738   1.253   3.350  0.0655  0.5846 -0.0221
 5172TIP3    H137007   3.802   1.298   3.295  1.5189 -0.9400  0.3506
 5172TIP3    H237008   3.751   1.289   3.437  0.8121 -0.0954  0.1576
 5173TIP3   OH237009   3.562   1.031  15.779 -0.1725 -0.5691  0.0404
 5173TIP3    H137010   3.535   1.062  15.866 -1.1663 -0.4204 -0.3186
 5173TIP3    H237011   3.482   0.998  15.739 -0.0024  0.6289 -1.3721
 5174TIP3   OH237012   0.117   1.779  10.747  0.2463  0.1161  0.0216
 5174TIP3    H137013   0.102   1.857  10.694 -0.7056  0.7891  1.2208
 5174TIP3    H237014   0.077   1.799  10.832 -0.6405 -1.9091  0.1613
 5175TIP3   OH237015   5.557   6.065  14.340 -0.1119  0.0131 -0.4856
 5175TIP3    H137016   5.584   6.110  14.420 -0.8429  0.7989 -0.6631
 5175TIP3    H237017   5.631   6.077  14.280  0.2412 -0.1693 -0.0942
 5176TIP3   OH237018   6.540   5.187  13.714  0.1010  0.6062 -0.0722
 5176TIP3    H137019   6.514   5.277  13.692 -2.1771  0.4664  1.7143
 5176TIP3    H237020   6.562   5.191  13.807  3.7487  0.0163 -0.7686
 5177TIP3   OH237021   5.994   1.656  14.641  0.1171  0.9126  0.6222
 5177TIP3    H137022   6.028   1.580  14.689 -0.9444  0.2924  0.4227
 5177TIP3    H237023   6.014   1.638  14.549  0.2148  1.0655  0.6129
 5178TIP3   OH237024   0.234   4.406  16.438  0.4687  0.2165 -0.1087
 5178TIP3    H137025   0.271   4.470  16.499  0.6454 -0.2619  0.3002
 5178TIP3    H237026   0.249   4.322  16.481  0.6573 -0.1366 -0.8517
 5179TIP3   OH237027   1.122   1.287  15.409  0.6977  0.1085 -0.2869
 5179TIP3    H137028   1.085   1.317  15.326 -0.5458  0.1167  0.2479
 5179TIP3    H237029   1.162   1.203  15.388 -1.9323 -1.2237 -0.4259
 5180TIP3   OH237030   0.041   1.460  16.925  0.1214 -0.1690 -0.4187
 5180TIP3    H137031  -0.012   1.538  16.938  0.6751  0.3098 -0.9404
 5180TIP3    H237032  -0.020   1.396  16.887 -1.1263 -1.0907  2.8226
 5181TIP3   OH237033   4.507   3.996   1.233 -0.0338  0.1998  0.3488
 5181TIP3    H137034   4.516   3.916   1.285  0.1918 -0.7113 -1.0574
 5181TIP3    H237035   4.587   4.000   1.181 -1.0735  0.0511 -1.3257
 5182TIP3   OH237036   5.940   4.126  10.851  0.3524 -0.1853  0.0467
 5182TIP3    H137037   5.889   4.202  10.822 -3.2070 -2.2864  0.3244
 5182TIP3    H237038   5.893   4.050  10.817  3.4329 -2.3982  0.2694
 5183TIP3   OH237039   0.344   4.539  15.822  0.0688 -0.3430 -0.4076
 5183TIP3    H137040   0.340   4.634  15.818 -1.1951 -0.3829 -0.6603
 5183TIP3    H237041   0.271   4.510  15.767  0.5331 -1.4647 -0.4649
 5184TIP3   OH237042   3.339   0.839  13.888  0.0439  0.0945 -0.5212
 5184TIP3    H137043   3.296   0.788  13.821  0.0389 -0.4460 -0.1121
 5184TIP3    H237044   3.271   0.856  13.953  0.7127 -1.8304  0.7492
 5185TIP3   OH237045   5.370   1.772   2.261  1.1486  0.8037 -0.2700
 5185TIP3    H137046   5.372   1.740   2.351  0.7589  1.0760 -0.1652
 5185TIP3    H237047   5.413   1.703   2.210  1.1080  0.5184  0.0797
 5186TIP3   OH237048   6.417   3.581  14.946  0.3005 -0.8986  0.3263
 5186TIP3    H137049   6.500   3.628  14.952 -0.1567 -0.0911  0.4409
 5186TIP3    H237050   6.392   3.564  15.037  0.2839 -1.0461  0.2951
 5187TIP3   OH237051   3.427   6.270  11.351 -0.3613  0.0860  0.2621
 5187TIP3    H137052   3.490   6.208  11.315  0.4484  1.3911 -0.6157
 5187TIP3    H237053   3.352   6.265  11.291  0.5955  1.5411 -1.1243
 5188TIP3   OH237054   5.530   4.424   2.557  0.1865  0.1759  0.6043
 5188TIP3    H137055   5.447   4.377   2.561 -1.2275  2.5848  2.2679
 5188TIP3    H237056   5.593   4.359   2.529 -1.6959 -2.5869  2.2919
 5189TIP3   OH237057   3.464   1.900   3.377  0.1343 -0.0481 -0.0923
 5189TIP3    H137058   3.384   1.893   3.430 -1.1281  0.6974 -1.8076
 5189TIP3    H237059   3.508   1.816   3.390 -2.2380 -1.5705 -1.0445
 5190TIP3   OH237060   3.037   4.391   2.728 -0.3612  0.1191  0.1612
 5190TIP3    H137061   3.050   4.437   2.811  0.8349  0.3296 -0.1251
 5190TIP3    H237062   2.958   4.338   2.742  0.1482 -0.2884  1.6346
 5191TIP3   OH237063   3.870   5.035  14.121 -0.7895 -0.0394 -0.5589
 5191TIP3    H137064   3.805   5.073  14.180 -1.4202  0.8725 -1.7882
 5191TIP3    H237065   3.819   4.986  14.057  0.0186 -4.1190  1.5685
 5192TIP3   OH237066   1.458   6.034  11.447  0.0731  0.4059  0.2471
 5192TIP3    H137067   1.529   6.099  11.448  0.0632  0.5397  3.5496
 5192TIP3    H237068   1.502   5.950  11.459 -0.1555  0.2324 -0.1406
 5193TIP3   OH237069   0.138   1.534   1.392  0.2961  0.3452 -0.4521
 5193TIP3    H137070   0.129   1.441   1.412 -0.2175  0.6206  0.6684
 5193TIP3    H237071   0.119   1.578   1.474  2.4041  1.3813 -0.4658
 5194TIP3   OH237072   4.691   0.291  15.543  0.4420  0.4667  0.2778
 5194TIP3    H137073   4.620   0.271  15.604  1.0532  2.4531  1.7634
 5194TIP3    H237074   4.656   0.360  15.487 -0.0711 -1.2567 -1.6562
 5195TIP3   OH237075   4.951   0.766   5.983  0.1195 -0.2309  0.0278
 5195TIP3    H137076   4.861   0.794   6.000  0.4621  0.9210  0.0523
 5195TIP3    H237077   4.958   0.762   5.888  0.6976  2.0846 -0.0855
 5196TIP3   OH237078   6.138   2.776  12.560  0.7282 -0.1469 -0.1355
 5196TIP3    H137079   6.131   2.832  12.638 -0.9159  0.3473 -0.6045
 5196TIP3    H237080   6.178   2.695  12.592  0.3205  0.1420  1.1771
 5197TIP3   OH237081   4.782   6.848  13.242 -0.5937  0.4224  0.5941
 5197TIP3    H137082   4.846   6.914  13.219 -0.7572 -0.0272 -1.3432
 5197TIP3    H237083   4.793   6.834  13.336  1.8062  0.6945  0.3968
 5198TIP3   OH237084   5.773   0.609   0.523 -0.2613 -0.4156  0.0679
 5198TIP3    H137085   5.816   0.524   0.526  0.6117 -0.0316 -0.8169
 5198TIP3    H237086   5.683   0.590   0.495 -0.5520 -1.1823  1.4676
 5199TIP3   OH237087   1.455   0.174   0.958 -0.3120  0.1360  0.0894
 5199TIP3    H137088   1.363   0.187   0.979 -0.5654 -0.6779 -0.4610
 5199TIP3    H237089   1.499   0.175   1.043 -1.0035 -0.7131  0.4745
 5200TIP3   OH237090   5.812   1.081   1.222  0.2265 -0.2324  0.3876
 5200TIP3    H137091   5.782   1.105   1.134 -0.9406  0.1811  0.8761
 5200TIP3    H237092   5.748   1.016   1.251 -0.4440  0.9167  1.5920
 5201TIP3   OH237093   6.681   0.450  12.244  0.1960  0.1336  0.1354
 5201TIP3    H137094   6.671   0.477  12.153 -0.1397  0.2059  0.1932
 5201TIP3    H237095   6.697   0.356  12.240 -0.6104  0.0005  0.0515
 5202TIP3   OH237096   0.873   4.810   5.509 -0.6378  0.0489 -0.2167
 5202TIP3    H137097   0.933   4.790   5.437 -0.3823 -0.7654  0.2069
 5202TIP3    H237098   0.808   4.740   5.507 -1.0987  0.4686 -0.1534
 5203TIP3   OH237099   2.582   6.275  11.750 -0.6775 -0.1501 -0.3088
 5203TIP3    H137100   2.596   6.309  11.838 -3.5080  1.8355 -0.4850
 5203TIP3    H237101   2.631   6.335  11.693 -2.2187  1.1770 -0.3080
 5204TIP3   OH237102   0.039   1.290   5.721  0.4627 -0.4695  0.3134
 5204TIP3    H137103   0.085   1.337   5.652 -0.1030  0.9402  0.8596
 5204TIP3    H237104   0.101   1.224   5.752  1.2364 -0.1618 -0.5557
 5205TIP3   OH237105   2.052   2.669   3.524 -0.2876  0.2785 -0.0573
 5205TIP3    H137106   2.077   2.656   3.616  1.8655 -3.6754 -0.9982
 5205TIP3    H237107   2.002   2.591   3.501 -1.0779  1.3480 -2.2180
 5206TIP3   OH237108   1.104   5.074   1.355 -0.2772 -0.2502 -0.3697
 5206TIP3    H137109   1.049   5.153   1.350 -0.5899 -0.4322  0.0809
 5206TIP3    H237110   1.171   5.087   1.288 -1.5380 -0.5429 -1.7335
 5207TIP3   OH237111   6.004   1.345   2.974  0.0706 -0.6948  0.2952
 5207TIP3    H137112   6.054   1.399   3.034 -1.2645  1.3578 -0.3081
 5207TIP3    H237113   5.953   1.287   3.030  0.7961 -0.6386  1.0199
 5208TIP3   OH237114   0.242   0.872  14.330  0.4227  0.0808  0.0026
 5208TIP3    H137115   0.162   0.894  14.283  0.4103 -1.7104 -0.9004
 5208TIP3    H237116   0.263   0.782  14.302  2.2243  0.1560  0.9311
 5209TIP3   OH237117   5.133   2.621  13.627 -0.0329 -0.1268 -0.1172
 5209TIP3    H137118   5.039   2.621  13.644 -0.4509  0.9102 -2.1683
 5209TIP3    H237119   5.167   2.696  13.676 -0.5541  0.5290 -0.7652
 5210TIP3   OH237120   6.200   4.495   1.147  0.2077  0.1712 -0.0165
 5210TIP3    H137121   6.269   4.543   1.194  0.5067 -0.2817  0.0193
 5210TIP3    H237122   6.243   4.413   1.120  0.4026  0.9281 -2.1574
 5211TIP3   OH237123   1.283   5.996  11.230  0.4434  0.1959  0.4897
 5211TIP3    H137124   1.243   5.909  11.223 -1.9247  1.2521 -0.4831
 5211TIP3    H237125   1.329   5.996  11.314  1.6150 -2.3800 -0.0744
 5212TIP3   OH237126   0.654   2.790  13.200 -0.0627  0.1054 -0.2077
 5212TIP3    H137127   0.665   2.878  13.236  0.0573  0.7621 -1.7581
 5212TIP3    H237128   0.730   2.741  13.232  0.0703  0.6646  0.3523
 5213TIP3   OH237129   1.769   4.259  14.920 -0.0309 -0.3177  0.0701
 5213TIP3    H137130   1.797   4.210  14.843  1.4212 -0.1856  0.4778
 5213TIP3    H237131   1.786   4.200  14.993 -2.4694 -0.8904  0.2480
 5214TIP3   OH237132   3.323   0.627   0.388  0.0084  0.3669 -0.1263
 5214TIP3    H137133   3.395   0.639   0.326  1.2340  1.9511  1.4725
 5214TIP3    H237134   3.323   0.534   0.408  0.9003  0.1643 -1.0003
 5215TIP3   OH237135   5.885   3.282   2.644 -0.2814  0.0381  0.1142
 5215TIP3    H137136   5.815   3.221   2.621 -2.3084  2.0160  0.6699
 5215TIP3    H237137   5.922   3.245   2.724 -1.8029 -0.2702  0.7272
 5216TIP3   OH237138   0.238   5.287  15.228  0.1861  0.2781 -0.1386
 5216TIP3    H137139   0.322   5.266  15.187 -0.4875 -0.6781 -1.1011
 5216TIP3    H237140   0.184   5.318  15.155 -0.4204  0.5188  0.4075
 5217TIP3   OH237141   1.456   1.866  12.379 -0.4929 -0.4071  0.1733
 5217TIP3    H137142   1.482   1.862  12.471  0.9325 -0.5385 -0.2045
 5217TIP3    H237143   1.425   1.955  12.366  0.3574 -0.0464  0.5366
 5218TIP3   OH237144   1.892   1.899   0.292  0.1122 -0.1108 -0.8167
 5218TIP3    H137145   1.849   1.923   0.210 -1.1756  2.8897  0.5781
 5218TIP3    H237146   1.973   1.951   0.292 -0.3181  0.5801  0.1586
 5219TIP3   OH237147   6.324   1.969  11.229  0.0504  0.1316 -0.5773
 5219TIP3    H137148   6.251   2.010  11.276  0.0273 -0.2017 -0.3227
 5219TIP3    H237149   6.288   1.949  11.142  0.1231  0.8396 -0.7847
 5220TIP3   OH237150   4.456   2.728   1.066 -0.0526 -0.4558 -0.3372
 5220TIP3    H137151   4.520   2.690   1.006 -0.3225  1.9936 -2.4134
 5220TIP3    H237152   4.505   2.747   1.146  1.2540 -0.6712 -1.0618
 5221TIP3   OH237153   1.377   6.284  16.643 -0.0190 -0.2528 -0.1463
 5221TIP3    H137154   1.326   6.280  16.562 -1.0055  0.2911  0.4309
 5221TIP3    H237155   1.413   6.196  16.652 -0.2713 -0.4518 -0.9430
 5222TIP3   OH237156   1.591   5.773   6.295 -0.1529  0.5159 -0.2960
 5222TIP3    H137157   1.656   5.702   6.300 -0.0855  0.5185 -1.0390
 5222TIP3    H237158   1.559   5.782   6.384 -0.4100 -0.6891 -0.2416
 5223TIP3   OH237159   3.454   6.057   1.146 -0.4285  0.4066 -0.0954
 5223TIP3    H137160   3.401   6.116   1.199  0.1371 -0.1582  1.1381
 5223TIP3    H237161   3.404   5.976   1.141  0.5273 -0.3517  1.6136
 5224TIP3   OH237162   5.248   0.188   6.247  0.4058  0.0507  0.5810
 5224TIP3    H137163   5.153   0.176   6.240  0.3633  0.4956  0.3156
 5224TIP3    H237164   5.281   0.104   6.278 -0.0633 -0.1451  0.5572
 5225TIP3   OH237165   5.997   0.503  15.756 -0.6235  0.3152 -0.4794
 5225TIP3    H137166   6.017   0.410  15.750  0.0791  0.5639 -3.3795
 5225TIP3    H237167   5.904   0.506  15.779  0.2142 -0.9515  3.7999
 5226TIP3   OH237168   6.176   6.358   1.989  0.2031  0.3966  0.2629
 5226TIP3    H137169   6.240   6.387   2.054  0.4695 -2.3112  1.3278
 5226TIP3    H237170   6.092   6.366   2.033  0.0019  1.7160 -0.3059
 5227TIP3   OH237171   1.034   3.035   5.133 -0.1627  0.6822  0.3578
 5227TIP3    H137172   1.050   3.116   5.084  1.3631  1.1569  1.5745
 5227TIP3    H237173   0.948   3.049   5.174 -0.0116  1.6095  0.3878
 5228TIP3   OH237174   5.007   3.760   1.149  0.4476 -0.3974  0.2152
 5228TIP3    H137175   5.080   3.772   1.089 -0.3803 -0.6410 -0.8759
 5228TIP3    H237176   4.936   3.726   1.094 -0.2803 -0.8056  1.3687
 5229TIP3   OH237177   2.747   4.464  14.454 -0.1651 -0.3139  0.2118
 5229TIP3    H137178   2.777   4.519  14.526  3.2007 -0.3140 -0.9610
 5229TIP3    H237179   2.725   4.526  14.384  0.1903 -0.3400  0.0693
 5230TIP3   OH237180   6.233   0.490  16.042 -0.0904  0.4274 -0.3362
 5230TIP3    H137181   6.144   0.504  16.073  0.6955  1.0794  1.8132
 5230TIP3    H237182   6.256   0.402  16.073  0.6121  0.9844  0.8353
 5231TIP3   OH237183   6.364   0.212   4.408 -0.2500 -0.1297 -0.0059
 5231TIP3    H137184   6.327   0.237   4.323 -0.7382  1.1014  0.5450
 5231TIP3    H237185   6.288   0.202   4.465  0.1352  0.3268  0.6039
 5232TIP3   OH237186   2.730   4.394  12.590 -0.0321 -0.6491 -0.1091
 5232TIP3    H137187   2.805   4.450  12.572 -1.6554  2.1664  1.3375
 5232TIP3    H237188   2.738   4.323  12.526  2.6761  0.6600 -1.3932
 5233TIP3   OH237189   3.516   0.229  11.199  0.2555  0.1281  0.2614
 5233TIP3    H137190   3.470   0.156  11.241 -0.8241  0.2697 -0.6340
 5233TIP3    H237191   3.607   0.220  11.228 -0.4414  0.3529  2.8451
 5234TIP3   OH237192   1.033   0.394  12.944 -0.1391  0.1204  0.5114
 5234TIP3    H137193   0.938   0.393  12.930 -0.1436  1.0629  0.4320
 5234TIP3    H237194   1.069   0.367  12.859 -0.3387 -0.8870  0.7296
 5235TIP3   OH237195   3.770   3.018   2.142  0.2718 -0.5754 -0.1274
 5235TIP3    H137196   3.859   2.992   2.166 -0.8139 -4.3452  0.4400
 5235TIP3    H237197   3.721   3.016   2.224 -0.2595  2.4809 -0.2430
 5236TIP3   OH237198   4.135   1.576  12.228  0.0810 -0.1050  0.0313
 5236TIP3    H137199   4.184   1.614  12.301  0.1269 -0.5529  0.2420
 5236TIP3    H237200   4.159   1.628  12.152  0.1223  0.2947  0.3194
 5237TIP3   OH237201   1.970   4.667   3.272  0.1221 -0.2698 -0.5504
 5237TIP3    H137202   1.877   4.690   3.260  0.4465  1.9850  0.6326
 5237TIP3    H237203   2.004   4.657   3.183 -1.1670 -0.7255 -1.0123
 5238TIP3   OH237204   6.313   5.118  10.651 -0.0075 -0.3577 -0.2953
 5238TIP3    H137205   6.240   5.170  10.618 -0.7518 -0.4185  1.1676
 5238TIP3    H237206   6.369   5.181  10.697  0.1712 -0.5095 -0.3042
 5239TIP3   OH237207   3.359   4.417   2.977 -0.1990  0.1814 -0.0845
 5239TIP3    H137208   3.412   4.444   3.053 -0.1648  0.4943 -0.2172
 5239TIP3    H237209   3.386   4.327   2.960 -0.0995  0.1587  0.1857
 5240TIP3   OH237210   4.045   3.324   6.320  0.2571 -0.1508  0.4556
 5240TIP3    H137211   4.136   3.351   6.332  0.1768  0.8332 -0.9311
 5240TIP3    H237212   3.999   3.362   6.394  1.3288 -2.9317  2.7521
 5241TIP3   OH237213   2.789   0.329   4.894 -0.6186 -0.2515  0.5597
 5241TIP3    H137214   2.713   0.356   4.841 -0.4528 -0.9558 -0.0546
 5241TIP3    H237215   2.848   0.288   4.831  0.2702  0.2615  1.0352
 5242TIP3   OH237216   5.236   4.280  15.094 -0.2960 -0.5201  0.6640
 5242TIP3    H137217   5.316   4.294  15.044  0.1918 -2.7547  0.7091
 5242TIP3    H237218   5.195   4.203  15.053 -1.4114 -0.6011  1.8582
 5243TIP3   OH237219   3.621   0.482   6.175  0.6325 -0.1225 -0.0376
 5243TIP3    H137220   3.586   0.410   6.121 -0.9573  1.1533 -0.7962
 5243TIP3    H237221   3.584   0.466   6.262 -0.9713  0.5494 -0.5514
 5244TIP3   OH237222   3.047   2.693   3.685  0.0104  0.0790 -0.5165
 5244TIP3    H137223   3.041   2.773   3.738  0.1433 -0.6882  0.6944
 5244TIP3    H237224   2.969   2.643   3.709 -0.3769  0.0766 -1.7010
 5245TIP3   OH237225   1.747   3.581  13.818 -0.4917 -0.0255 -0.2829
 5245TIP3    H137226   1.796   3.650  13.864  0.3226 -0.4111 -0.5524
 5245TIP3    H237227   1.776   3.589  13.727 -0.6728 -0.4925 -0.3811
 5246TIP3   OH237228   1.231   4.960   0.417 -0.2261  0.0506  0.3117
 5246TIP3    H137229   1.138   4.981   0.408 -0.0362 -0.0714 -3.2291
 5246TIP3    H237230   1.275   5.027   0.365  1.5532 -0.8432  0.6095
 5247TIP3   OH237231   5.473   5.743   3.858  0.1668  0.6135 -0.2815
 5247TIP3    H137232   5.446   5.702   3.941 -1.5521  1.7081 -0.2593
 5247TIP3    H237233   5.490   5.834   3.881 -1.4014  1.1942 -1.3155
 5248TIP3   OH237234   3.789   1.308   0.102  0.0519 -0.3376  0.1261
 5248TIP3    H137235   3.770   1.219   0.072 -0.2751  0.5404 -2.6030
 5248TIP3    H237236   3.705   1.353   0.096  0.6310  0.6679 -0.5883
 5249TIP3   OH237237   0.467   0.798   5.160 -0.4361  0.3500  0.3340
 5249TIP3    H137238   0.468   0.889   5.188 -1.5923  0.3969  0.2635
 5249TIP3    H237239   0.401   0.794   5.092  1.2062 -0.0898 -1.3321
 5250TIP3   OH237240   0.774   6.503   6.588  0.1354 -0.6436  0.1892
 5250TIP3    H137241   0.854   6.556   6.594  0.5960 -1.2221 -0.6578
 5250TIP3    H237242   0.741   6.499   6.677 -1.0493  2.7884  0.0502
 5251TIP3   OH237243   4.426   3.555  14.990  0.0651  0.7995 -0.1016
 5251TIP3    H137244   4.394   3.467  15.011  0.5520  0.6674  0.1008
 5251TIP3    H237245   4.511   3.560  15.033 -0.3211  1.6739  0.5758
 5252TIP3   OH237246   4.059   0.368  12.901 -0.6893 -0.2036  0.4488
 5252TIP3    H137247   4.056   0.275  12.878 -0.4604 -0.1269  0.1121
 5252TIP3    H237248   3.980   0.381  12.954 -1.5527 -0.2549 -0.7687
 5253TIP3   OH237249   6.573   1.230  13.586  0.1923 -0.1740 -0.5021
 5253TIP3    H137250   6.507   1.164  13.605  0.7495 -0.5992  0.0043
 5253TIP3    H237251   6.614   1.248  13.671  1.0095 -0.2233 -0.8792
 5254TIP3   OH237252   2.072   3.807  11.462  0.2325 -0.4454  0.9165
 5254TIP3    H137253   2.090   3.825  11.554  0.2725 -1.7603  1.1922
 5254TIP3    H237254   1.999   3.745  11.463  0.9089 -1.2992  0.1331
 5255TIP3   OH237255   0.038   0.066   2.597 -0.1813 -0.1902  0.0979
 5255TIP3    H137256   0.005   0.047   2.509 -0.3147 -0.9204  0.2984
 5255TIP3    H237257  -0.026   0.024   2.655  0.3803 -0.4565  0.5222
 5256TIP3   OH237258   5.555   6.468  16.414  0.0554 -0.3506  0.2485
 5256TIP3    H137259   5.466   6.477  16.447  0.0157  2.8560 -0.3357
 5256TIP3    H237260   5.603   6.541  16.456  1.4635  0.1873 -2.1253
 5257TIP3   OH237261   0.609   3.724  13.086  0.3266  0.2320  0.6006
 5257TIP3    H137262   0.634   3.807  13.126 -0.4285  1.8024 -1.9687
 5257TIP3    H237263   0.587   3.746  12.996  0.1816 -2.7959 -0.2254
 5258TIP3   OH237264   0.182   6.672   2.630  0.1176 -0.2733  0.4294
 5258TIP3    H137265   0.163   6.738   2.696  0.3764 -0.2429  0.4736
 5258TIP3    H237266   0.159   6.714   2.547 -0.3016 -0.3475  0.5072
 5259TIP3   OH237267   1.572   2.692  13.093  0.1808 -0.2546 -0.2234
 5259TIP3    H137268   1.546   2.784  13.093  1.9984  0.3235  1.4973
 5259TIP3    H237269   1.491   2.644  13.107 -0.6032  1.1752  0.3711
 5260TIP3   OH237270   1.288   6.675  15.529  0.5633 -0.2378  0.0154
 5260TIP3    H137271   1.337   6.624  15.464  1.0221  1.2138 -0.8320
 5260TIP3    H237272   1.236   6.610  15.577  2.0664 -1.6337 -0.1618
 5261TIP3   OH237273   6.646   0.663  16.757 -0.2478  0.1922 -0.1566
 5261TIP3    H137274   6.569   0.627  16.802 -0.4281 -0.6774 -1.1404
 5261TIP3    H237275   6.719   0.611  16.790 -0.2157  0.3376  0.0045
 5262TIP3   OH237276   5.271   2.479  15.701  0.0302 -0.4856  0.4234
 5262TIP3    H137277   5.290   2.520  15.617  3.5957  3.3342  2.6937
 5262TIP3    H237278   5.339   2.413  15.712 -1.8017 -2.6488 -0.4661
 5263TIP3   OH237279   2.650   3.614   5.353  0.1902 -0.1377  0.1219
 5263TIP3    H137280   2.711   3.549   5.321 -0.5200 -0.5199 -0.4779
 5263TIP3    H237281   2.705   3.682   5.391  0.9460 -2.0107  2.6780
 5264TIP3   OH237282   5.627   5.094  11.130 -0.8662  0.2206 -0.3596
 5264TIP3    H137283   5.641   5.187  11.116 -1.7509  0.3279 -0.5977
 5264TIP3    H237284   5.587   5.063  11.049 -1.5576 -0.1483  0.1115
 5265TIP3   OH237285   6.540   4.845  11.488 -0.1828 -0.6627 -0.4169
 5265TIP3    H137286   6.511   4.825  11.578  1.9316 -0.7485  0.2947
 5265TIP3    H237287   6.459   4.856  11.439 -1.6446  3.6873  2.3567
 5266TIP3   OH237288   5.032   3.008   4.990  0.2959 -0.5559  0.2694
 5266TIP3    H137289   5.092   3.064   4.941 -0.1618 -0.4261 -0.1538
 5266TIP3    H237290   4.947   3.050   4.979  0.0086 -1.1395  0.2524
 5267TIP3   OH237291   3.965   0.444   4.326  0.4646  0.3691 -0.4856
 5267TIP3    H137292   3.988   0.352   4.334  0.5877  0.5696  2.3296
 5267TIP3    H237293   3.889   0.455   4.382  1.0868  2.1828  0.0729
 5268TIP3   OH237294   2.628   4.928   6.527 -0.1070 -0.2144  0.0548
 5268TIP3    H137295   2.636   5.005   6.584 -0.2044 -0.0880 -0.1007
 5268TIP3    H237296   2.542   4.937   6.486  0.7637  0.8193 -1.6979
 5269TIP3   OH237297   0.791   2.803   5.470 -0.9833 -0.4900 -0.3301
 5269TIP3    H137298   0.698   2.783   5.481 -1.7824  2.6457 -0.3014
 5269TIP3    H237299   0.793   2.867   5.398  0.7928  1.4601  1.3322
 5270TIP3   OH237300   4.792   2.148  11.997  0.0592 -0.4357 -0.0566
 5270TIP3    H137301   4.752   2.098  12.069  2.1141  1.3387  2.4967
 5270TIP3    H237302   4.847   2.085  11.952 -1.0655 -1.5447  0.0738
 5271TIP3   OH237303   0.381   2.884   6.208  0.4942 -0.5497 -0.5020
 5271TIP3    H137304   0.378   2.934   6.127 -1.2763 -0.9524 -0.7279
 5271TIP3    H237305   0.462   2.833   6.203  0.9212  0.2083 -1.5307
 5272TIP3   OH237306   2.265   3.888  16.452 -0.1881 -0.0062  0.2319
 5272TIP3    H137307   2.244   3.883  16.545  1.5466  0.2535  0.6804
 5272TIP3    H237308   2.313   3.971  16.443 -1.1525  0.4437 -1.0882
 5273TIP3   OH237309   4.324   3.808  10.698 -0.3614 -0.5802  0.3988
 5273TIP3    H137310   4.321   3.874  10.628 -1.5343  1.0985  1.9336
 5273TIP3    H237311   4.315   3.724  10.653  1.9098  0.1794 -1.7214
 5274TIP3   OH237312   1.047   3.052  15.953  0.8628 -0.4026 -0.2451
 5274TIP3    H137313   0.989   3.021  15.884  0.1201  1.6019 -0.5769
 5274TIP3    H237314   0.989   3.077  16.024  1.3717  0.6496 -0.1798
 5275TIP3   OH237315   1.326   1.449  15.498  0.1885  0.6174 -0.3357
 5275TIP3    H137316   1.260   1.402  15.447  0.0444  0.4112  0.0366
 5275TIP3    H237317   1.355   1.386  15.564 -1.5143  1.6443  1.5410
 5276TIP3   OH237318   4.377   1.244   3.125 -0.0537 -0.2031 -0.2285
 5276TIP3    H137319   4.322   1.250   3.047 -0.4924 -0.8998  0.0231
 5276TIP3    H237320   4.467   1.246   3.092 -0.2303 -1.5717 -0.8414
 5277TIP3   OH237321   5.816   2.068   6.554 -0.1304  0.0690  0.3099
 5277TIP3    H137322   5.824   1.983   6.597  0.5719  1.1794  2.5241
 5277TIP3    H237323   5.723   2.091   6.563 -0.3756 -0.5652 -0.5353
 5278TIP3   OH237324   0.525   1.644  14.098 -0.4149 -0.6123 -0.5565
 5278TIP3    H137325   0.509   1.644  14.192 -1.5897 -0.5542 -0.7410
 5278TIP3    H237326   0.551   1.553  14.078  0.5924 -0.4483 -0.0831
 5279TIP3   OH237327   5.677   2.629  15.156  0.2134  0.0954 -0.3002
 5279TIP3    H137328   5.718   2.614  15.070 -0.0336 -0.3425 -0.3448
 5279TIP3    H237329   5.750   2.622  15.218  0.0260 -2.0697 -0.2449
 5280TIP3   OH237330   4.464   0.806   4.436  0.2698 -0.0684  0.0205
 5280TIP3    H137331   4.545   0.803   4.383  0.0174 -0.0345 -0.3746
 5280TIP3    H237332   4.395   0.779   4.375 -0.1492  0.7999  0.0927
 5281TIP3   OH237333   3.578   1.175   6.028 -0.0256  0.0004  0.6579
 5281TIP3    H137334   3.668   1.157   6.001 -0.1812  2.2757 -1.8786
 5281TIP3    H237335   3.587   1.234   6.103  0.5009 -1.7431  2.0283
 5282TIP3   OH237336   5.417   2.515   3.802 -0.3392  0.1768 -0.2438
 5282TIP3    H137337   5.331   2.498   3.842  0.9855 -2.0140  1.9961
 5282TIP3    H237338   5.422   2.610   3.794 -3.0797  0.3483 -0.8134
 5283TIP3   OH237339   1.576   0.713   4.274 -0.0159  0.0109 -0.2758
 5283TIP3    H137340   1.616   0.627   4.287 -0.4981 -0.6289 -2.6083
 5283TIP3    H237341   1.487   0.704   4.308 -0.0276 -0.3836 -0.4135
 5284TIP3   OH237342   6.294   0.165  14.778  0.1298  0.6077  0.2558
 5284TIP3    H137343   6.294   0.088  14.834  0.8155  0.6135  0.2783
 5284TIP3    H237344   6.236   0.227  14.823 -1.4671 -0.3254 -0.4193
 5285TIP3   OH237345   0.404   5.223   4.410  0.0532 -0.0262 -0.2273
 5285TIP3    H137346   0.405   5.159   4.340  0.7030  0.2811 -0.5094
 5285TIP3    H237347   0.375   5.304   4.369 -1.1950 -0.2316  0.2210
 5286TIP3   OH237348   1.331   2.829   1.071  0.0319 -0.6058 -0.1023
 5286TIP3    H137349   1.317   2.816   1.165 -1.1544 -2.3839 -0.4655
 5286TIP3    H237350   1.409   2.776   1.052  0.7104  0.3391 -0.0206
 5287TIP3   OH237351   0.634   3.684   0.457 -0.3110 -0.3737 -0.3728
 5287TIP3    H137352   0.717   3.637   0.460 -0.3334 -0.3674  0.6711
 5287TIP3    H237353   0.580   3.643   0.525 -0.9195  0.0621 -0.5772
 5288TIP3   OH237354   4.797   0.424  12.761 -0.0230  0.5507 -0.0614
 5288TIP3    H137355   4.760   0.342  12.794 -2.1858  1.5328  0.1214
 5288TIP3    H237356   4.770   0.490  12.824  1.6897  1.4430 -0.2035
 5289TIP3   OH237357   1.230   0.302  16.051 -0.4420  0.4236  0.0286
 5289TIP3    H137358   1.137   0.282  16.041  0.0815 -1.8975 -0.9695
 5289TIP3    H237359   1.267   0.283  15.965  0.8065  2.4659  0.0616
 5290TIP3   OH237360   2.531   4.122  11.846 -0.4162  0.3346  0.2604
 5290TIP3    H137361   2.552   4.211  11.875  2.4303  0.4529 -1.7716
 5290TIP3    H237362   2.555   4.067  11.921  1.4413  1.0549  0.2650
 5291TIP3   OH237363   0.141   1.677  16.162 -0.9739  0.3068 -0.1432
 5291TIP3    H137364   0.157   1.653  16.071 -0.4079 -1.0716  0.2875
 5291TIP3    H237365   0.096   1.601  16.200  0.4863  0.0461  1.1768
 5292TIP3   OH237366   1.410   4.226   1.772 -0.5316 -0.1108  0.0978
 5292TIP3    H137367   1.361   4.261   1.698  1.0367  0.2300 -0.8348
 5292TIP3    H237368   1.386   4.282   1.846 -1.2363  0.2820 -0.4278
 5293TIP3   OH237369   0.059   0.282   4.975  0.2377  0.5469  0.0075
 5293TIP3    H137370  -0.015   0.275   5.035  1.2364 -0.3273  1.1827
 5293TIP3    H237371   0.116   0.348   5.015  0.1463  1.1707 -0.8558
 5294TIP3   OH237372   1.699   3.275  16.528  0.1859  0.3460  0.4494
 5294TIP3    H137373   1.702   3.232  16.442  0.5081  2.6032 -0.7816
 5294TIP3    H237374   1.608   3.267  16.556  0.3122 -1.3678  0.4536
 5295TIP3   OH237375   0.740   0.171  11.267 -0.6188 -0.3409  0.5665
 5295TIP3    H137376   0.775   0.255  11.296 -1.9838 -0.1015  1.6051
 5295TIP3    H237377   0.773   0.108  11.331  0.1477 -0.5819 -0.0363
 5296TIP3   OH237378   6.249   3.414   1.900 -0.2336  0.1455 -0.1583
 5296TIP3    H137379   6.284   3.468   1.830  1.6958  1.2288  1.5190
 5296TIP3    H237380   6.324   3.362   1.930 -1.3650 -1.3782  0.1716
 5297TIP3   OH237381   3.575   2.891   5.558  0.0788  0.1795 -0.2083
 5297TIP3    H137382   3.636   2.960   5.582  0.4495  0.1026 -0.8917
 5297TIP3    H237383   3.594   2.820   5.619  1.7653 -0.4306 -1.3785
 5298TIP3   OH237384   1.754   1.466   3.308  0.1168  0.0264  0.4726
 5298TIP3    H137385   1.804   1.522   3.248  0.5275 -2.0152 -1.2411
 5298TIP3    H237386   1.687   1.427   3.252 -0.4132 -0.8521  1.6907
 5299TIP3   OH237387   6.768   2.848  16.186  0.0099  0.2305 -0.3412
 5299TIP3    H137388   6.678   2.869  16.159 -0.2022  0.7828  0.7345
 5299TIP3    H237389   6.807   2.933  16.205  0.1106 -0.1336  1.1543
 5300TIP3   OH237390   4.613   1.474  13.551  0.2035  0.2248  0.7899
 5300TIP3    H137391   4.708   1.476  13.540  0.1990 -1.7658  0.0852
 5300TIP3    H237392   4.592   1.382  13.568 -1.5362  0.7237  1.5853
 5301TIP3   OH237393   3.507   0.723   5.840 -0.3999 -0.6307 -0.0580
 5301TIP3    H137394   3.469   0.641   5.871  0.5292 -1.0823 -0.0981
 5301TIP3    H237395   3.481   0.729   5.748 -2.3523  0.2404  0.4852
 5302TIP3   OH237396   2.883   1.299   4.328 -0.1294  0.1936 -0.0164
 5302TIP3    H137397   2.866   1.385   4.366 -1.5474 -0.7089  1.5167
 5302TIP3    H237398   2.904   1.243   4.403  2.7127 -0.4287 -1.1568
 5303TIP3   OH237399   1.714   5.491  16.030  0.0366  0.5196 -0.5396
 5303TIP3    H137400   1.714   5.573  15.981  2.3309  0.4859 -0.6785
 5303TIP3    H237401   1.749   5.514  16.116 -0.8118 -0.0359 -0.0334
 5304TIP3   OH237402   6.220   2.908  12.810  0.3274  0.2317 -0.0449
 5304TIP3    H137403   6.207   2.917  12.904  0.0635 -1.1017  0.0589
 5304TIP3    H237404   6.314   2.894  12.800  0.4094  0.7427 -0.0202
 5305TIP3   OH237405   0.568   3.548   2.372  0.2709  0.3912 -0.5075
 5305TIP3    H137406   0.661   3.524   2.375 -0.1874 -1.5359 -0.4074
 5305TIP3    H237407   0.558   3.599   2.292  1.6761  1.9912  0.2667
 5306TIP3   OH237408   4.795   0.322   2.866  0.0172 -0.7894  0.3213
 5306TIP3    H137409   4.851   0.246   2.880 -1.2216 -1.5607  1.2831
 5306TIP3    H237410   4.713   0.300   2.911 -1.0772  0.2850 -1.0454
 5307TIP3   OH237411   4.948   6.298  10.514  0.0986  0.1524  0.6038
 5307TIP3    H137412   5.030   6.297  10.564  0.3816  1.4629  0.2010
 5307TIP3    H237413   4.958   6.225  10.452  2.3446  2.0588 -1.5107
 5308TIP3   OH237414   4.360   0.631   3.692 -0.2366 -0.3285 -0.3479
 5308TIP3    H137415   4.294   0.572   3.657  0.1004 -1.5756  1.0162
 5308TIP3    H237416   4.355   0.620   3.787  1.6380 -0.1648 -0.1781
 5309TIP3   OH237417   3.114   5.928  10.949  0.3561  0.4632  0.2568
 5309TIP3    H137418   3.193   5.920  10.895  0.9561  0.0117  1.1909
 5309TIP3    H237419   3.119   6.017  10.985 -0.1796  0.8617 -0.6088
 5310TIP3   OH237420   4.711   0.017  16.045 -0.4046 -0.0614 -0.5224
 5310TIP3    H137421   4.622  -0.005  16.071 -0.6429  0.2238 -1.0848
 5310TIP3    H237422   4.751  -0.068  16.024  0.2713 -0.4826  2.1322
 5311TIP3   OH237423   2.357   5.884  13.589  0.0002 -0.5230 -0.4189
 5311TIP3    H137424   2.427   5.839  13.542  0.2761  0.1197 -0.6386
 5311TIP3    H237425   2.395   5.906  13.674  0.4526  0.7953 -0.9355
 5312TIP3   OH237426   6.598   0.527   3.897  0.0847  0.6147 -0.1232
 5312TIP3    H137427   6.670   0.575   3.937  1.7589 -1.2019 -0.7863
 5312TIP3    H237428   6.616   0.530   3.803 -0.8610  0.3744 -0.3259
 5313TIP3   OH237429   4.525   1.973   4.435 -0.7898  0.0572  0.5535
 5313TIP3    H137430   4.472   1.921   4.375 -1.5381  0.0623  1.2002
 5313TIP3    H237431   4.462   2.024   4.486 -0.0817  1.5234  0.0297
 5314TIP3   OH237432   4.363   1.148   1.225 -0.0797  0.5071 -0.2828
 5314TIP3    H137433   4.381   1.136   1.132 -2.2918  0.6350 -0.7873
 5314TIP3    H237434   4.322   1.234   1.231 -1.1211 -0.0202  0.5928
 5315TIP3   OH237435   0.848   5.520   4.031 -0.5423  0.3571 -0.3097
 5315TIP3    H137436   0.814   5.603   3.998 -0.8196  0.0134 -0.8986
 5315TIP3    H237437   0.942   5.534   4.040 -0.0638 -0.2135 -3.4109
 5316TIP3   OH237438   1.200   0.034  16.690 -0.9451 -0.4192 -0.1756
 5316TIP3    H137439   1.271   0.094  16.668 -1.2325 -0.3442 -0.9318
 5316TIP3    H237440   1.244  -0.044  16.723 -0.5461 -0.0412  0.2070
 5317TIP3   OH237441   1.778   3.693  12.713 -0.4900  0.7267  0.1444
 5317TIP3    H137442   1.756   3.617  12.658  1.3736  0.2577 -0.0214
 5317TIP3    H237443   1.757   3.666  12.802 -0.6990  0.3588 -0.0167
 5318TIP3   OH237444   0.694   5.721   0.309  0.3921 -0.0185 -0.4929
 5318TIP3    H137445   0.763   5.780   0.280 -0.6906  1.1193 -0.8766
 5318TIP3    H237446   0.671   5.671   0.231  0.2132  0.2189 -0.5971
 5319TIP3   OH237447   4.641   0.654   3.749  0.1111  0.1801 -0.2846
 5319TIP3    H137448   4.677   0.570   3.776  0.2308  0.4150  0.3046
 5319TIP3    H237449   4.548   0.637   3.736 -0.1496  0.2614  1.2399
 5320TIP3   OH237450   0.621   0.856  16.776  0.0664  0.0274 -0.7709
 5320TIP3    H137451   0.668   0.921  16.829  1.6390 -0.8818 -0.9792
 5320TIP3    H237452   0.635   0.773  16.822 -0.4456 -0.4326 -1.4278
 5321TIP3   OH237453   0.755   4.942  10.521  0.1787 -0.5015 -0.0645
 5321TIP3    H137454   0.800   5.024  10.501 -0.6232  0.3244  1.3390
 5321TIP3    H237455   0.823   4.875  10.516  1.2595  0.5090  0.5570
 5322TIP3   OH237456   6.361   2.601   1.606  0.0195  0.4664  0.2934
 5322TIP3    H137457   6.325   2.605   1.517  0.5900  0.3538  0.0547
 5322TIP3    H237458   6.453   2.577   1.594 -0.4159 -1.8127  1.0422
 5323TIP3   OH237459   6.680   4.639  13.107 -0.4624  0.6223  0.0018
 5323TIP3    H137460   6.775   4.645  13.114 -0.1610 -0.9132 -1.8468
 5323TIP3    H237461   6.655   4.573  13.171 -0.2608  0.8080  0.2749
 5324TIP3   OH237462   4.317   4.011   1.691  0.6199  0.0693 -0.7603
 5324TIP3    H137463   4.264   4.016   1.611  0.3853  0.1241 -0.6039
 5324TIP3    H237464   4.335   4.102   1.713 -1.0358  0.1699  0.3721
 5325TIP3   OH237465   4.020   4.823   3.927 -0.0596  0.0486  0.3500
 5325TIP3    H137466   4.018   4.759   3.998  0.5125  0.4274  0.7144
 5325TIP3    H237467   4.112   4.831   3.903  0.0233  1.4810  1.0091
 5326TIP3   OH237468   5.430   0.818  11.679 -0.2752 -0.1743 -0.1757
 5326TIP3    H137469   5.457   0.737  11.635 -0.1010  0.5259 -1.3919
 5326TIP3    H237470   5.388   0.870  11.610 -1.2201  0.3899  0.8052
 5327TIP3   OH237471   4.277   4.442  14.335  0.2192 -0.2722 -0.1037
 5327TIP3    H137472   4.267   4.503  14.262 -0.3197 -2.5441 -2.0554
 5327TIP3    H237473   4.188   4.419  14.359  0.4003  0.3401  1.2091
 5328TIP3   OH237474   1.897   5.587   2.405  0.1910 -0.3450  0.3485
 5328TIP3    H137475   1.900   5.655   2.472  0.4507  1.4998 -1.4391
 5328TIP3    H237476   1.955   5.618   2.335 -1.9616 -0.9056 -1.8396
 5329TIP3   OH237477   6.816   2.448   0.962  0.5775 -0.1297  0.5103
 5329TIP3    H137478   6.825   2.397   1.043  0.3133  0.3843  0.8660
 5329TIP3    H237479   6.752   2.399   0.909  0.1408 -0.0454  0.9531
 5330TIP3   OH237480   4.274   6.553  15.038 -0.0424 -0.3516  0.2293
 5330TIP3    H137481   4.265   6.628  14.979 -1.2616 -0.7306 -0.1081
 5330TIP3    H237482   4.319   6.588  15.115  2.0403  0.0447 -1.0877
 5331TIP3   OH237483   4.303   0.285  13.876  0.4380  0.0361  0.0344
 5331TIP3    H137484   4.261   0.360  13.836  0.3602  0.0336  0.1100
 5331TIP3    H237485   4.391   0.316  13.899  0.6121 -0.0740 -0.4747
 5332TIP3   OH237486   3.089   0.345   1.651 -0.1215 -0.1242  0.8343
 5332TIP3    H137487   3.063   0.254   1.636  1.3480 -0.4913  0.3025
 5332TIP3    H237488   3.167   0.357   1.596  0.9900  0.7948  2.4972
 5333TIP3   OH237489   3.513   3.305  13.950  0.3327 -0.6028 -0.3241
 5333TIP3    H137490   3.600   3.280  13.982  0.3480 -2.6084 -1.7215
 5333TIP3    H237491   3.531   3.358  13.872  0.2701  0.4277  0.3383
 5334TIP3   OH237492   5.678   5.682   4.516 -0.2461 -0.1035 -1.1710
 5334TIP3    H137493   5.705   5.632   4.438 -0.0738  1.7079 -2.3365
 5334TIP3    H237494   5.584   5.696   4.504  0.0393  1.4470 -1.8738
 5335TIP3   OH237495   5.593   4.644  16.090  0.7972 -0.1756  0.3369
 5335TIP3    H137496   5.600   4.679  16.179  0.7885  1.3772 -0.2500
 5335TIP3    H237497   5.541   4.709  16.042 -0.7022 -1.8316 -0.3926
 5336TIP3   OH237498   5.297   6.194  14.763 -0.6066 -0.7996 -0.7859
 5336TIP3    H137499   5.359   6.151  14.821 -1.1486  0.1855  0.5967
 5336TIP3    H237500   5.226   6.131  14.751 -0.7103 -0.8424  0.0316
 5337TIP3   OH237501   2.397   0.922  13.613 -0.2445 -0.1494 -0.5684
 5337TIP3    H137502   2.457   0.865  13.661 -0.2939 -0.8070 -1.2886
 5337TIP3    H237503   2.374   0.874  13.534 -1.4779  0.2262 -0.4662
 5338TIP3   OH237504   3.769   1.563   2.191 -0.0567  0.0635  0.0324
 5338TIP3    H137505   3.719   1.492   2.150 -0.8924  1.7985 -2.1402
 5338TIP3    H237506   3.859   1.548   2.162 -0.0731 -0.5780  0.2954
 5339TIP3   OH237507   4.651   5.127  15.101  0.0044  0.0861  0.5072
 5339TIP3    H137508   4.692   5.123  15.187 -1.8884  1.4446  1.5590
 5339TIP3    H237509   4.622   5.037  15.083 -0.0890 -0.0992  1.5666
 5340TIP3   OH237510   0.079   1.256  16.673  0.1870 -0.2553  0.9077
 5340TIP3    H137511  -0.011   1.262  16.705 -0.4482  1.5859 -0.9813
 5340TIP3    H237512   0.088   1.166  16.642 -1.8882  0.1399 -1.1085
 5341TIP3   OH237513   3.373   0.072  15.784  0.2562 -0.5228 -1.1678
 5341TIP3    H137514   3.291   0.114  15.808  0.5158  0.8163 -2.4656
 5341TIP3    H237515   3.394   0.015  15.858  0.0322  1.8724  0.8410
 5342TIP3   OH237516   6.183   2.264  13.751 -0.3227  0.1709 -0.4053
 5342TIP3    H137517   6.104   2.307  13.718 -0.5484 -0.6378 -0.9551
 5342TIP3    H237518   6.233   2.334  13.792 -1.5114  0.6235  0.3358
 5343TIP3   OH237519   2.078   6.413   0.986 -0.2002  0.7411 -0.2724
 5343TIP3    H137520   2.168   6.405   0.954 -0.2093 -0.5889 -0.0314
 5343TIP3    H237521   2.024   6.414   0.907 -0.0238  0.6672 -0.3934
 5344TIP3   OH237522   4.021   5.040  12.207  0.3365 -0.0828 -0.1383
 5344TIP3    H137523   3.943   5.043  12.153 -0.8007 -0.5481  1.4112
 5344TIP3    H237524   4.001   4.977  12.276  1.5901  0.7187  1.0207
 5345TIP3   OH237525   6.099   0.618   1.545 -0.1640 -0.4595 -0.2204
 5345TIP3    H137526   6.056   0.533   1.557  2.0877 -1.5296  0.9925
 5345TIP3    H237527   6.115   0.649   1.634  1.2131  0.0440 -0.6213
 5346TIP3   OH237528   2.557   4.473  10.635 -0.3745 -0.4038  0.2970
 5346TIP3    H137529   2.650   4.457  10.652 -0.8195 -2.2535  1.1865
 5346TIP3    H237530   2.545   4.450  10.543  0.6414  3.0088 -0.8449
 5347TIP3   OH237531   0.166   5.118  16.915 -0.3511 -0.0919  0.2428
 5347TIP3    H137532   0.087   5.173  16.911 -0.0243  0.3168 -0.9698
 5347TIP3    H237533   0.150   5.049  16.851  0.1660 -0.1696  0.1979
 5348TIP3   OH237534   1.093   6.214  15.197  1.2056 -0.2371 -0.0574
 5348TIP3    H137535   1.042   6.239  15.120  1.0643  0.4435  0.2489
 5348TIP3    H237536   1.071   6.123  15.212  0.5260 -0.1111 -0.2738
 5349TIP3   OH237537   1.642   3.537   4.667 -0.4255 -0.8800 -0.5818
 5349TIP3    H137538   1.666   3.445   4.681  0.1301 -0.8889 -1.5137
 5349TIP3    H237539   1.634   3.545   4.572  1.1364  0.4279 -0.6432
 5350TIP3   OH237540   5.954   4.461  16.176  1.1070 -0.3709 -0.0637
 5350TIP3    H137541   6.035   4.476  16.226  1.0469  0.7996 -0.2870
 5350TIP3    H237542   5.891   4.429  16.241  1.3906 -0.0781  0.3614
 5351TIP3   OH237543   0.659   4.490  12.516 -0.4686  0.3456 -0.3188
 5351TIP3    H137544   0.738   4.504  12.464 -0.2494 -0.3062 -0.1620
 5351TIP3    H237545   0.639   4.577  12.552 -0.2956  0.6813 -1.0134
 5352TIP3   OH237546   0.259   6.110   3.438 -0.8810  0.0875 -0.3524
 5352TIP3    H137547   0.236   6.150   3.522 -0.8430  0.4813 -0.5277
 5352TIP3    H237548   0.178   6.112   3.387 -0.0330  3.6570 -1.8612
 5353TIP3   OH237549   5.444   5.410   6.216 -0.7494  0.4012 -0.5193
 5353TIP3    H137550   5.474   5.326   6.180 -1.3851 -0.5021  0.9777
 5353TIP3    H237551   5.375   5.438   6.156 -0.3040  0.0224 -1.2213
 5354TIP3   OH237552   1.919   3.726   1.914  0.6168  0.1212  0.1830
 5354TIP3    H137553   1.922   3.631   1.926 -5.3830 -0.3816  0.7703
 5354TIP3    H237554   1.885   3.759   1.997  0.7764  2.5959 -0.6730
 5355TIP3   OH237555   4.445   4.017  10.872  0.0550  0.0520 -0.4982
 5355TIP3    H137556   4.487   4.009  10.787 -0.9673 -1.0056 -0.9394
 5355TIP3    H237557   4.353   3.997  10.855  0.2548 -2.9574  1.2694
 5356TIP3   OH237558   3.748   4.619   5.457 -0.4842 -0.3664  0.0187
 5356TIP3    H137559   3.797   4.553   5.506 -0.3710 -0.3614 -0.0844
 5356TIP3    H237560   3.804   4.697   5.461 -1.8614  0.5934  2.5152
 5357TIP3   OH237561   1.250   5.568  15.516 -0.0218 -0.0117 -0.5891
 5357TIP3    H137562   1.209   5.541  15.434  0.8697 -0.8035 -0.7954
 5357TIP3    H237563   1.223   5.502  15.579 -0.8971  0.7252 -0.1692
 5358TIP3   OH237564   1.566   4.449  10.102  0.4081 -0.2763  0.3868
 5358TIP3    H137565   1.648   4.411  10.071 -0.5314 -0.8455 -1.5657
 5358TIP3    H237566   1.592   4.532  10.142  1.9655 -0.5571  0.0259
 5359TIP3   OH237567   4.819   0.313   2.605 -0.8196  0.1295 -0.6435
 5359TIP3    H137568   4.741   0.258   2.606 -0.8653  0.1981 -0.4457
 5359TIP3    H237569   4.845   0.321   2.697 -1.5592  1.4904 -0.5367
 5360TIP3   OH237570   5.111   0.995   0.480 -0.2399 -0.2793 -0.1043
 5360TIP3    H137571   5.028   0.956   0.454 -0.0841 -0.4871 -0.2984
 5360TIP3    H237572   5.109   1.083   0.443 -0.2239 -0.4059 -0.4101
 5361TIP3   OH237573   6.532   5.438  14.685 -0.2150 -0.0086 -0.0015
 5361TIP3    H137574   6.542   5.479  14.599  0.3797 -1.6472 -0.7442
 5361TIP3    H237575   6.440   5.450  14.707 -0.3133  0.6540 -0.7324
 5362TIP3   OH237576   3.079   5.252  16.234 -0.0994  0.2323 -0.2505
 5362TIP3    H137577   3.131   5.172  16.241  0.5344  0.7016  0.4991
 5362TIP3    H237578   2.997   5.224  16.192 -0.1138 -0.9118  0.5162
 5363TIP3   OH237579   3.203   6.762  11.520 -0.6202 -0.0072 -0.4300
 5363TIP3    H137580   3.177   6.833  11.461 -1.1513 -0.2297 -0.4633
 5363TIP3    H237581   3.279   6.797  11.566 -0.5327  0.3756 -0.8520
 5364TIP3   OH237582   2.305   6.311  14.410 -0.0285 -0.1280 -0.5191
 5364TIP3    H137583   2.372   6.364  14.366 -2.0789  2.5809 -0.6951
 5364TIP3    H237584   2.352   6.269  14.482  2.1986  0.1839 -1.6755
 5365TIP3   OH237585   1.490   5.055  10.713  0.2390 -0.8137  0.0725
 5365TIP3    H137586   1.511   5.073  10.622  1.3991 -2.7593 -0.0979
 5365TIP3    H237587   1.395   5.068  10.719  0.0651 -1.1532 -1.5376
 5366TIP3   OH237588   3.776   0.659   5.039 -0.5803  0.2340 -0.4050
 5366TIP3    H137589   3.794   0.662   5.133  1.3767  2.7326 -0.7621
 5366TIP3    H237590   3.834   0.590   5.006 -1.6704 -1.0337  0.2291
 5367TIP3   OH237591   5.533   0.093   2.829  0.3492  1.0982  0.0036
 5367TIP3    H137592   5.573   0.165   2.877  2.1904  0.6344 -0.7306
 5367TIP3    H237593   5.573   0.097   2.742 -2.1632  1.3190 -1.2221
 5368TIP3   OH237594   3.499   2.281  15.037 -1.4341  0.1443  0.2320
 5368TIP3    H137595   3.453   2.362  15.016 -1.7650 -0.2192 -0.4706
 5368TIP3    H237596   3.543   2.256  14.955 -3.9098 -2.0536 -0.5544
 5369TIP3   OH237597   3.755   6.153   1.959  0.2797 -0.3764  0.1814
 5369TIP3    H137598   3.731   6.133   2.050  1.2231 -1.1789  0.2703
 5369TIP3    H237599   3.687   6.213   1.929 -0.5467 -0.8016  1.1343
 5370TIP3   OH237600   0.766   6.622  14.452  0.3201 -0.0380 -0.0569
 5370TIP3    H137601   0.839   6.648  14.507  0.1705 -0.5055  0.3750
 5370TIP3    H237602   0.690   6.626  14.510  0.2120 -0.8761 -0.1286
 5371TIP3   OH237603   0.295   0.845   4.829  0.3196  0.4367  0.3470
 5371TIP3    H137604   0.374   0.898   4.821 -0.0053  0.8109 -0.4786
 5371TIP3    H237605   0.233   0.884   4.768  0.7803 -2.2061 -2.0108
 5372TIP3   OH237606   2.844   4.775   5.172  0.0435 -0.0751  0.1567
 5372TIP3    H137607   2.896   4.847   5.136 -0.1578  0.2311  0.4727
 5372TIP3    H237608   2.788   4.816   5.238  1.1383 -0.7619  1.5739
 5373TIP3   OH237609   6.815   2.754   5.343  0.2461  0.3434  0.2533
 5373TIP3    H137610   6.721   2.736   5.352 -0.0982  0.3727 -2.4307
 5373TIP3    H237611   6.855   2.667   5.343  0.3013  0.3497  1.8603
 5374TIP3   OH237612   0.516   2.481  11.681  0.0528  0.4840 -0.4912
 5374TIP3    H137613   0.443   2.423  11.702  0.0713  0.7124  0.2285
 5374TIP3    H237614   0.550   2.448  11.598  0.1844 -0.6532  0.0083
 5375TIP3   OH237615   4.890   1.122  13.370  0.4604  0.4066 -0.2348
 5375TIP3    H137616   4.833   1.122  13.294 -2.0954 -0.3390  1.5412
 5375TIP3    H237617   4.923   1.032  13.375 -0.8096 -0.0471  0.4724
 5376TIP3   OH237618   3.985   1.629  10.757 -0.4274 -0.0513 -0.1102
 5376TIP3    H137619   4.012   1.592  10.841  0.5822  0.2746 -0.2801
 5376TIP3    H237620   4.053   1.692  10.735  0.4820 -1.5976 -2.1548
 5377TIP3   OH237621   2.507   1.731  14.820 -0.0218 -0.7067 -0.4165
 5377TIP3    H137622   2.564   1.688  14.884 -0.4360  1.0464  1.2242
 5377TIP3    H237623   2.489   1.663  14.755  1.8812 -2.0417  0.3471
 5378TIP3   OH237624   6.803   1.026  13.161 -0.3356 -0.1657  0.5042
 5378TIP3    H137625   6.767   0.945  13.196 -0.2576  0.4662  2.1679
 5378TIP3    H237626   6.893   1.005  13.136 -0.9252 -1.0511 -0.9600
 5379TIP3   OH237627   0.162   2.467   2.003 -0.0325  0.9290 -0.1181
 5379TIP3    H137628   0.225   2.484   2.074 -2.9354  1.5864  2.5176
 5379TIP3    H237629   0.126   2.553   1.982 -1.6245  0.3359  0.0789
 5380TIP3   OH237630   6.551   1.327  12.944 -1.1381 -0.0711  0.6492
 5380TIP3    H137631   6.605   1.388  12.894  0.3876 -0.9524  1.1838
 5380TIP3    H237632   6.554   1.360  13.034 -0.3073 -0.9180  0.9406
 5381TIP3   OH237633   1.592   6.354   3.042 -0.0004  0.2101  0.0470
 5381TIP3    H137634   1.628   6.366   2.954 -0.3654  0.1426 -0.1144
 5381TIP3    H237635   1.665   6.323   3.094  0.0860 -0.2941 -0.3667
 5382TIP3   OH237636   0.078   0.852  15.593  0.0944 -0.0350  0.6144
 5382TIP3    H137637   0.059   0.806  15.511  0.5276 -0.1418  0.5748
 5382TIP3    H237638   0.034   0.800  15.660 -1.1647  0.6298  0.3448
 5383TIP3   OH237639   1.397   0.968  14.350 -0.2994 -0.0852  0.1004
 5383TIP3    H137640   1.308   0.951  14.320 -0.4833 -0.1266  0.6677
 5383TIP3    H237641   1.400   1.063  14.364 -0.1198 -0.0224 -0.3326
 5384TIP3   OH237642   3.097   2.761  17.106 -0.1635  0.1826 -0.3138
 5384TIP3    H137643   3.053   2.676  17.110  0.5683 -0.1906  0.1107
 5384TIP3    H237644   3.109   2.786  17.197 -1.8090  1.5345 -0.4189
 5385TIP3   OH237645   5.710   6.610  15.540 -0.0079 -0.0264  0.2583
 5385TIP3    H137646   5.683   6.550  15.610 -2.7195 -1.4645 -1.8170
 5385TIP3    H237647   5.639   6.675  15.536  0.5517  0.5506 -0.5783
 5386TIP3   OH237648   5.280   2.850   2.995  0.1129 -0.4910 -0.2679
 5386TIP3    H137649   5.229   2.869   3.074  0.2000 -1.8312  0.1367
 5386TIP3    H237650   5.231   2.780   2.951  1.1243 -1.1831 -0.3328
 5387TIP3   OH237651   1.582   2.593   3.885  0.6448 -0.0487 -0.0006
 5387TIP3    H137652   1.540   2.579   3.970 -1.6234 -0.3604 -1.0909
 5387TIP3    H237653   1.656   2.532   3.884  1.1810  0.4965  2.0052
 5388TIP3   OH237654   2.991   1.661  10.739 -0.7900 -0.0192  0.7322
 5388TIP3    H137655   2.958   1.751  10.733 -0.8543  0.1261  2.4997
 5388TIP3    H237656   2.922   1.613  10.786 -0.1960 -0.6624  0.9717
 5389TIP3   OH237657   5.504   1.833   2.636 -0.1225  0.0871  0.1561
 5389TIP3    H137658   5.536   1.923   2.640 -2.0675  0.8557 -0.3397
 5389TIP3    H237659   5.529   1.795   2.720  0.8551  1.0299  0.3199
 5390TIP3   OH237660   5.163   2.460  12.553 -0.5487  0.4600  0.2395
 5390TIP3    H137661   5.251   2.438  12.582 -0.0755  1.3921 -0.4295
 5390TIP3    H237662   5.106   2.397  12.597  0.4987 -0.4652  0.2941
 5391TIP3   OH237663   6.143   2.074  11.872  0.1005  1.1284  0.0349
 5391TIP3    H137664   6.076   2.092  11.805 -0.1676  0.8293  0.2183
 5391TIP3    H237665   6.183   2.159  11.890  0.4110  1.1585 -0.7559
 5392TIP3   OH237666   5.218   4.675  13.877 -0.1894  0.0198 -0.2612
 5392TIP3    H137667   5.183   4.617  13.809 -0.7729  0.6450 -0.5059
 5392TIP3    H237668   5.255   4.615  13.942  1.3559 -0.5849 -1.6147
 5393TIP3   OH237669   2.745   6.731  11.768 -0.1704 -0.4387 -0.1554
 5393TIP3    H137670   2.815   6.677  11.732  0.8993 -0.5417  1.9246
 5393TIP3    H237671   2.688   6.749  11.694  1.4282 -1.3356 -1.6779
 5394TIP3   OH237672   4.400   2.097   0.825 -0.4342 -0.1508  0.1493
 5394TIP3    H137673   4.314   2.135   0.814 -0.8323 -0.8068  0.8641
 5394TIP3    H237674   4.419   2.054   0.741 -2.7522 -3.7811  1.2295
 5395TIP3   OH237675   3.365   0.533   1.812  0.0286  0.0282 -0.7063
 5395TIP3    H137676   3.274   0.535   1.841  0.0174  1.0011 -0.7680
 5395TIP3    H237677   3.415   0.519   1.892 -0.0876  1.2396 -0.3970
 5396TIP3   OH237678   1.912   4.681   0.400 -0.9883 -0.6647  0.1579
 5396TIP3    H137679   1.836   4.655   0.453 -1.5715 -1.2574 -0.9349
 5396TIP3    H237680   1.876   4.745   0.338 -0.5072 -0.6447 -0.1035
 5397TIP3   OH237681   0.067   4.011   0.796  0.1523  0.3611 -0.2009
 5397TIP3    H137682   0.137   4.075   0.805 -0.3043  1.1092 -1.6300
 5397TIP3    H237683  -0.012   4.055   0.829 -0.1654  0.5710 -1.1993
 5398TIP3   OH237684   0.170   6.747  15.935 -0.7412 -0.3253  0.2920
 5398TIP3    H137685   0.181   6.677  15.870  0.1095 -0.1722  0.2685
 5398TIP3    H237686   0.128   6.818  15.886 -1.2447 -0.6683  0.2204
 5399TIP3   OH237687   1.743   4.061  11.436 -0.2270 -0.1692  0.6610
 5399TIP3    H137688   1.835   4.050  11.412  0.0745  0.2779  1.5595
 5399TIP3    H237689   1.706   3.973  11.436  0.3500 -0.4098  0.8572
 5400TIP3   OH237690   1.809   5.350   1.106 -0.4371 -0.6979 -0.0603
 5400TIP3    H137691   1.804   5.403   1.185  2.6359 -1.8806  1.0774
 5400TIP3    H237692   1.872   5.396   1.050 -1.0444 -0.9273 -0.9472
 5401TIP3   OH237693   3.220   0.390  11.439  0.0248  0.5728 -0.1105
 5401TIP3    H137694   3.270   0.424  11.513  0.6506  0.6149 -0.5423
 5401TIP3    H237695   3.158   0.459  11.417 -0.4480  0.3957  0.6287
 5402TIP3   OH237696   2.036   2.252   5.355 -0.0232  0.2148 -0.1057
 5402TIP3    H137697   1.991   2.272   5.273  0.4609 -1.9034 -0.9722
 5402TIP3    H237698   2.129   2.248   5.331  0.0761 -0.9525  0.3937
 5403TIP3   OH237699   2.599   0.817   3.840 -0.3265 -0.3320 -0.7036
 5403TIP3    H137700   2.579   0.885   3.905  0.8800  0.7632 -1.4088
 5403TIP3    H237701   2.576   0.735   3.883  0.8611  0.3161  1.2976
 5404TIP3   OH237702   1.535   0.512  11.327 -0.8018 -0.2898  0.0617
 5404TIP3    H137703   1.569   0.457  11.397  0.5893  0.8886  0.3884
 5404TIP3    H237704   1.543   0.459  11.248  0.6090 -0.5480  0.3474
 5405TIP3   OH237705   5.644   2.021  13.843 -0.6211 -0.6486  0.3236
 5405TIP3    H137706   5.722   1.980  13.882  1.3381  1.7440 -0.8197
 5405TIP3    H237707   5.632   2.102  13.892  0.1752  1.0052 -2.0044
 5406TIP3   OH237708   0.328   4.997   0.883  0.4066  0.4258  0.3416
 5406TIP3    H137709   0.407   4.946   0.865 -1.4516 -2.1567 -1.1570
 5406TIP3    H237710   0.325   5.061   0.812  0.6190 -0.1538 -0.1999
 5407TIP3   OH237711   1.992   3.436   1.960 -0.0683  0.6075  0.2885
 5407TIP3    H137712   1.960   3.427   1.870  0.6003  0.2624  0.0729
 5407TIP3    H237713   1.914   3.428   2.014 -0.2532 -1.3121 -0.1657
 5408TIP3   OH237714   2.013   6.101  16.106  0.1709  0.0802  0.0453
 5408TIP3    H137715   2.091   6.154  16.087  0.5553 -0.1153  1.0340
 5408TIP3    H237716   1.964   6.152  16.171  0.9217 -1.0870  1.5843
 5409TIP3   OH237717   2.320   2.930   1.893 -0.1170 -0.3609  0.2888
 5409TIP3    H137718   2.368   2.974   1.824  2.8193 -0.4856  2.0698
 5409TIP3    H237719   2.311   2.840   1.863  3.4682 -1.1053  0.9466
 5410TIP3   OH237720   0.944   3.788  15.175  0.1747  0.1165  0.3885
 5410TIP3    H137721   1.013   3.787  15.241 -0.0538 -1.5062  0.6388
 5410TIP3    H237722   0.990   3.783  15.091  0.4094  0.8144  0.4674
 5411TIP3   OH237723   4.528   5.601  15.621  0.4277  0.2734  0.0666
 5411TIP3    H137724   4.527   5.676  15.561  0.5219  0.0699 -0.1913
 5411TIP3    H237725   4.619   5.593  15.648  0.3829  0.3728  0.2478
 5412TIP3   OH237726   5.550   2.472  13.451 -0.0496  0.0093  0.3944
 5412TIP3    H137727   5.516   2.481  13.540  0.3423  1.3639  0.4253
 5412TIP3    H237728   5.543   2.560  13.413 -0.1635 -0.5282 -0.9065
 5413TIP3   OH237729   3.123   4.345  13.211 -0.2505  0.2957  0.0039
 5413TIP3    H137730   3.080   4.340  13.126 -0.2283 -0.5131  0.0376
 5413TIP3    H237731   3.057   4.317  13.274  0.3051 -0.9510  0.0569
 5414TIP3   OH237732   0.851   6.500  10.824 -0.6401 -1.0122  0.1946
 5414TIP3    H137733   0.877   6.461  10.741 -0.2162  2.4009 -1.4657
 5414TIP3    H237734   0.758   6.479  10.833 -1.0331 -0.4192 -1.8582
 5415TIP3   OH237735   4.931   0.549   2.143 -0.1072 -0.0448  0.4394
 5415TIP3    H137736   5.026   0.545   2.157  0.0450 -1.9448 -0.7220
 5415TIP3    H237737   4.893   0.553   2.231  1.0363 -0.5444  0.9781
 5416TIP3   OH237738   0.628   4.469  15.863 -0.4470  0.0177  0.7907
 5416TIP3    H137739   0.598   4.408  15.796 -1.0953  0.2048  0.9070
 5416TIP3    H237740   0.680   4.534  15.815  3.7329 -2.6969  1.0606
 5417TIP3   OH237741   0.727   0.536  12.916  0.3357  0.6093 -0.3278
 5417TIP3    H137742   0.742   0.449  12.955  2.0538  0.5188 -1.1169
 5417TIP3    H237743   0.700   0.517  12.826 -3.5530  0.8194  0.6010
 5418TIP3   OH237744   4.940   1.142   4.722 -0.1716  0.0384  0.1221
 5418TIP3    H137745   4.851   1.128   4.753  0.3044 -0.5314  1.2933
 5418TIP3    H237746   4.954   1.236   4.731 -0.0326 -0.1193  1.7376
 5419TIP3   OH237747   5.595   2.055  11.394  0.8859 -0.0741 -0.6287
 5419TIP3    H137748   5.603   2.067  11.488  0.8953 -0.5834 -0.5580
 5419TIP3    H237749   5.649   1.978  11.375 -0.3873 -0.9753 -0.7844
 5420TIP3   OH237750   4.395   1.790   4.897 -0.0341 -0.4622 -0.4902
 5420TIP3    H137751   4.439   1.875   4.905  0.0123 -0.4722 -0.6411
 5420TIP3    H237752   4.367   1.786   4.806  1.3658 -1.2860 -0.9183
 5421TIP3   OH237753   2.815   1.379   3.217  0.4157 -0.5431 -0.6692
 5421TIP3    H137754   2.783   1.403   3.130 -0.9473  0.4848  0.0809
 5421TIP3    H237755   2.910   1.390   3.211  0.3412 -0.3931 -1.9861
 5422TIP3   OH237756   5.691   5.814  12.454  0.0154  0.3082  0.6684
 5422TIP3    H137757   5.622   5.768  12.502 -0.1931  0.5219  0.5769
 5422TIP3    H237758   5.674   5.794  12.362  0.1640  0.2415  0.6547
 5423TIP3   OH237759   5.826   6.165  14.855 -0.3495  0.0234  0.6328
 5423TIP3    H137760   5.797   6.255  14.872 -0.3745  0.2529 -0.5018
 5423TIP3    H237761   5.893   6.174  14.787 -1.6805 -0.9330 -0.8928
 5424TIP3   OH237762   0.410   6.752   4.622 -0.3758 -0.1700  0.3496
 5424TIP3    H137763   0.343   6.820   4.613 -0.0445  0.0425 -0.6218
 5424TIP3    H237764   0.490   6.801   4.643 -0.1668 -0.2627 -0.2127
 5425TIP3   OH237765   1.336   3.797  14.835  0.2634 -0.4768 -0.2084
 5425TIP3    H137766   1.394   3.723  14.819  0.6521 -0.5497  1.3129
 5425TIP3    H237767   1.395   3.871  14.848 -0.1234  0.1339 -1.7388
 5426TIP3   OH237768   6.778   4.325  15.560 -0.1870  0.0212 -0.3654
 5426TIP3    H137769   6.823   4.334  15.644 -0.8535  0.7150 -0.0588
 5426TIP3    H237770   6.749   4.234  15.557 -0.0131 -0.0504  0.0845
 5427TIP3   OH237771   4.185   0.391  16.355  0.5933  0.5454 -0.3008
 5427TIP3    H137772   4.200   0.302  16.323 -1.3799 -0.0752  0.3595
 5427TIP3    H237773   4.196   0.447  16.279 -0.6593 -0.5450 -1.3244
 5428TIP3   OH237774   0.778   2.349   5.857  0.1198  0.7961  0.2640
 5428TIP3    H137775   0.808   2.281   5.917  2.3753  0.0264 -1.6154
 5428TIP3    H237776   0.754   2.302   5.777 -0.1172  2.0414 -0.4265
 5429TIP3   OH237777   5.609   0.778  11.930 -0.3990 -0.4734  0.3688
 5429TIP3    H137778   5.694   0.738  11.911 -0.1306  0.0734  0.4110
 5429TIP3    H237779   5.559   0.768  11.849  0.1582  0.3549 -0.0874
 5430TIP3   OH237780   2.836   1.587  16.482  0.5674  0.1923  0.1225
 5430TIP3    H137781   2.904   1.627  16.537  0.7207  0.8253 -0.5014
 5430TIP3    H237782   2.804   1.513  16.533  1.3352  0.2210  0.6728
 5431TIP3   OH237783   0.612   3.752   4.222 -0.3902 -0.6125 -0.1766
 5431TIP3    H137784   0.561   3.670   4.222 -2.2110  0.4547 -0.4374
 5431TIP3    H237785   0.550   3.818   4.254  1.2279  0.5663  0.6302
 5432TIP3   OH237786   5.098   6.152  10.950 -0.3138  0.0319 -0.2324
 5432TIP3    H137787   5.163   6.145  11.019  1.2772 -0.8499 -1.7312
 5432TIP3    H237788   5.148   6.178  10.872 -2.0227  0.9917 -1.0786
 5433TIP3   OH237789   6.270   3.384   0.252  0.1783 -0.4016  0.0801
 5433TIP3    H137790   6.285   3.446   0.324  1.6872  2.9431 -2.7892
 5433TIP3    H237791   6.189   3.414   0.211  0.8442 -0.4105 -1.2761
 5434TIP3   OH237792   2.722   5.636   3.686  0.1927  0.2499 -0.0778
 5434TIP3    H137793   2.773   5.716   3.675  1.3146 -0.5685 -1.0653
 5434TIP3    H237794   2.784   5.565   3.669 -0.5906 -0.8674  1.5275
 5435TIP3   OH237795   1.945   0.232   4.319  0.7922 -0.4323  0.1154
 5435TIP3    H137796   1.998   0.166   4.274 -0.7624 -0.3752 -1.9856
 5435TIP3    H237797   2.008   0.291   4.359  2.2477 -2.3478  0.8093
 5436TIP3   OH237798   5.626   0.060   3.389 -0.1859 -0.3739  0.7754
 5436TIP3    H137799   5.610   0.030   3.300  0.1917 -0.2255  0.6548
 5436TIP3    H237800   5.679  -0.010   3.428 -0.2880 -0.4042  0.8577
 5437TIP3   OH237801   1.411   4.949   2.558 -0.5167  0.2367  0.4866
 5437TIP3    H137802   1.376   4.860   2.543 -2.3228  0.5127  2.5505
 5437TIP3    H237803   1.494   4.935   2.603 -0.1391 -0.4042 -0.3823
 5438TIP3   OH237804   0.043   6.115   5.387 -0.6223  0.1070  0.0671
 5438TIP3    H137805   0.050   6.206   5.418 -2.7773 -0.2707  1.9670
 5438TIP3    H237806  -0.039   6.113   5.337  1.5361  0.0855 -3.7824
 5439TIP3   OH237807   1.668   2.533   5.727 -0.1747 -0.2427 -0.5564
 5439TIP3    H137808   1.746   2.583   5.706  0.2166 -0.6450 -0.0910
 5439TIP3    H237809   1.695   2.442   5.719 -0.4045 -0.3901  0.2497
 5440TIP3   OH237810   0.023   4.375  13.940  0.1013 -0.3876  0.2927
 5440TIP3    H137811  -0.047   4.401  14.000  1.3894 -1.3294  2.3231
 5440TIP3    H237812   0.061   4.457  13.910  0.0348  0.1220  1.5441
 5441TIP3   OH237813   4.367   1.778  14.475  0.1280  0.0160  0.5841
 5441TIP3    H137814   4.358   1.722  14.398  2.0392  0.7662 -0.2484
 5441TIP3    H237815   4.443   1.745  14.521  0.2417  0.8486  1.0249
 5442TIP3   OH237816   1.373   2.178  11.372 -0.1496  0.4402  0.5087
 5442TIP3    H137817   1.310   2.159  11.303  1.3280 -0.5076 -0.6471
 5442TIP3    H237818   1.345   2.263  11.407 -1.1377  0.7867 -1.0154
 5443TIP3   OH237819   3.838   6.677  10.776  0.0438  0.2228  0.0225
 5443TIP3    H137820   3.909   6.729  10.738 -0.5724  0.2051 -1.2037
 5443TIP3    H237821   3.847   6.590  10.736 -0.9294  0.3452 -0.4957
 5444TIP3   OH237822   3.863   2.022   4.043  0.3118  0.1441 -0.1674
 5444TIP3    H137823   3.816   1.970   4.109  1.9089 -0.5683  0.4518
 5444TIP3    H237824   3.954   1.996   4.052  0.8071  1.2549 -1.5646
 5445TIP3   OH237825   1.450   3.043   1.804  0.0892  0.4668  0.5831
 5445TIP3    H137826   1.493   3.099   1.739 -0.5990 -1.4737 -1.7166
 5445TIP3    H237827   1.516   2.977   1.825  0.5244  1.4249  2.4431
 5446TIP3   OH237828   1.083   3.984   1.228 -0.3506 -0.2840  0.0111
 5446TIP3    H137829   1.067   4.033   1.309 -0.3159 -0.1682 -0.0517
 5446TIP3    H237830   1.010   3.922   1.222 -0.2432 -0.4360  0.2388
 5447TIP3   OH237831   1.640   2.944  17.081 -0.2808  0.0411 -0.3481
 5447TIP3    H137832   1.661   2.904  16.997 -0.7992  0.7138 -0.8112
 5447TIP3    H237833   1.546   2.964  17.075 -0.2623  0.3344  0.2864
 5448TIP3   OH237834   5.057   4.951   4.437  0.6403 -0.4374 -0.1334
 5448TIP3    H137835   5.068   4.901   4.356  1.4002 -0.9669  0.2866
 5448TIP3    H237836   5.139   4.998   4.448  0.4049 -0.0809  0.1448
 5449TIP3   OH237837   6.006   6.409   2.968  0.5188  0.0825  0.4583
 5449TIP3    H137838   5.928   6.407   3.024 -0.2594  0.2055 -0.5868
 5449TIP3    H237839   6.024   6.503   2.956  0.3312  0.0636  0.0290
 5450TIP3   OH237840   6.454   3.531   3.826 -0.1543 -0.7746  0.1662
 5450TIP3    H137841   6.376   3.484   3.798 -0.8925 -0.0027  0.8490
 5450TIP3    H237842   6.500   3.470   3.883  0.2423 -1.5702 -0.9765
 5451TIP3   OH237843   1.466   0.281   2.245 -0.4813  0.2425 -0.8062
 5451TIP3    H137844   1.393   0.220   2.256 -0.6457  0.4910 -0.5135
 5451TIP3    H237845   1.522   0.240   2.178 -0.7467 -0.0788 -0.8315
 5452TIP3   OH237846   6.006   0.070  10.543  0.1690  0.6520 -1.0352
 5452TIP3    H137847   6.086   0.024  10.520  0.4599 -0.6845  2.0759
 5452TIP3    H237848   6.034   0.138  10.605 -1.0300  0.4120 -0.1940
 5453TIP3   OH237849   4.951   6.331   2.232 -0.0804 -0.8188  0.3437
 5453TIP3    H137850   4.871   6.281   2.216  0.6642 -2.1071  0.5474
 5453TIP3    H237851   4.927   6.421   2.214 -1.2737 -1.3318 -0.7230
 5454TIP3   OH237852   4.388   3.491   3.520 -0.5924  0.3738  0.2265
 5454TIP3    H137853   4.381   3.566   3.460 -1.9273 -0.5066 -0.7817
 5454TIP3    H237854   4.461   3.439   3.485 -0.1762  0.7912  0.4648
 5455TIP3   OH237855   1.498   5.647  16.895  0.0120  0.1915  0.0490
 5455TIP3    H137856   1.563   5.584  16.925 -0.4178 -0.1232  0.3483
 5455TIP3    H237857   1.546   5.729  16.883  0.8129 -0.4604 -1.4321
 5456TIP3   OH237858   1.451   1.623  13.229 -0.2306 -0.0593  0.2058
 5456TIP3    H137859   1.434   1.530  13.221  0.1384 -0.0150 -1.2835
 5456TIP3    H237860   1.495   1.647  13.148  0.8744  1.1483  1.1072
 5457TIP3   OH237861   3.713   5.303   3.232 -0.2940 -0.2291 -0.2215
 5457TIP3    H137862   3.708   5.355   3.152 -1.3189  0.7303  0.4336
 5457TIP3    H237863   3.761   5.359   3.293  1.4892 -1.4126 -0.4737
 5458TIP3   OH237864   2.346   2.206  15.028 -0.1423 -0.2547  0.6799
 5458TIP3    H137865   2.405   2.261  14.976 -1.2633 -0.1333 -0.5308
 5458TIP3    H237866   2.400   2.134  15.058  0.9086  0.5093  0.6681
 5459TIP3   OH237867   6.206   3.779  15.032 -0.4046  0.9193  0.1229
 5459TIP3    H137868   6.249   3.856  14.994  1.6630 -1.0570 -1.9033
 5459TIP3    H237869   6.185   3.724  14.956 -1.7897 -0.5212  1.4996
 5460TIP3   OH237870   0.648   5.957   3.151  0.6400 -0.3000 -0.2924
 5460TIP3    H137871   0.629   5.984   3.062  0.7084  0.2766 -0.1376
 5460TIP3    H237872   0.683   6.036   3.193  2.6582 -1.1011 -0.3548
 5461TIP3   OH237873   4.890   0.690   1.645 -0.2517 -0.5731 -0.0883
 5461TIP3    H137874   4.862   0.781   1.661 -0.5585 -0.0048 -3.2440
 5461TIP3    H237875   4.817   0.651   1.597 -0.6865 -2.9999  2.3248
 5462TIP3   OH237876   6.486   0.954  16.297  0.1519  0.1555 -0.2371
 5462TIP3    H137877   6.456   0.939  16.208  1.6616 -0.9862 -0.6032
 5462TIP3    H237878   6.406   0.967  16.348 -0.8765 -1.3297 -1.3778
 5463TIP3   OH237879   0.059   4.290  16.823  0.8903 -0.0952 -0.4119
 5463TIP3    H137880   0.022   4.376  16.803  1.3323  0.4862  1.1227
 5463TIP3    H237881   0.125   4.276  16.755 -1.3994 -0.7494 -2.6541
 5464TIP3   OH237882   6.024   1.022   5.785 -0.6221  0.0017  0.0759
 5464TIP3    H137883   6.071   0.949   5.744 -0.8358  0.3451 -0.7976
 5464TIP3    H237884   6.000   0.989   5.872  0.6328 -0.4140  0.2860
 5465TIP3   OH237885   2.941   6.462  15.250 -0.1430  0.0070  0.0400
 5465TIP3    H137886   2.858   6.457  15.298 -0.7509 -1.1542 -1.1027
 5465TIP3    H237887   2.937   6.546  15.205 -1.3916 -0.6966 -1.2136
 5466TIP3   OH237888   1.133   1.649  11.433 -0.1426  0.0443  0.0401
 5466TIP3    H137889   1.094   1.594  11.365 -0.9991  2.7543 -1.8202
 5466TIP3    H237890   1.127   1.596  11.513 -3.2368 -1.5639 -1.0908
 5467TIP3   OH237891   0.147   5.361   0.817 -0.5608 -0.0940 -0.0140
 5467TIP3    H137892   0.065   5.320   0.846 -0.0622 -1.5081 -0.5050
 5467TIP3    H237893   0.212   5.332   0.882 -0.5606  1.6533  0.8213
 5468TIP3   OH237894   2.816   2.675  11.622  0.1534  0.1273  0.2117
 5468TIP3    H137895   2.767   2.696  11.702  1.5521  0.0152  1.1179
 5468TIP3    H237896   2.772   2.598  11.587 -0.8046  0.4956  0.5669
 5469TIP3   OH237897   3.916   0.966   3.556  0.1326 -0.4182  0.6776
 5469TIP3    H137898   3.901   0.962   3.462 -1.2636  0.6292  0.8124
 5469TIP3    H237899   4.007   0.939   3.568 -0.1692 -2.2124 -0.7861
 5470TIP3   OH237900   0.047   3.499   1.894 -0.1381  0.5787 -0.2461
 5470TIP3    H137901   0.011   3.443   1.963 -0.5703  3.1501  1.7361
 5470TIP3    H237902  -0.017   3.493   1.822 -0.3649 -1.0935  0.0597
 5471TIP3   OH237903   1.499   3.165   4.905  0.1342 -0.2978  0.1979
 5471TIP3    H137904   1.444   3.173   4.827 -2.1987 -1.8383  1.5590
 5471TIP3    H237905   1.490   3.249   4.949 -0.8162 -0.3908  0.1928
 5472TIP3   OH237906   5.675   3.199  12.728  0.8380  0.2400  0.1246
 5472TIP3    H137907   5.764   3.233  12.731  0.7886  0.3289  0.7741
 5472TIP3    H237908   5.684   3.108  12.757  0.5869  0.5493  1.2198
 5473TIP3   OH237909   1.203   3.521  11.915 -0.1893 -0.0768 -0.4064
 5473TIP3    H137910   1.244   3.523  11.829 -0.1935  0.5673 -0.4042
 5473TIP3    H237911   1.272   3.494  11.975  0.5886  2.0370 -0.2463
 5474TIP3   OH237912   4.199   1.992  15.025  0.2958  0.0599 -0.0019
 5474TIP3    H137913   4.182   2.048  14.949  0.4120  0.5750  0.3386
 5474TIP3    H237914   4.238   2.052  15.089  0.5636 -0.4514  0.3171
 5475TIP3   OH237915   2.716   0.516   0.458 -0.4711  0.3970 -0.0923
 5475TIP3    H137916   2.671   0.447   0.505  0.3275 -0.1675 -0.1364
 5475TIP3    H237917   2.696   0.596   0.507  0.6951 -0.2275  1.4918
 5476TIP3   OH237918   1.958   5.024   3.908  0.1737  0.2924  0.1623
 5476TIP3    H137919   1.933   4.943   3.953 -0.9862  1.4515  1.6754
 5476TIP3    H237920   1.899   5.090   3.943  0.9792  1.7806 -1.1874
 5477TIP3   OH237921   4.366   2.923  17.081  0.1062  0.3663  0.0877
 5477TIP3    H137922   4.435   2.885  17.135  1.9302 -0.5969 -2.6628
 5477TIP3    H237923   4.301   2.854  17.072  0.4025  0.0846  0.0918
 5478TIP3   OH237924   5.576   0.333   0.775 -0.4747 -0.7090 -0.1184
 5478TIP3    H137925   5.500   0.339   0.832 -0.0877 -1.8177  0.5505
 5478TIP3    H237926   5.626   0.413   0.793 -0.5026 -0.9118  0.8877
 5479TIP3   OH237927   1.053   4.322   1.443 -0.1498  0.0613 -0.2202
 5479TIP3    H137928   0.986   4.279   1.496 -0.5914 -0.8830 -1.5036
 5479TIP3    H237929   1.129   4.264   1.448 -0.1841 -0.0189 -0.5868
 5480TIP3   OH237930   1.386   2.821   6.303 -0.3994 -0.3707  0.2178
 5480TIP3    H137931   1.321   2.875   6.260 -0.7047  0.3770  1.5496
 5480TIP3    H237932   1.461   2.821   6.244 -0.7606  0.6965 -0.2648
 5481TIP3   OH237933   3.956   5.924  11.486 -0.0441 -0.4774 -0.4887
 5481TIP3    H137934   4.025   5.979  11.448  0.4074 -1.4356 -1.0711
 5481TIP3    H237935   3.898   5.904  11.413 -0.9186  0.2367 -0.0253
 5482TIP3   OH237936   3.181   1.168   5.159 -0.1266 -0.3799  0.1785
 5482TIP3    H137937   3.271   1.193   5.140  0.1561 -0.6018  1.1735
 5482TIP3    H237938   3.137   1.250   5.180  0.5088 -0.5368  2.2813
 5483TIP3   OH237939   5.341   0.888  15.043  0.2615 -0.3190 -0.5724
 5483TIP3    H137940   5.354   0.908  14.951 -0.3093  1.0716 -0.3746
 5483TIP3    H237941   5.274   0.820  15.044  0.7850 -0.8628 -1.1932
 5484TIP3   OH237942   0.802   3.297  17.057  0.2068 -0.1054  0.1014
 5484TIP3    H137943   0.775   3.333  16.973 -1.2509  2.3250  1.4954
 5484TIP3    H237944   0.883   3.344  17.079  1.0577 -1.3375 -0.2616
 5485TIP3   OH237945   2.438   5.219  10.896  0.0226  0.0326  0.0071
 5485TIP3    H137946   2.375   5.207  10.825 -0.9050 -0.9159  0.9412
 5485TIP3    H237947   2.479   5.133  10.906  2.3385  0.9034 -1.3199
 5486TIP3   OH237948   0.865   0.821   3.795 -0.4245 -0.1857  0.0773
 5486TIP3    H137949   0.878   0.801   3.703 -1.7079 -1.6380  0.1786
 5486TIP3    H237950   0.811   0.749   3.828  1.0905 -0.3839  2.2809
 5487TIP3   OH237951   6.008   4.274  12.030 -0.1035  0.3392 -0.0615
 5487TIP3    H137952   6.053   4.353  12.060 -0.2737  0.2764  0.3773
 5487TIP3    H237953   5.917   4.286  12.059 -0.4183  0.5497 -1.0940
 5488TIP3   OH237954   3.239   2.127  15.983  0.2142  0.5322 -0.0483
 5488TIP3    H137955   3.189   2.141  16.063 -0.0398  0.5092 -0.2012
 5488TIP3    H237956   3.289   2.047  15.999  0.1021  0.4834  0.0562
 5489TIP3   OH237957   4.081   2.014  15.510 -0.0300 -0.0904 -0.0570
 5489TIP3    H137958   4.005   2.019  15.568 -1.2202 -0.0621 -1.5509
 5489TIP3    H237959   4.143   1.959  15.557 -1.5073 -1.2406  0.6453
 5490TIP3   OH237960   2.316   2.548   2.599  0.0774  0.1955 -0.0838
 5490TIP3    H137961   2.280   2.542   2.511  1.0670  2.7408 -0.7324
 5490TIP3    H237962   2.335   2.457   2.623 -0.1413 -0.5585 -2.5010
 5491TIP3   OH237963   2.098   5.341   4.554  0.0289 -0.1521  0.0878
 5491TIP3    H137964   2.118   5.369   4.465  0.4500 -1.6783 -0.3310
 5491TIP3    H237965   2.183   5.335   4.598 -0.0493 -0.7193  0.1711
 5492TIP3   OH237966   6.236   0.349  11.724  0.0549  0.0219  0.0375
 5492TIP3    H137967   6.323   0.316  11.749 -1.0742 -1.2035  2.7345
 5492TIP3    H237968   6.217   0.417  11.789 -0.0578  2.1076 -2.0292
 5493TIP3   OH237969   6.055   2.949   1.182  0.1972 -0.7558  0.5065
 5493TIP3    H137970   5.963   2.942   1.158 -0.0413  0.5154  0.9627
 5493TIP3    H237971   6.099   2.977   1.101 -0.0929  0.2829  0.6939
 5494TIP3   OH237972   5.654   4.603  14.820 -0.1058  0.3322 -0.3847
 5494TIP3    H137973   5.747   4.614  14.803 -0.1383  0.6227 -0.3843
 5494TIP3    H237974   5.643   4.509  14.835 -0.1738 -0.0759 -2.5989
 5495TIP3   OH237975   1.985   6.155  12.968 -0.2365  0.1400 -0.4893
 5495TIP3    H137976   1.967   6.094  12.897  0.7068 -1.3542  0.5070
 5495TIP3    H237977   1.931   6.125  13.040 -0.6677  1.2312 -0.3411
 5496TIP3   OH237978   6.541   4.364   1.816 -0.6826 -0.1255 -0.0692
 5496TIP3    H137979   6.594   4.352   1.895 -1.9239 -1.2753  0.6150
 5496TIP3    H237980   6.501   4.450   1.828 -0.7572 -0.2324  0.5017
 5497TIP3   OH237981   5.776   2.460   3.489  0.0421  0.0453  0.1983
 5497TIP3    H137982   5.699   2.441   3.436 -0.2471  0.9787  0.2556
 5497TIP3    H237983   5.750   2.537   3.541  1.6900  1.6467 -1.2555
 5498TIP3   OH237984   6.117   0.173   1.360  0.0110  0.2429  0.4744
 5498TIP3    H137985   6.134   0.118   1.436  0.0356 -3.3172 -1.8687
 5498TIP3    H237986   6.190   0.156   1.301 -1.7021  0.1207 -1.7373
 5499TIP3   OH237987   4.275   0.007   4.345  0.2202  0.9871 -0.5612
 5499TIP3    H137988   4.220   0.056   4.406 -0.7293 -1.7279  0.9391
 5499TIP3    H237989   4.222  -0.070   4.322  1.7423  0.4304 -2.5052
 5500TIP3   OH237990   1.582   0.999   2.054  0.3741  0.5376 -0.4245
 5500TIP3    H137991   1.595   0.949   1.974  1.8547 -0.2381  0.2580
 5500TIP3    H237992   1.492   0.978   2.081  0.9541 -1.8381 -0.1293
 5501TIP3   OH237993   2.876   1.125   3.919 -0.8708 -0.6405 -0.7538
 5501TIP3    H137994   2.943   1.156   3.980 -1.3034 -0.9023 -0.1329
 5501TIP3    H237995   2.822   1.202   3.903 -2.3816 -1.1735  1.3630
 5502TIP3   OH237996   5.042   3.775  12.006  0.5635 -0.2338  0.7324
 5502TIP3    H137997   5.014   3.741  12.091 -0.2304  1.8063  1.3618
 5502TIP3    H237998   4.986   3.852  11.992  1.2167 -0.0738 -1.2784
 5503TIP3   OH237999   1.856   2.812  14.239 -0.0375 -0.0588 -0.4297
 5503TIP3    H138000   1.913   2.795  14.314  0.4490  2.1119 -0.2560
 5503TIP3    H238001   1.842   2.726  14.199  0.4083 -1.1320  1.6184
 5504TIP3   OH238002   3.710   3.461  16.020 -0.2891  0.0182  0.4186
 5504TIP3    H138003   3.621   3.495  16.027  0.0634  0.7896  1.3745
 5504TIP3    H238004   3.757   3.525  15.966 -0.3247 -0.4324 -0.1584
 5505TIP3   OH238005   0.664   6.160  12.413 -0.5051 -0.7820  0.2975
 5505TIP3    H138006   0.592   6.140  12.354 -0.0032 -1.6444 -0.0303
 5505TIP3    H238007   0.622   6.178  12.497 -1.3994  2.2142 -0.6500
 5506TIP3   OH238008   5.044   0.686   1.884  0.2579 -0.0177  0.0081
 5506TIP3    H138009   5.006   0.667   1.798 -0.0108 -1.3996  0.4158
 5506TIP3    H238010   4.971   0.718   1.937  0.0357 -0.8732  0.2345
 5507TIP3   OH238011   2.978   2.340   5.553  0.3828 -0.2316  0.2325
 5507TIP3    H138012   3.017   2.307   5.472  0.8782  0.8988 -0.0151
 5507TIP3    H238013   2.992   2.435   5.550 -1.0463  0.0356  0.8753
 5508TIP3   OH238014   1.985   2.262   3.620 -0.1395  0.2346  0.5324
 5508TIP3    H138015   1.993   2.299   3.532  0.1949 -0.0292  0.4478
 5508TIP3    H238016   1.902   2.214   3.618  1.0117 -1.8951 -0.4774
 5509TIP3   OH238017   2.817   0.609   1.930 -0.3524 -0.1737 -0.2476
 5509TIP3    H138018   2.811   0.625   2.024  1.7931  0.5547 -0.1635
 5509TIP3    H238019   2.736   0.565   1.907 -0.5621 -1.1322  2.1016
 5510TIP3   OH238020   0.382   3.771   5.172 -0.1125  0.1905  1.0311
 5510TIP3    H138021   0.477   3.772   5.164 -0.0526  1.7135  1.6426
 5510TIP3    H238022   0.351   3.825   5.100 -0.5453 -0.5836  0.6253
 5511TIP3   OH238023   0.243   2.699  15.473 -0.4526 -0.5556  0.0789
 5511TIP3    H138024   0.219   2.708  15.380 -1.5577  0.2932  0.4202
 5511TIP3    H238025   0.238   2.605  15.490  0.5967 -0.8108 -0.9251
 5512TIP3   OH238026   3.373   1.016  10.272  1.0863  0.0759 -0.1078
 5512TIP3    H138027   3.299   1.063  10.310 -0.8063 -1.5069 -1.6001
 5512TIP3    H238028   3.447   1.076  10.281 -0.5970  2.2029  0.4601
 5513TIP3   OH238029   5.393   4.771   3.070 -0.2456 -0.1276 -0.1213
 5513TIP3    H138030   5.453   4.699   3.049  1.3621  1.6262 -1.9714
 5513TIP3    H238031   5.331   4.773   2.997  1.5559  2.1203 -1.7298
 5514TIP3   OH238032   6.236   5.778  14.801  0.0048  0.5207  0.3482
 5514TIP3    H138033   6.159   5.722  14.803  0.6581 -0.4205  0.2735
 5514TIP3    H238034   6.307   5.721  14.833  0.4264  1.7449  1.7047
 5515TIP3   OH238035   5.745   5.650  16.686  0.1042  0.6277  0.3089
 5515TIP3    H138036   5.801   5.645  16.609 -0.4842 -0.2313 -0.0796
 5515TIP3    H238037   5.668   5.699  16.656 -0.0686  0.4034  0.3843
 5516TIP3   OH238038   5.802   1.151   5.058 -0.5816 -0.4275  0.5881
 5516TIP3    H138039   5.886   1.197   5.057 -0.1677 -1.1594 -0.4056
 5516TIP3    H238040   5.742   1.211   5.101 -0.1201  1.1419 -0.8433
 5517TIP3   OH238041   6.397   4.000  14.013  0.4360  0.1378 -0.6780
 5517TIP3    H138042   6.381   3.909  13.987  2.5205 -0.0311 -1.5793
 5517TIP3    H238043   6.450   3.993  14.092  0.9695  0.5496 -0.9954
 5518TIP3   OH238044   0.987   6.032  14.380 -0.0760  0.2207 -0.4504
 5518TIP3    H138045   1.015   6.092  14.310 -0.0165  1.3100  0.4783
 5518TIP3    H238046   1.056   6.038  14.446 -0.5026 -0.1980  0.0445
 5519TIP3   OH238047   3.065   6.761  11.787  0.2326  0.0257 -0.0853
 5519TIP3    H138048   3.088   6.753  11.880  0.6301  0.7659 -0.1085
 5519TIP3    H238049   3.116   6.692  11.744  2.3854  1.5126 -0.1111
 5520TIP3   OH238050   6.395   6.163   0.994 -0.5090  0.2938 -0.5917
 5520TIP3    H138051   6.386   6.092   0.931 -1.8828  0.8409 -1.0414
 5520TIP3    H238052   6.317   6.218   0.981  0.0303  1.3551  0.4046
 5521TIP3   OH238053   3.120   1.007  12.842  0.5881 -0.1797 -0.5602
 5521TIP3    H138054   3.083   0.935  12.893  0.3685  0.5048  0.2959
 5521TIP3    H238055   3.096   0.989  12.752 -1.7445  0.1458 -0.0637
 5522TIP3   OH238056   3.069   5.297   2.476 -0.6584  0.2072 -0.4526
 5522TIP3    H138057   3.091   5.371   2.532  0.7660  0.3184 -1.1229
 5522TIP3    H238058   3.037   5.230   2.537  1.0371  0.2557  0.5409
 5523TIP3   OH238059   1.414   1.142  13.809 -0.6764 -0.2144  0.4367
 5523TIP3    H138060   1.435   1.091  13.731  1.3262 -0.2116  0.9161
 5523TIP3    H238061   1.412   1.233  13.778  2.3786  0.0500  0.6724
 5524TIP3   OH238062   0.332   0.142  16.418  0.8255 -0.4439 -0.0659
 5524TIP3    H138063   0.377   0.227  16.418  0.8460 -0.4207 -1.9053
 5524TIP3    H238064   0.325   0.119  16.326 -1.0806 -1.4427  0.2873
 5525TIP3   OH238065   1.213   1.647   2.220  0.3040  0.6231  0.1449
 5525TIP3    H138066   1.222   1.561   2.180 -0.8542  0.9722 -0.9278
 5525TIP3    H238067   1.261   1.706   2.162 -0.9917  1.0603 -0.5280
 5526TIP3   OH238068   5.924   5.916   2.514 -1.0113  0.1274 -0.4961
 5526TIP3    H138069   5.920   5.968   2.594 -0.4262 -1.1821  0.4079
 5526TIP3    H238070   6.014   5.886   2.508 -1.3328 -0.7928 -0.9862
 5527TIP3   OH238071   2.471   5.064  15.863  0.3386  0.7029  0.2146
 5527TIP3    H138072   2.460   5.014  15.782 -0.6804 -1.7974  1.7800
 5527TIP3    H238073   2.550   5.028  15.903 -0.4292  0.2953  1.4015
 5528TIP3   OH238074   3.840   3.078   3.456  0.0720  0.5452  0.6214
 5528TIP3    H138075   3.861   3.097   3.364  0.2107 -2.1717 -0.0011
 5528TIP3    H238076   3.914   3.026   3.487 -0.5078  0.4735  1.9288
 5529TIP3   OH238077   5.322   1.090   2.423 -0.1124 -0.3079  0.4337
 5529TIP3    H138078   5.263   1.165   2.436  0.4494  0.9080 -3.0678
 5529TIP3    H238079   5.400   1.111   2.474 -1.3095 -0.3464  2.4091
 5530TIP3   OH238080   6.746   4.520  12.852 -0.3947 -0.1893  0.6480
 5530TIP3    H138081   6.784   4.443  12.894  1.9384  0.2617 -0.4878
 5530TIP3    H238082   6.723   4.578  12.925  1.7260 -0.2400  1.4189
 5531TIP3   OH238083   3.926   0.772   6.730 -0.3096 -0.3189  0.1871
 5531TIP3    H138084   3.866   0.772   6.805  0.1420  1.6433  0.6102
 5531TIP3    H238085   3.877   0.816   6.660  0.0778 -0.0678  0.0668
 5532TIP3   OH238086   5.793   4.462   2.743 -0.1035 -0.3216  0.5297
 5532TIP3    H138087   5.753   4.547   2.727 -0.0518 -0.5610 -1.0023
 5532TIP3    H238088   5.762   4.407   2.671  1.3731 -1.0794  0.4321
 5533TIP3   OH238089   5.485   4.817  13.196 -0.8969 -0.1613  0.3635
 5533TIP3    H138090   5.578   4.831  13.211 -0.6992 -0.7098 -0.3008
 5533TIP3    H238091   5.463   4.740  13.249 -0.9041 -0.2102  0.2896
 5534TIP3   OH238092   1.212   3.611   1.513  0.3367 -0.0003  0.2003
 5534TIP3    H138093   1.174   3.643   1.596  0.6145  0.6471  0.0807
 5534TIP3    H238094   1.232   3.520   1.531 -0.0623 -0.0022  0.6942
 5535TIP3   OH238095   6.223   1.754   4.150  0.0679 -0.3307 -0.4273
 5535TIP3    H138096   6.277   1.823   4.110 -0.2115  0.9898  1.3432
 5535TIP3    H238097   6.262   1.673   4.118  1.2098  0.6047 -1.5889
 5536TIP3   OH238098   4.235   0.206   4.951  0.2368 -0.3777 -0.2741
 5536TIP3    H138099   4.257   0.181   5.041 -2.7044 -0.7119  0.4601
 5536TIP3    H238100   4.251   0.300   4.947 -2.7793  0.3241  1.7610
 5537TIP3   OH238101   4.321   2.497  15.932  0.4340  0.5698 -0.4974
 5537TIP3    H138102   4.367   2.413  15.922  0.5195  0.7310 -1.6263
 5537TIP3    H238103   4.317   2.511  16.026 -1.1147 -1.5534 -0.1600
 5538TIP3   OH238104   3.312   1.841  13.241 -0.0344  0.2860 -0.5785
 5538TIP3    H138105   3.274   1.775  13.300 -0.0677  1.1901  0.4376
 5538TIP3    H238106   3.406   1.820  13.240  0.0547  0.5970  0.2534
 5539TIP3   OH238107   6.188   2.564  10.614 -0.5797 -0.4048 -0.6875
 5539TIP3    H138108   6.129   2.534  10.545 -0.6760 -0.7279 -0.4619
 5539TIP3    H238109   6.142   2.638  10.653 -0.9613 -0.8236 -0.3313
 5540TIP3   OH238110   1.089   6.743  15.220 -0.1454 -0.1655 -0.5373
 5540TIP3    H138111   1.064   6.796  15.144 -0.0514  0.2184 -0.3007
 5540TIP3    H238112   1.014   6.686  15.236 -1.5512  2.0211  1.1124
 5541TIP3   OH238113   6.787   5.676   2.824 -0.2082 -0.4651 -0.0255
 5541TIP3    H138114   6.870   5.709   2.790 -0.3942  1.0841  0.9130
 5541TIP3    H238115   6.801   5.582   2.837  2.0880  0.0746  2.0176
 5542TIP3   OH238116   0.629   1.524   6.503 -0.1734 -0.2041 -0.2327
 5542TIP3    H138117   0.584   1.600   6.538 -1.2682 -1.5653  1.4760
 5542TIP3    H238118   0.659   1.476   6.580  2.4675 -0.4303 -1.2682
 5543TIP3   OH238119   1.948   1.257   0.584  0.2876  0.2784 -0.7030
 5543TIP3    H138120   1.865   1.305   0.585  0.8876  1.3794 -0.9045
 5543TIP3    H238121   1.991   1.286   0.503  1.1025  0.1705 -0.3220
 5544TIP3   OH238122   0.854   1.642   3.569 -0.8422  0.1775  0.7523
 5544TIP3    H138123   0.809   1.705   3.514  1.1876  0.6456 -0.4786
 5544TIP3    H238124   0.892   1.695   3.640 -0.9914  0.0000  0.9679
 5545TIP3   OH238125   3.975   5.703   4.696  0.2352 -0.4105  0.7924
 5545TIP3    H138126   3.893   5.659   4.674  1.4136 -1.5523 -1.6325
 5545TIP3    H238127   4.034   5.633   4.721  0.7108  0.3354  1.8187
 5546TIP3   OH238128   2.517   6.017  16.291 -0.2172 -0.1129  0.1032
 5546TIP3    H138129   2.529   6.054  16.203 -0.5652 -2.0792 -0.8178
 5546TIP3    H238130   2.573   6.071  16.347 -0.5273  1.6353 -1.1694
 5547TIP3   OH238131   4.965   6.112  15.349  0.0810  0.4667  0.0215
 5547TIP3    H138132   5.023   6.067  15.411 -0.5864 -0.2488  0.1416
 5547TIP3    H238133   4.900   6.156  15.404  0.7792  1.6761 -0.0940
 5548TIP3   OH238134   2.523   1.729   5.759  0.1105 -0.2770 -0.1207
 5548TIP3    H138135   2.558   1.641   5.773 -0.7578 -0.5788  0.2644
 5548TIP3    H238136   2.433   1.714   5.731  0.1934  0.4775 -0.8244
 5549TIP3   OH238137   0.827   3.771  12.464  0.3082  0.3381 -0.1198
 5549TIP3    H138138   0.906   3.718  12.474  0.1526 -0.1307 -1.2423
 5549TIP3    H238139   0.755   3.711  12.485  0.0506 -0.3254 -2.5635
 5550TIP3   OH238140   5.628   3.606   3.463 -0.0835  0.4978  0.4250
 5550TIP3    H138141   5.589   3.685   3.502 -0.1618  1.0280 -0.6880
 5550TIP3    H238142   5.564   3.537   3.482 -0.8098  1.0358  0.0085
 5551TIP3   OH238143   1.672   4.585   6.410 -0.4438 -0.3757  0.2827
 5551TIP3    H138144   1.645   4.656   6.352 -0.1669 -0.2841  0.2656
 5551TIP3    H238145   1.764   4.571   6.391 -1.0148 -2.3118 -1.3669
 5552TIP3   OH238146   4.733   2.264  14.120 -0.1642 -0.2450  1.4467
 5552TIP3    H138147   4.814   2.260  14.171  0.4670  0.0538  0.4808
 5552TIP3    H238148   4.691   2.180  14.135  0.8987 -0.8680  1.0199
 5553TIP3   OH238149   1.151   4.374  14.836 -0.3656  0.3564  0.2781
 5553TIP3    H138150   1.196   4.442  14.886 -0.8667  0.6062  0.4008
 5553TIP3    H238151   1.197   4.372  14.752  0.1771  0.2668  0.5778
 5554TIP3   OH238152   0.807   2.084   0.716  0.0222  0.3442 -0.6629
 5554TIP3    H138153   0.891   2.127   0.702  0.7467 -1.0333 -0.7043
 5554TIP3    H238154   0.743   2.144   0.679  1.0285  1.2215 -1.0287
 5555TIP3   OH238155   2.437   5.497  11.379 -0.1113  0.2410  0.5291
 5555TIP3    H138156   2.445   5.481  11.285 -0.2996  2.1320  0.1496
 5555TIP3    H238157   2.367   5.438  11.408 -0.2047 -0.2010 -0.5665
 5556TIP3   OH238158   1.030   1.562   1.304  0.4263  0.5813  0.1576
 5556TIP3    H138159   0.947   1.521   1.280  0.7962 -1.5639  2.1795
 5556TIP3    H238160   1.009   1.655   1.314 -1.4112  0.2921 -0.6555
 5557TIP3   OH238161   4.300   3.878   1.922 -0.6009  0.4534  0.1523
 5557TIP3    H138162   4.386   3.854   1.957 -0.0536  1.6003 -0.3746
 5557TIP3    H238163   4.318   3.912   1.834 -1.5643  0.9390  0.1280
 5558TIP3   OH238164   6.061   1.520  12.767 -0.1942 -0.2582 -0.1281
 5558TIP3    H138165   5.998   1.453  12.743  0.2277 -0.9383  0.5942
 5558TIP3    H238166   6.009   1.590  12.806 -0.6406 -0.1693 -0.8842
 5559TIP3   OH238167   3.753   1.707  11.755 -0.0244  0.4154  0.4860
 5559TIP3    H138168   3.768   1.685  11.663 -0.1687 -2.5510  1.0866
 5559TIP3    H238169   3.834   1.680  11.799 -0.4869  0.5377  1.4145
 5560TIP3   OH238170   0.345   2.112   3.250 -0.4065 -0.3796 -0.5246
 5560TIP3    H138171   0.269   2.171   3.253  0.0462  0.1696  0.4742
 5560TIP3    H238172   0.334   2.064   3.168 -0.6416  1.2978 -1.5328
 5561TIP3   OH238173   6.411   6.317   2.399 -0.0964  1.1944  0.1988
 5561TIP3    H138174   6.329   6.283   2.435  0.7988 -2.3451 -0.7170
 5561TIP3    H238175   6.396   6.320   2.304  1.8035 -3.2790 -0.4825
 5562TIP3   OH238176   6.456   3.301   1.117  0.1198 -0.3095 -0.5091
 5562TIP3    H138177   6.381   3.269   1.066 -1.2420 -0.6402  1.5917
 5562TIP3    H238178   6.500   3.363   1.058 -2.1082  0.2961 -1.6491
 5563TIP3   OH238179   1.991   5.854   1.137 -0.0921 -0.0822 -0.2426
 5563TIP3    H138180   1.933   5.930   1.129  1.1953  0.9377 -0.2591
 5563TIP3    H238181   1.935   5.785   1.174 -1.1402  1.0600  0.3887
 5564TIP3   OH238182   6.424   3.861   5.449 -0.0917 -0.0847 -0.4516
 5564TIP3    H138183   6.439   3.828   5.361  1.8905 -0.3103 -0.0724
 5564TIP3    H238184   6.509   3.898   5.476 -0.8227  0.5577  1.1139
 5565TIP3   OH238185   4.075   3.034   5.838  0.1182 -0.6798 -0.1644
 5565TIP3    H138186   4.007   3.002   5.898  1.0335  0.4249  1.5334
 5565TIP3    H238187   4.086   3.126   5.862  1.0665 -0.4162 -1.5395
 5566TIP3   OH238188   5.344   0.283   5.499  0.3857 -0.0171  0.5002
 5566TIP3    H138189   5.377   0.307   5.586 -0.3471  1.1766  0.4729
 5566TIP3    H238190   5.249   0.279   5.511  0.4016 -2.2131  0.3038
 5567TIP3   OH238191   4.346   6.310  13.413  0.1777 -0.8731  0.1780
 5567TIP3    H138192   4.256   6.337  13.395  0.6801 -0.8501 -2.6933
 5567TIP3    H238193   4.400   6.383  13.383  1.2367 -1.7791 -0.1740
 5568TIP3   OH238194   1.155   5.162   5.306 -0.4091  0.3011  0.1398
 5568TIP3    H138195   1.207   5.085   5.330 -0.4044  0.5942  1.1129
 5568TIP3    H238196   1.064   5.135   5.320 -0.3946  0.5543  0.7716
 5569TIP3   OH238197   0.595   1.171  13.846 -0.4232  0.1309 -1.0330
 5569TIP3    H138198   0.538   1.095  13.855  0.1939 -0.1865  0.2585
 5569TIP3    H238199   0.602   1.207  13.934  1.7878 -0.1272 -1.0608
 5570TIP3   OH238200   5.223   0.942  16.671  0.5399  0.2056  0.5247
 5570TIP3    H138201   5.268   0.976  16.594  0.5594  0.1653  0.5195
 5570TIP3    H238202   5.195   0.854  16.646  0.7554  0.1012  0.6448
 5571TIP3   OH238203   5.082   3.892  14.387  0.4679  0.4871  0.5187
 5571TIP3    H138204   5.000   3.848  14.363  1.6907 -1.2904 -0.6443
 5571TIP3    H238205   5.060   3.986  14.386 -0.8758  0.2767 -2.7731
 5572TIP3   OH238206   2.170   5.886  15.697  0.3844  0.6450  0.0062
 5572TIP3    H138207   2.148   5.922  15.611  1.5175 -1.1782 -1.1269
 5572TIP3    H238208   2.211   5.958  15.743 -0.2898  1.6827 -0.9639
 5573TIP3   OH238209   1.385   6.328  14.089  0.0793 -0.4152  0.1710
 5573TIP3    H138210   1.348   6.315  14.002  0.5028  0.6146 -0.1658
 5573TIP3    H238211   1.474   6.358  14.074 -0.4924  1.8509  0.8888
 5574TIP3   OH238212   2.104   2.319   3.989 -0.2786 -0.1380 -0.3560
 5574TIP3    H138213   2.163   2.305   4.063  0.2065  1.2087 -0.4608
 5574TIP3    H238214   2.074   2.410   3.999 -2.3849 -0.7888 -0.2750
 5575TIP3   OH238215   3.797   2.165  11.217 -0.4299 -0.8759  0.1721
 5575TIP3    H138216   3.859   2.147  11.288 -0.4891  0.0996  0.4946
 5575TIP3    H238217   3.822   2.106  11.146  1.2041 -0.1308  0.0957
 5576TIP3   OH238218   0.556   3.236  14.956  0.2509 -0.1616 -0.2623
 5576TIP3    H138219   0.505   3.205  15.031  0.9284 -1.3106 -0.2553
 5576TIP3    H238220   0.645   3.204  14.972  0.5869  0.2835 -1.1508
 5577TIP3   OH238221   4.727   1.908   2.648 -0.1509 -0.3271 -0.3655
 5577TIP3    H138222   4.774   1.944   2.573  1.4273  1.0370  1.1793
 5577TIP3    H238223   4.765   1.822   2.662  1.6302  0.5354  0.5132
 5578TIP3   OH238224   2.698   1.107  16.328  0.1060  0.4141  0.5098
 5578TIP3    H138225   2.633   1.172  16.352  1.4588  1.2542  2.1030
 5578TIP3    H238226   2.782   1.154  16.330  0.9357 -0.9530 -0.0846
 5579TIP3   OH238227   4.877   0.451  16.117 -0.0732  0.2846 -0.2624
 5579TIP3    H138228   4.950   0.500  16.081  0.3444  0.3915  0.7054
 5579TIP3    H238229   4.818   0.517  16.153 -0.6672  0.2011 -1.0633
 5580TIP3   OH238230   1.058   4.897  13.777  0.0678 -0.4294  0.4007
 5580TIP3    H138231   1.106   4.930  13.701 -0.5123 -1.9026 -0.6445
 5580TIP3    H238232   1.081   4.958  13.847  3.5319 -1.0582  0.0139
 5581TIP3   OH238233   6.345   4.622  13.505  0.1533  0.2574  0.2171
 5581TIP3    H138234   6.427   4.588  13.541 -0.1867 -2.4916 -1.3469
 5581TIP3    H238235   6.276   4.576  13.551 -0.5180  1.4666  0.4804
 5582TIP3   OH238236   0.001   1.935  10.967  0.0662  0.4736  0.4917
 5582TIP3    H138237  -0.074   1.983  11.003  0.0681  0.4098  0.5799
 5582TIP3    H238238   0.052   2.002  10.921  0.4886  0.7124  1.2865
 5583TIP3   OH238239   4.122   2.945   2.819  0.1881  0.2442  0.1160
 5583TIP3    H138240   4.163   2.909   2.740  0.7964 -0.7001  0.8399
 5583TIP3    H238241   4.029   2.922   2.811  0.3147 -0.1851 -0.1436
 5584TIP3   OH238242   3.086   2.629  13.443 -0.0705  0.3435 -0.6843
 5584TIP3    H138243   3.180   2.619  13.425  0.1756  1.8233 -0.4316
 5584TIP3    H238244   3.053   2.681  13.370 -0.7061 -0.2298 -0.8042
 5585TIP3   OH238245   4.732   3.927  13.623 -0.1220  0.0114 -0.2739
 5585TIP3    H138246   4.662   3.933  13.558 -0.7419  2.1823  0.5015
 5585TIP3    H238247   4.686   3.920  13.707  0.4431  2.7282  0.3692
 5586TIP3   OH238248   6.690   2.370  14.549  0.0297 -0.1929  0.1624
 5586TIP3    H138249   6.769   2.390  14.499 -0.1824 -1.3026 -0.6407
 5586TIP3    H238250   6.621   2.419  14.505 -0.2729 -1.6683 -1.0670
 5587TIP3   OH238251   1.123   1.767  14.817  0.2252  0.0970  0.2417
 5587TIP3    H138252   1.203   1.739  14.774  0.8126 -0.7140  1.7740
 5587TIP3    H238253   1.055   1.711  14.780  0.2357  1.1165 -1.4226
 5588TIP3   OH238254   1.543   6.403  16.854  0.4145 -0.2954 -0.1804
 5588TIP3    H138255   1.515   6.347  16.782 -0.1757  1.3494 -1.2915
 5588TIP3    H238256   1.469   6.402  16.915 -0.4523  0.8464 -1.1768
 5589TIP3   OH238257   0.763   1.937  12.282  0.3844  0.0233  0.0056
 5589TIP3    H138258   0.719   1.952  12.366 -1.3465 -0.5385 -0.7475
 5589TIP3    H238259   0.744   1.845  12.262 -0.2540  0.4573 -1.5384
 5590TIP3   OH238260   6.062   6.269  11.003 -0.7081  0.4253 -0.0418
 5590TIP3    H138261   6.043   6.261  10.910  1.3366  0.4345 -0.5173
 5590TIP3    H238262   6.018   6.194  11.044 -1.5638  0.3827 -1.0038
 5591TIP3   OH238263   5.366   0.754  15.979  1.0648  0.0974  0.6080
 5591TIP3    H138264   5.453   0.756  15.940  0.3013  0.9562 -1.1392
 5591TIP3    H238265   5.333   0.666  15.962  1.4115 -0.0873  0.8839
 5592TIP3   OH238266   3.865   5.531  13.177  0.0916  0.2819 -0.5561
 5592TIP3    H138267   3.801   5.600  13.195  0.3762  0.5798 -0.6837
 5592TIP3    H238268   3.816   5.449  13.189 -0.5053  0.5160 -1.3451
 5593TIP3   OH238269   1.240   0.508  12.088  0.5051  0.3049 -0.2037
 5593TIP3    H138270   1.235   0.460  12.170  0.3244 -1.2897 -1.1023
 5593TIP3    H238271   1.249   0.440  12.021  2.4776  1.5994 -1.3814
 5594TIP3   OH238272   2.904   6.337  14.248 -0.2844 -0.2537  0.7132
 5594TIP3    H138273   2.987   6.348  14.295 -0.7447 -1.1210  1.7549
 5594TIP3    H238274   2.894   6.419  14.200  1.9470 -0.7017 -0.6989
 5595TIP3   OH238275   2.392   1.723   0.824  0.3231 -0.0889 -0.5996
 5595TIP3    H138276   2.356   1.663   0.889  1.0961 -0.9622 -0.9561
 5595TIP3    H238277   2.316   1.760   0.780 -0.1787 -0.3101  0.0597
 5596TIP3   OH238278   1.321   6.572  16.461 -0.2950  0.2973 -0.6274
 5596TIP3    H138279   1.274   6.636  16.407 -1.7460  0.4105  0.6953
 5596TIP3    H238280   1.265   6.495  16.461  1.3349 -0.9796 -2.0237
 5597TIP3   OH238281   1.736   6.770   4.547  0.3290  0.0234  0.5947
 5597TIP3    H138282   1.799   6.840   4.534  1.1145 -0.5735  1.0560
 5597TIP3    H238283   1.789   6.690   4.548 -0.6342 -0.6798 -0.8275
 5598TIP3   OH238284   2.404   5.165   2.017 -0.0714  0.4759  0.3540
 5598TIP3    H138285   2.336   5.153   2.083  1.2460 -0.8336  1.5541
 5598TIP3    H238286   2.472   5.216   2.061 -0.2938  1.9206 -0.8783
 5599TIP3   OH238287   6.343   4.406   2.875  0.7103 -0.0818  0.3673
 5599TIP3    H138288   6.382   4.383   2.791 -0.4527  0.1641 -0.2605
 5599TIP3    H238289   6.397   4.361   2.940  2.7310  1.1564 -0.3624
 5600TIP3   OH238290   6.261   4.073  11.687 -0.1166  0.1784  0.2433
 5600TIP3    H138291   6.220   4.109  11.766 -0.0258  1.5406 -0.3078
 5600TIP3    H238292   6.188   4.053  11.629 -0.2529 -1.7408  0.9975
 5601TIP3   OH238293   3.019   2.531   2.888 -0.0011  0.4834 -0.1320
 5601TIP3    H138294   3.034   2.496   2.800 -1.0674 -0.7504  0.1555
 5601TIP3    H238295   2.940   2.583   2.880  0.7382  1.6315 -0.2132
 5602TIP3   OH238296   4.409   4.808   1.798 -0.8551  0.1225 -0.3090
 5602TIP3    H138297   4.476   4.861   1.755  0.5541  0.9706  2.6609
 5602TIP3    H238298   4.330   4.822   1.746  0.8555  0.2343 -3.1049
 5603TIP3   OH238299   2.098   4.016  15.133  0.0795  0.3890 -0.1516
 5603TIP3    H138300   2.011   3.999  15.096  0.6640 -1.6931 -0.6975
 5603TIP3    H238301   2.130   3.930  15.158  0.9003  1.4236  2.6484
 5604TIP3   OH238302   3.336   5.641  16.086  0.6524 -0.1098 -0.7013
 5604TIP3    H138303   3.394   5.591  16.143  1.3594  1.5136  0.0688
 5604TIP3    H238304   3.248   5.619  16.116  0.8973 -1.5048 -0.9422
 5605TIP3   OH238305   4.932   2.648   0.892 -0.5198  0.1134  0.0452
 5605TIP3    H138306   4.995   2.650   0.820  0.0531 -0.5328  0.5032
 5605TIP3    H238307   4.849   2.672   0.853  0.2042  2.0879 -0.3711
 5606TIP3   OH238308   1.714   2.757  16.137 -0.2691  0.6334 -0.0857
 5606TIP3    H138309   1.684   2.829  16.193 -1.0875  0.0195  0.2837
 5606TIP3    H238310   1.634   2.721  16.099  0.2003  0.4183 -0.8940
 5607TIP3   OH238311   2.022   5.337  14.453  0.0598 -0.0539 -0.7695
 5607TIP3    H138312   2.054   5.421  14.486 -1.4146  1.0015 -1.8716
 5607TIP3    H238313   2.085   5.273  14.486  0.6713  1.3367  0.9698
 5608TIP3   OH238314   2.950   0.694   4.386 -0.2324  0.4738 -0.4633
 5608TIP3    H138315   2.913   0.641   4.315 -0.7923  0.4711 -0.1744
 5608TIP3    H238316   2.932   0.644   4.466  0.7231  0.2960 -0.3473
 5609TIP3   OH238317   0.523   2.540   4.578 -0.2589 -0.3729 -0.2562
 5609TIP3    H138318   0.614   2.524   4.606 -1.2355 -0.6085  3.2368
 5609TIP3    H238319   0.530   2.613   4.517  2.2583 -0.2011  0.1206
 5610TIP3   OH238320   5.058   1.268  15.507 -0.4887 -0.3092 -0.7123
 5610TIP3    H138321   5.086   1.297  15.420 -1.1094  1.1010 -0.4577
 5610TIP3    H238322   5.025   1.179  15.492  0.0742 -0.3561 -1.7860
 5611TIP3   OH238323   6.513   4.197  12.869  0.3641  0.1084 -0.1627
 5611TIP3    H138324   6.465   4.151  12.800 -0.1621 -2.0191  1.5371
 5611TIP3    H238325   6.485   4.155  12.950  3.6162  0.0932  1.0950
 5612TIP3   OH238326   3.765   0.702  12.037  0.9371 -0.2203 -0.2188
 5612TIP3    H138327   3.858   0.681  12.023  1.3756  1.1508  0.4605
 5612TIP3    H238328   3.760   0.797  12.028 -0.0831 -0.0762  1.3967
 5613TIP3   OH238329   5.234   0.514  16.137  0.2497 -0.2128  0.4021
 5613TIP3    H138330   5.235   0.594  16.190  1.9998 -0.1552  0.3446
 5613TIP3    H238331   5.208   0.445  16.199  0.4588  0.1324  0.8802
 5614TIP3   OH238332   6.475   0.042  16.713  0.0930  0.8412  0.7261
 5614TIP3    H138333   6.532   0.118  16.700 -0.1494  1.6156  3.6224
 5614TIP3    H238334   6.391   0.068  16.675 -0.0178  2.1156  1.7765
 5615TIP3   OH238335   6.680   3.599  16.258  0.3847 -0.1076 -0.5060
 5615TIP3    H138336   6.632   3.619  16.338  0.0608  1.1523 -0.9970
 5615TIP3    H238337   6.760   3.555  16.288  1.2682  2.1894  0.6756
 5616TIP3   OH238338   3.781   2.086  16.507  0.0055 -0.3401 -0.2291
 5616TIP3    H138339   3.776   2.098  16.412 -1.0880  1.0399 -0.0345
 5616TIP3    H238340   3.868   2.117  16.530  0.3425 -0.8434 -0.7972
 5617TIP3   OH238341   1.679   3.103  12.572  0.4574 -0.1066  0.0382
 5617TIP3    H138342   1.701   3.012  12.592  0.3543 -0.2637 -0.5615
 5617TIP3    H238343   1.755   3.153  12.601  0.5097 -0.3772  0.3821
 5618TIP3   OH238344   4.614   3.214  12.434 -0.0766 -0.0022  0.1426
 5618TIP3    H138345   4.538   3.206  12.491 -1.4001  3.6720 -0.8505
 5618TIP3    H238346   4.608   3.140  12.374 -1.6114 -0.9661  1.4257
 5619TIP3   OH238347   3.526   5.916  13.734  0.2857 -0.4104 -0.1120
 5619TIP3    H138348   3.477   5.887  13.657  1.4924 -0.7012 -0.8001
 5619TIP3    H238349   3.575   5.992  13.704 -1.3389  1.2155  1.1471
 5620TIP3   OH238350   2.021   4.689  17.093  0.0249  0.2867  0.3411
 5620TIP3    H138351   1.982   4.763  17.140  0.8118  1.2591 -0.5017
 5620TIP3    H238352   1.966   4.615  17.117 -0.5468  1.0545  1.5299
 5621TIP3   OH238353   3.501   4.430   5.082 -0.0616 -0.1510 -0.3595
 5621TIP3    H138354   3.534   4.518   5.062  0.4528 -0.1709  0.3901
 5621TIP3    H238355   3.468   4.398   4.998 -0.9985  1.0657 -0.4765
 5622TIP3   OH238356   1.072   2.950  14.536 -0.1438  0.5036  0.1279
 5622TIP3    H138357   1.167   2.944  14.524 -0.0047  1.0905  0.9235
 5622TIP3    H238358   1.054   3.043  14.543 -0.6071  0.3357  1.3356
 5623TIP3   OH238359   1.277   1.047   5.156 -0.0719 -0.4643 -0.6063
 5623TIP3    H138360   1.224   1.083   5.085 -0.7094 -1.0110 -0.4184
 5623TIP3    H238361   1.352   1.008   5.112  1.8303  2.9359 -0.7010
 5624TIP3   OH238362   3.758   6.330   1.617 -0.1922 -0.6243 -0.3725
 5624TIP3    H138363   3.726   6.275   1.546 -0.2361 -1.6408  0.4005
 5624TIP3    H238364   3.843   6.291   1.640  0.3824  0.4366 -0.6707
 5625TIP3   OH238365   2.427   4.896  15.306 -0.0264  0.1082 -0.1146
 5625TIP3    H138366   2.343   4.874  15.346 -0.4682  0.3867 -0.8623
 5625TIP3    H238367   2.421   4.991  15.290 -0.8414 -0.3033 -2.9444
 5626TIP3   OH238368   5.972   5.288  16.818 -0.2400 -0.3895 -0.0469
 5626TIP3    H138369   5.955   5.326  16.731 -3.3562 -1.8384 -0.1955
 5626TIP3    H238370   5.934   5.201  16.814 -2.4840  0.2347  3.3763
 5627TIP3   OH238371   0.584   3.201  15.593  0.5145 -0.9604  0.0885
 5627TIP3    H138372   0.659   3.157  15.552  1.3659 -2.7166  3.2470
 5627TIP3    H238373   0.608   3.294  15.592  0.4177 -0.8518 -3.2860
 5628TIP3   OH238374   2.434   1.514  14.022 -0.6242 -0.1329 -0.3954
 5628TIP3    H138375   2.476   1.547  13.943  0.8918 -1.5379 -0.2302
 5628TIP3    H238376   2.503   1.465  14.068 -1.7871 -0.3752  1.1902
 5629TIP3   OH238377   4.492   0.623  16.782  0.5001  0.3478  0.1713
 5629TIP3    H138378   4.553   0.662  16.719  0.8790 -1.1227 -0.4007
 5629TIP3    H238379   4.423   0.689  16.792  1.2788  1.2990 -0.5065
 5630TIP3   OH238380   3.839   1.893   4.542  0.0078 -0.1190  0.2431
 5630TIP3    H138381   3.801   1.864   4.624  0.8439 -0.0404  0.6676
 5630TIP3    H238382   3.898   1.822   4.516  1.0571  0.6036  0.6063
 5631TIP3   OH238383   1.352   5.013  14.090  0.2994  0.2387  0.3037
 5631TIP3    H138384   1.401   4.932  14.079 -1.6346 -0.8275 -1.1168
 5631TIP3    H238385   1.378   5.067  14.016  1.4679  0.8889  1.1623
 5632TIP3   OH238386   2.414   6.848  11.001 -0.1393 -0.4309 -0.3221
 5632TIP3    H138387   2.476   6.811  10.938 -2.1122 -1.4934 -1.7346
 5632TIP3    H238388   2.353   6.899  10.947 -0.1637  1.1519  1.1027
 5633TIP3   OH238389   1.463   5.336  11.896 -0.0942 -0.2997  0.1963
 5633TIP3    H138390   1.394   5.319  11.831  1.1990 -0.7968 -1.1060
 5633TIP3    H238391   1.431   5.412  11.945 -1.2699 -0.1144 -0.7886
 5634TIP3   OH238392   5.878   2.758   3.476 -0.0716 -0.2730 -0.0498
 5634TIP3    H138393   5.885   2.822   3.406 -1.2125 -1.5554 -1.3948
 5634TIP3    H238394   5.969   2.738   3.499  0.3378 -0.0454 -1.3873
 5635TIP3   OH238395   6.113   4.334   4.924 -0.3165 -0.0791 -0.0232
 5635TIP3    H138396   6.018   4.322   4.927 -0.3756  0.5812  1.7200
 5635TIP3    H238397   6.146   4.284   4.999  0.5894  0.6501  0.0848
 5636TIP3   OH238398   0.966   6.101  16.234 -0.4454  0.2686 -0.1273
 5636TIP3    H138399   0.896   6.143  16.185  0.6197  1.8557 -0.3856
 5636TIP3    H238400   1.029   6.171  16.250  0.1656 -0.6501  1.8246
 5637TIP3   OH238401   3.348   2.635   1.562  0.1253 -0.2303 -0.2378
 5637TIP3    H138402   3.309   2.699   1.622  0.9528 -0.0988  0.1720
 5637TIP3    H238403   3.423   2.680   1.524  0.9113 -1.0577  0.2977
 5638TIP3   OH238404   6.154   2.170   1.464  0.3229  0.7002 -0.0097
 5638TIP3    H138405   6.102   2.247   1.488  0.1125  0.6658 -0.3548
 5638TIP3    H238406   6.195   2.193   1.381 -1.1871 -0.2291 -1.0671
 5639TIP3   OH238407   1.950   0.811  16.749  0.3501  0.1225 -0.4807
 5639TIP3    H138408   1.928   0.864  16.825 -1.3357  0.0054 -0.8598
 5639TIP3    H238409   1.900   0.849  16.677  0.6529 -0.7676 -1.1804
 5640TIP3   OH238410   3.291   1.932   5.252  0.2225  0.2228 -0.3138
 5640TIP3    H138411   3.291   1.871   5.326 -0.2739  2.0514  1.2760
 5640TIP3    H238412   3.379   1.968   5.250  0.7526 -1.0297 -1.7446
 5641TIP3   OH238413   4.990   3.148   0.603 -0.0168  0.2492 -0.0409
 5641TIP3    H138414   4.913   3.146   0.546  0.3038 -0.4331 -0.4702
 5641TIP3    H238415   5.044   3.219   0.569 -0.9358  1.4641  0.9331
 5642TIP3   OH238416   1.986   3.717   5.211  0.0277 -0.0601  0.1355
 5642TIP3    H138417   2.057   3.668   5.251  0.2561  0.2695  0.1424
 5642TIP3    H238418   1.977   3.679   5.123  0.0877 -0.2260  0.2018
 5643TIP3   OH238419   3.725   3.669  12.519 -0.1078 -0.1030 -0.0319
 5643TIP3    H138420   3.673   3.675  12.438 -0.8218  1.0173  0.4845
 5643TIP3    H238421   3.794   3.733  12.508 -1.0670  1.1232  0.8263
 5644TIP3   OH238422   5.359   4.449  14.001  0.0055 -0.2151 -0.0323
 5644TIP3    H138423   5.324   4.360  14.005 -1.2205  0.2943  1.5624
 5644TIP3    H238424   5.432   4.444  13.939  1.5266 -2.8652  1.8019
 5645TIP3   OH238425   3.061   3.811   2.701 -0.4340 -0.1886 -0.2662
 5645TIP3    H138426   3.001   3.737   2.710 -0.9175  0.1350 -0.7846
 5645TIP3    H238427   3.024   3.880   2.757  1.0538 -0.9466  1.7798
 5646TIP3   OH238428   3.005   6.017  13.520 -0.1422 -0.2830 -0.2395
 5646TIP3    H138429   2.948   5.943  13.501 -0.3432 -0.2254  0.1342
 5646TIP3    H238430   3.015   6.017  13.615 -0.8163  0.6481 -0.1478
 5647TIP3   OH238431   1.829   5.846  16.163 -0.1857  0.0634 -0.5128
 5647TIP3    H138432   1.849   5.923  16.109 -0.5081  0.0434 -0.6601
 5647TIP3    H238433   1.911   5.828  16.209 -0.2424  0.7851 -0.1130
 5648TIP3   OH238434   4.007   2.497   1.297 -0.0441  0.3996  0.6356
 5648TIP3    H138435   4.054   2.573   1.263 -0.1700  0.4490  0.5704
 5648TIP3    H238436   4.068   2.424   1.287 -0.5706  0.1345 -1.0409
 5649TIP3   OH238437   4.725   0.793  10.930  0.4934 -0.2259 -0.0360
 5649TIP3    H138438   4.700   0.701  10.938  0.2184 -0.1704 -0.2384
 5649TIP3    H238439   4.816   0.791  10.901  0.2496 -0.4418 -0.8202
 5650TIP3   OH238440   5.678   5.896   2.405 -0.2941  0.0553  0.3535
 5650TIP3    H138441   5.705   5.806   2.424 -1.5136 -0.4199 -0.0334
 5650TIP3    H238442   5.759   5.946   2.407  0.8820 -1.5200 -2.2186
 5651TIP3   OH238443   4.043   2.719  13.638  0.0972 -1.0664  0.3259
 5651TIP3    H138444   4.099   2.744  13.565 -0.7811 -1.1458 -0.3893
 5651TIP3    H238445   4.104   2.691  13.707  0.9903  0.6077  0.2480
 5652TIP3   OH238446   5.195   5.210   1.212  0.2600  0.7526  0.1103
 5652TIP3    H138447   5.283   5.175   1.199  0.5310  1.2086  0.6517
 5652TIP3    H238448   5.158   5.156   1.282 -0.3298 -0.1861 -0.8947
 5653TIP3   OH238449   0.240   4.339   5.791 -0.3020  0.0860  0.3331
 5653TIP3    H138450   0.175   4.277   5.822  1.6357 -2.4873 -0.3692
 5653TIP3    H238451   0.286   4.367   5.870  0.7962 -1.8936  0.4841
 5654TIP3   OH238452   5.928   2.404   2.808  0.6162  0.1009 -0.0300
 5654TIP3    H138453   5.971   2.359   2.736 -0.8562 -1.5098  0.0359
 5654TIP3    H238454   5.879   2.475   2.767 -0.1472 -0.7566 -0.6244
 5655TIP3   OH238455   4.079   5.048   3.198 -0.1239 -0.3427 -0.4553
 5655TIP3    H138456   4.089   4.988   3.124  1.1341  0.8357 -1.2723
 5655TIP3    H238457   4.157   5.033   3.251 -0.7564 -0.7920  0.3834
 5656TIP3   OH238458   6.760   1.643   3.735 -0.5711  0.0363 -0.0190
 5656TIP3    H138459   6.730   1.577   3.797  0.4774  0.7490  1.3030
 5656TIP3    H238460   6.691   1.710   3.735  0.7474  1.5632  2.8405
 5657TIP3   OH238461   4.127   4.343  12.766 -0.2501 -0.0111 -0.1647
 5657TIP3    H138462   4.144   4.403  12.840 -0.8472  0.7126 -0.6040
 5657TIP3    H238463   4.189   4.271  12.780 -0.1024  0.2876  0.8455
 5658TIP3   OH238464   4.293   2.814   3.732  0.1256 -0.5199  0.1793
 5658TIP3    H138465   4.362   2.751   3.710 -0.6430 -1.8158  1.2857
 5658TIP3    H238466   4.311   2.838   3.823 -2.5157 -3.2930  1.6334
 5659TIP3   OH238467   4.992   0.781   0.983 -0.1771  0.0325 -0.2031
 5659TIP3    H138468   4.947   0.853   0.939 -0.9375  0.0500  0.5978
 5659TIP3    H238469   4.965   0.702   0.935 -1.5733 -0.0306  0.6549
 5660TIP3   OH238470   0.198   0.336   1.779 -0.2103  0.1413 -0.1661
 5660TIP3    H138471   0.175   0.412   1.726 -2.0251 -0.8429 -0.8541
 5660TIP3    H238472   0.213   0.371   1.867  0.1645  1.4287 -0.7214
 5661TIP3   OH238473   2.181   3.557  11.595 -0.0635  0.0506 -0.1924
 5661TIP3    H138474   2.154   3.647  11.576 -1.3674 -0.1585  0.5686
 5661TIP3    H238475   2.123   3.503  11.542 -0.6205 -0.3834  0.8235
 5662TIP3   OH238476   1.829   3.286  11.269 -0.3563 -0.0333 -0.1696
 5662TIP3    H138477   1.817   3.355  11.204 -1.5970 -0.7143 -0.7106
 5662TIP3    H238478   1.831   3.205  11.217  2.4660 -0.3519  0.3193
 5663TIP3   OH238479   2.840   4.797  14.424  0.1119 -0.5208 -0.5254
 5663TIP3    H138480   2.877   4.751  14.499  1.4003  0.7331 -0.3476
 5663TIP3    H238481   2.748   4.811  14.448  0.0726 -1.6334  0.0568
 5664TIP3   OH238482   6.835   2.481  13.227  0.0744 -0.0169 -1.0949
 5664TIP3    H138483   6.745   2.509  13.238  0.2323  0.4226 -0.9129
 5664TIP3    H238484   6.834   2.387  13.244 -0.0444  0.2769  0.6232
 5665TIP3   OH238485   2.173   6.007   3.582  0.4043  0.7974 -0.3912
 5665TIP3    H138486   2.242   6.061   3.543  0.3993  0.8383 -0.3437
 5665TIP3    H238487   2.155   5.940   3.516  0.6247  0.6712 -0.3250
 5666TIP3   OH238488   5.571   3.015  17.008 -0.2773 -0.7435  0.2464
 5666TIP3    H138489   5.611   2.938  16.967 -0.5060 -0.0154 -1.4378
 5666TIP3    H238490   5.500   3.039  16.948 -0.5556  0.4542  1.0293
 5667TIP3   OH238491   2.257   0.521  13.211 -0.3325 -0.3936  0.3636
 5667TIP3    H138492   2.227   0.507  13.121  1.6495 -0.3642 -0.3485
 5667TIP3    H238493   2.338   0.472  13.217  0.3192  0.7792  1.6999
 5668TIP3   OH238494   5.755   5.836  14.068 -0.0369  0.5666 -0.2171
 5668TIP3    H138495   5.809   5.840  13.989  0.2371  1.8167  0.0084
 5668TIP3    H238496   5.817   5.824  14.140 -0.2203  0.2255 -0.1100
 5669TIP3   OH238497   6.752   0.928  16.934  0.2121 -0.1073 -0.1016
 5669TIP3    H138498   6.763   0.880  16.852  2.3315  1.5021 -0.8607
 5669TIP3    H238499   6.752   1.020  16.909  2.1797  0.4938  1.7369
 5670TIP3   OH238500   0.911   5.542   0.132 -0.2492  0.3065  0.1247
 5670TIP3    H138501   0.985   5.565   0.075  1.6816  0.2756  2.4885
 5670TIP3    H238502   0.919   5.448   0.145 -1.2947  0.1407 -0.3185
 5671TIP3   OH238503   1.218   6.372   3.297 -0.2222 -0.0411 -0.3888
 5671TIP3    H138504   1.156   6.307   3.263  0.6518 -0.4627 -1.2250
 5671TIP3    H238505   1.301   6.324   3.305  0.3437  0.8739 -0.6486
 5672TIP3   OH238506   2.337   4.832  16.435  0.0372  0.1062  0.5003
 5672TIP3    H138507   2.372   4.908  16.389  0.2504  0.4790  1.2645
 5672TIP3    H238508   2.247   4.856  16.455 -0.2141 -0.2619 -0.1631
 5673TIP3   OH238509   0.867   1.050  14.078 -0.2572  0.4275 -0.2769
 5673TIP3    H138510   0.948   1.037  14.127 -0.3434 -1.9809 -0.6302
 5673TIP3    H238511   0.842   1.140  14.095  2.6690  1.3591 -0.4315
 5674TIP3   OH238512   6.452   2.651   4.854 -0.4167  0.7276  0.0020
 5674TIP3    H138513   6.372   2.696   4.830 -1.8650 -1.3480  0.6359
 5674TIP3    H238514   6.478   2.605   4.774 -1.7493 -1.1943  0.6040
 5675TIP3   OH238515   3.028   3.563  11.353  0.3489 -0.2145 -0.0364
 5675TIP3    H138516   3.058   3.506  11.282  0.0335  1.5980 -1.7161
 5675TIP3    H238517   3.101   3.622  11.370  0.2626 -0.3514  0.8673
 5676TIP3   OH238518   4.874   5.402   0.155 -0.4770  0.2035 -0.1240
 5676TIP3    H138519   4.815   5.395   0.081  0.3955  0.0944 -0.8293
 5676TIP3    H238520   4.951   5.447   0.121  0.2800 -0.5794  0.4787
 5677TIP3   OH238521   0.788   5.358  15.664 -0.2685 -0.4483 -0.1002
 5677TIP3    H138522   0.861   5.305  15.696 -1.3390 -2.3006 -0.6043
 5677TIP3    H238523   0.762   5.410  15.740  1.4609  0.1721  0.1222
 5678TIP3   OH238524   1.384   2.331   5.685 -0.7474  0.0075 -0.3877
 5678TIP3    H138525   1.293   2.326   5.713 -0.6632 -0.8353 -0.2482
 5678TIP3    H238526   1.381   2.379   5.603 -1.5069 -1.3547 -1.1904
 5679TIP3   OH238527   0.699   5.356  11.339  0.0526  0.0085  0.0405
 5679TIP3    H138528   0.711   5.320  11.427 -2.7533 -0.7688  0.2250
 5679TIP3    H238529   0.622   5.412  11.346  0.0942  0.3830 -1.8179
 5680TIP3   OH238530   5.791   0.040  10.380 -0.0748 -0.7245 -0.0352
 5680TIP3    H138531   5.847   0.079  10.447 -0.1812  0.3314 -0.5314
 5680TIP3    H238532   5.848  -0.020  10.333  1.2855  1.7449 -1.7983
 5681TIP3   OH238533   2.486   2.762   1.212  0.1885  0.4332 -0.4693
 5681TIP3    H138534   2.416   2.827   1.220  0.4582  0.8171 -1.0860
 5681TIP3    H238535   2.462   2.693   1.273  1.3741  2.4169  2.4746
 5682TIP3   OH238536   3.727   3.339  10.848 -0.5748  0.3720  0.0488
 5682TIP3    H138537   3.647   3.339  10.796 -1.7112  3.4233  1.5386
 5682TIP3    H238538   3.697   3.335  10.939  1.0672 -0.2213  0.6005
 5683TIP3   OH238539   3.097   5.112   4.010  0.3071  0.3790 -0.2972
 5683TIP3    H138540   3.062   5.045   3.952 -0.5169  0.7936 -0.2944
 5683TIP3    H238541   3.042   5.106   4.089  0.2070  1.0607 -0.3054
 5684TIP3   OH238542   1.736   2.277   0.709 -0.5339  0.0309 -0.1318
 5684TIP3    H138543   1.725   2.326   0.627 -0.8886 -3.0849 -2.1453
 5684TIP3    H238544   1.758   2.343   0.774  2.7719  2.4528 -3.3076
 5685TIP3   OH238545   2.806   3.844   3.490  0.1273  0.9767  0.4589
 5685TIP3    H138546   2.833   3.864   3.401 -0.5323  1.0841  0.2744
 5685TIP3    H238547   2.723   3.796   3.479 -0.0404  1.1355  1.0135
 5686TIP3   OH238548   2.290   3.977   3.081 -0.4418  0.1933  0.2571
 5686TIP3    H138549   2.206   3.936   3.062 -0.8343  0.3037  1.6476
 5686TIP3    H238550   2.284   4.064   3.041 -0.0984 -0.5911 -1.5869
 5687TIP3   OH238551   5.700   6.195  12.719  0.4506  1.1287  0.3951
 5687TIP3    H138552   5.718   6.224  12.630 -1.2675  1.2133  0.0329
 5687TIP3    H238553   5.732   6.105  12.723 -1.4511  0.3155 -1.0614
 5688TIP3   OH238554   0.397   5.287  11.487  0.4149  0.2045 -0.4069
 5688TIP3    H138555   0.409   5.367  11.436 -2.0311  0.0878 -1.2898
 5688TIP3    H238556   0.346   5.229  11.431 -1.2893 -0.4256  1.6374
 5689TIP3   OH238557   0.341   4.967   5.073  0.1509  0.0718 -0.3575
 5689TIP3    H138558   0.339   4.970   5.169 -2.1518 -2.5903 -0.2070
 5689TIP3    H238559   0.260   5.010   5.046 -1.0579 -2.3172 -0.8355
 5690TIP3   OH238560   1.228   0.533   0.147  0.2564 -0.0874 -0.3489
 5690TIP3    H138561   1.253   0.568   0.061 -0.3939 -0.6019 -0.7504
 5690TIP3    H238562   1.215   0.440   0.133  0.7145 -0.2807  0.4448
 5691TIP3   OH238563   6.321   2.832  11.913  0.0750 -0.2233 -0.3993
 5691TIP3    H138564   6.265   2.843  11.990  1.5373  0.4742  0.6174
 5691TIP3    H238565   6.287   2.755  11.869 -2.7596  1.1439 -0.7983
 5692TIP3   OH238566   1.978   2.145   1.447  0.2067  0.2033  0.5879
 5692TIP3    H138567   2.056   2.096   1.420 -0.8533 -1.2010  0.0248
 5692TIP3    H238568   1.957   2.200   1.372 -0.3845 -0.7331  0.0642
 5693TIP3   OH238569   0.440   2.541   3.084  0.2327  0.4840 -0.5159
 5693TIP3    H138570   0.489   2.461   3.066 -1.1569 -0.4429 -0.3070
 5693TIP3    H238571   0.356   2.528   3.040 -0.9335  0.7663  1.5157
 5694TIP3   OH238572   1.024   2.952   4.466 -0.2363 -0.0257  0.4457
 5694TIP3    H138573   0.941   2.905   4.463 -0.6564  0.6936 -2.2761
 5694TIP3    H238574   1.085   2.898   4.415 -0.3361  1.5061 -1.4695
 5695TIP3   OH238575   6.749   5.664   0.210  0.3475  0.7021  0.3294
 5695TIP3    H138576   6.662   5.643   0.175 -0.3660  1.4081  1.6180
 5695TIP3    H238577   6.804   5.590   0.183 -0.4413  0.6281 -1.1946
 5696TIP3   OH238578   0.452   1.972  14.907 -0.2759  0.5049 -0.1396
 5696TIP3    H138579   0.508   1.932  14.973  1.7551  0.6720 -1.6816
 5696TIP3    H238580   0.421   1.899  14.854 -1.8266  0.3831  0.8375
 5697TIP3   OH238581   6.545   1.349  11.171 -0.2707  0.8379 -0.2272
 5697TIP3    H138582   6.527   1.429  11.220 -3.0644  0.0020  0.2977
 5697TIP3    H238583   6.494   1.358  11.091  1.5021  0.6726 -1.4236
 5698TIP3   OH238584   3.560   3.735   4.895 -0.6723 -0.3717  0.0677
 5698TIP3    H138585   3.614   3.810   4.871 -0.7207 -0.0147  1.0373
 5698TIP3    H238586   3.558   3.681   4.816 -0.6634  0.6546 -0.6591
 5699TIP3   OH238587   1.082   6.639  12.850  0.2166 -0.4288  0.2241
 5699TIP3    H138588   1.025   6.565  12.875 -1.8756  1.4484  1.4053
 5699TIP3    H238589   1.121   6.667  12.933  3.7207 -2.1472 -0.6411
 5700TIP3   OH238590   3.040   6.341  13.682  0.9912  0.0215 -0.1217
 5700TIP3    H138591   2.966   6.396  13.656  0.7596 -0.1694  0.1208
 5700TIP3    H238592   3.064   6.373  13.769 -0.7506 -1.8263  1.1409
 5701TIP3   OH238593   1.216   6.433  12.593 -0.0512 -0.6718 -0.0841
 5701TIP3    H138594   1.170   6.458  12.673  1.7816  1.0516  0.5011
 5701TIP3    H238595   1.194   6.501  12.530  1.7238  0.2613  0.2513
 5702TIP3   OH238596   4.115   4.824   2.222 -0.3842 -0.3159 -0.1699
 5702TIP3    H138597   4.201   4.791   2.196 -1.1973 -2.9646  0.1323
 5702TIP3    H238598   4.130   4.863   2.309  0.7792  0.8582 -0.8639
 5703TIP3   OH238599   3.862   5.472   2.388  0.2608  0.5001  0.3470
 5703TIP3    H138600   3.855   5.567   2.395 -0.3383  0.4327  0.7006
 5703TIP3    H238601   3.930   5.449   2.452 -1.0597  0.4921  1.7946
 5704TIP3   OH238602   6.838   5.440  12.219 -0.4479  1.1226  0.1000
 5704TIP3    H138603   6.892   5.425  12.141 -0.3185  0.7098  0.2637
 5704TIP3    H238604   6.796   5.524  12.203 -2.5040 -0.1064 -1.6509
 5705TIP3   OH238605   3.741   2.667   3.851 -0.1555 -0.5283 -0.6609
 5705TIP3    H138606   3.703   2.645   3.936 -0.9400  1.7776 -0.3562
 5705TIP3    H238607   3.815   2.724   3.872 -0.9291  0.8479 -1.5234
 5706TIP3   OH238608   2.062   3.819  10.571  0.2606 -0.7878 -0.6498
 5706TIP3    H138609   1.979   3.834  10.526 -0.5732 -0.9486  0.7538
 5706TIP3    H238610   2.077   3.901  10.620  1.3157 -0.4826 -1.4609
 5707TIP3   OH238611   6.294   1.667   2.516 -0.1483  0.0801 -0.3996
 5707TIP3    H138612   6.326   1.751   2.481  0.9171  1.0609  2.5974
 5707TIP3    H238613   6.204   1.685   2.543 -0.2415 -0.0239 -0.6429
 5708TIP3   OH238614   6.011   3.502  13.122 -0.0732 -0.6034 -0.2004
 5708TIP3    H138615   6.053   3.422  13.092 -0.0435 -0.4059 -0.7002
 5708TIP3    H238616   6.077   3.570  13.110  0.0630 -0.5787  0.6671
 5709TIP3   OH238617   6.271   5.095  13.937  0.3262 -0.4395 -0.2615
 5709TIP3    H138618   6.315   5.179  13.947 -1.0270  0.5230 -1.8208
 5709TIP3    H238619   6.273   5.078  13.842  1.6968 -2.8449  0.0954
 5710TIP3   OH238620   1.436   5.799  10.558  0.1373  0.3663 -0.2931
 5710TIP3    H138621   1.451   5.710  10.526  0.2662 -0.1181  1.0372
 5710TIP3    H238622   1.361   5.831  10.507  0.2041 -0.4328 -0.9122
 5711TIP3   OH238623   0.076   5.466   5.559  0.0996  0.1043 -0.5767
 5711TIP3    H138624   0.097   5.463   5.652  0.5565 -0.2290 -0.6909
 5711TIP3    H238625  -0.019   5.451   5.556  0.4663 -2.8580 -0.3247
 5712TIP3   OH238626   2.627   0.722   3.092 -0.5000  0.2966  0.5349
 5712TIP3    H138627   2.650   0.706   3.000 -1.4613 -0.7527  0.4610
 5712TIP3    H238628   2.701   0.685   3.141 -2.1976 -3.8556  0.3270
 5713TIP3   OH238629   2.323   5.056  13.462 -0.4687  0.1777  0.1259
 5713TIP3    H138630   2.286   5.137  13.497  0.8194  1.0838 -0.5034
 5713TIP3    H238631   2.383   5.026  13.531  1.3069  1.4184 -0.8039
 5714TIP3   OH238632   2.390   5.056  13.182 -0.8570 -0.4595  0.2903
 5714TIP3    H138633   2.358   5.056  13.272  0.5904  3.1614  0.9956
 5714TIP3    H238634   2.483   5.076  13.190 -0.3793 -1.5088 -1.9844
 5715TIP3   OH238635   2.674   1.686  14.188  0.3253  0.5570  0.4353
 5715TIP3    H138636   2.632   1.633  14.121  1.3970 -1.0325  0.9737
 5715TIP3    H238637   2.707   1.763  14.142 -0.5337  0.3648 -0.5122
 5716TIP3   OH238638   3.744   2.931  13.395 -0.4761 -0.2212 -0.2885
 5716TIP3    H138639   3.790   2.933  13.311 -0.3946 -0.1528 -0.2419
 5716TIP3    H238640   3.812   2.910  13.459 -0.6201 -0.7501 -0.2962
 5717TIP3   OH238641   5.692   5.348  16.718  0.1260  0.1362  0.1647
 5717TIP3    H138642   5.752   5.394  16.659  2.0001 -0.6814  1.3421
 5717TIP3    H238643   5.659   5.275  16.667  0.8377  0.0908 -0.2375
 5718TIP3   OH238644   2.378   2.877  15.211  0.2487 -0.4657 -0.1217
 5718TIP3    H138645   2.295   2.832  15.193  0.5987 -0.9716 -0.4915
 5718TIP3    H238646   2.440   2.837  15.150  0.9775 -0.7457  0.7972
 5719TIP3   OH238647   5.027   5.891  15.153 -0.5594  0.0529 -0.1892
 5719TIP3    H138648   4.937   5.861  15.169 -0.7399  1.3776  1.5188
 5719TIP3    H238649   5.038   5.966  15.211  2.3160 -1.2242  1.1406
 5720TIP3   OH238650   4.503   2.834   0.145 -0.2859  0.5152  0.0202
 5720TIP3    H138651   4.479   2.884   0.223  1.2889  0.1709  0.7497
 5720TIP3    H238652   4.594   2.809   0.158 -0.1279  0.0129 -1.7122
 5721TIP3   OH238653   1.881   6.123  14.624 -0.0234  0.1273 -0.0730
 5721TIP3    H138654   1.931   6.128  14.543  1.6523  0.1849  0.9172
 5721TIP3    H238655   1.879   6.030  14.645 -1.1979  0.0202 -0.5990
 5722TIP3   OH238656   4.235   4.808  12.711 -0.7904  0.6797 -0.0779
 5722TIP3    H138657   4.321   4.827  12.748 -0.7359 -0.7216  0.5767
 5722TIP3    H238658   4.186   4.889  12.723  0.5560  1.6643 -0.9015
 5723TIP3   OH238659   5.038   0.115   1.369  0.1646 -0.5189 -0.0838
 5723TIP3    H138660   5.119   0.078   1.335  0.2834  0.4078 -0.8701
 5723TIP3    H238661   5.015   0.185   1.306 -0.1486  0.5794  1.2042
 5724TIP3   OH238662   5.527   5.020  12.402  0.2850  0.4949 -0.7098
 5724TIP3    H138663   5.551   5.103  12.441 -1.4263  0.6181  0.1684
 5724TIP3    H238664   5.528   4.958  12.475 -0.0984  0.1068 -1.0282
 5725TIP3   OH238665   2.176   1.598   4.420 -0.4478 -0.4466  0.0270
 5725TIP3    H138666   2.214   1.571   4.336 -2.5172  1.3374 -1.5840
 5725TIP3    H238667   2.232   1.670   4.449 -1.3415  0.8413 -1.3264
 5726TIP3   OH238668   4.193   5.820   3.256  0.1939  0.0274 -0.0728
 5726TIP3    H138669   4.285   5.802   3.274  0.6006  0.5590 -1.4532
 5726TIP3    H238670   4.154   5.835   3.342  1.0080 -1.8735  0.6904
 5727TIP3   OH238671   2.853   1.035   1.770 -0.0387 -0.1494 -0.1939
 5727TIP3    H138672   2.763   1.031   1.802  0.0829  1.2840  0.3602
 5727TIP3    H238673   2.887   0.946   1.785 -1.5672 -0.9408 -1.1242
 5728TIP3   OH238674   5.940   3.218  15.673 -0.1839  0.4577 -0.2637
 5728TIP3    H138675   5.947   3.164  15.751 -0.0211  1.4773  0.4338
 5728TIP3    H238676   5.846   3.237  15.666 -0.2562  0.0130 -0.5730
 5729TIP3   OH238677   0.124   2.272   4.370  0.3426  0.1887  0.6508
 5729TIP3    H138678   0.056   2.232   4.423  1.1557 -0.3616  1.3045
 5729TIP3    H238679   0.138   2.211   4.298  1.6485 -0.8246  1.6968
 5730TIP3   OH238680   2.900   4.546  11.056  0.3339 -0.1780 -0.3724
 5730TIP3    H138681   2.932   4.552  11.146  0.4073  0.9061 -0.4529
 5730TIP3    H238682   2.948   4.473  11.018  0.7490 -0.2646  0.2944
 5731TIP3   OH238683   5.102   6.043   3.540  0.1929 -0.5647 -0.3207
 5731TIP3    H138684   5.164   6.115   3.547 -0.6885  0.2435 -0.5578
 5731TIP3    H238685   5.023   6.083   3.503 -1.3105 -1.0293  2.1454
 5732TIP3   OH238686   4.953   2.708   2.620 -0.0854  0.6409  0.6124
 5732TIP3    H138687   4.913   2.629   2.655 -0.3765  0.0795 -0.8972
 5732TIP3    H238688   4.956   2.693   2.525 -0.0107  2.3677  0.3115
 5733TIP3   OH238689   3.570   6.328   5.103 -0.2956 -0.2633 -0.4140
 5733TIP3    H138690   3.665   6.334   5.106 -0.2539 -0.4376 -1.1382
 5733TIP3    H238691   3.551   6.234   5.105 -0.4232 -0.2486 -0.7552
 5734TIP3   OH238692   0.361   2.734   4.342  0.4640 -0.0832 -0.3206
 5734TIP3    H138693   0.304   2.691   4.405  1.0199 -0.9391 -0.3870
 5734TIP3    H238694   0.359   2.826   4.367 -0.6459 -0.1502 -0.1012
 5735TIP3   OH238695   1.576   0.139   5.148 -0.0304 -0.2283  0.3437
 5735TIP3    H138696   1.514   0.165   5.081  0.5280 -1.7365 -0.8019
 5735TIP3    H238697   1.662   0.160   5.112  0.4286 -3.1099 -0.4809
 5736TIP3   OH238698   2.256   5.866   6.099 -0.2863  0.5651 -0.4038
 5736TIP3    H138699   2.303   5.918   6.164  2.8371 -0.6850 -1.4768
 5736TIP3    H238700   2.187   5.822   6.148  0.4064  1.5372  1.5375
 5737TIP3   OH238701   6.656   6.071  15.282 -0.2470 -0.2307  0.0438
 5737TIP3    H138702   6.710   6.094  15.207  1.1323 -1.9318  0.4591
 5737TIP3    H238703   6.634   6.156  15.323 -2.3341  0.8882 -3.0199
 5738TIP3   OH238704   3.515   2.579   5.741  0.0878 -0.1563  0.1372
 5738TIP3    H138705   3.577   2.551   5.674 -0.3802 -0.1848 -0.2861
 5738TIP3    H238706   3.559   2.652   5.786 -0.1649  0.8201 -1.1497
 5739TIP3   OH238707   1.064   2.077  16.467 -0.4790  0.1935 -0.3279
 5739TIP3    H138708   1.021   2.039  16.390 -1.3774  2.4106 -0.9901
 5739TIP3    H238709   1.143   2.118  16.433  0.3381 -0.7507  0.3390
 5740TIP3   OH238710   2.005   3.057  14.486 -0.3573 -0.3012  0.4188
 5740TIP3    H138711   2.056   3.090  14.560  1.9202 -0.4372 -1.0045
 5740TIP3    H238712   2.026   3.116  14.413 -1.6355 -0.8558 -0.4499
 5741TIP3   OH238713   3.544   2.673   2.351 -0.4293  0.0865  0.2359
 5741TIP3    H138714   3.453   2.689   2.378  0.4978  2.5076  2.3785
 5741TIP3    H238715   3.565   2.587   2.389 -1.6725 -0.3029  0.1019
 5742TIP3   OH238716   0.280   5.810  14.369 -0.2925 -0.3890 -0.1921
 5742TIP3    H138717   0.345   5.880  14.381 -0.0743 -0.5973 -0.1709
 5742TIP3    H238718   0.286   5.788  14.276  0.6719 -1.3964  0.0949
 5743TIP3   OH238719   1.324   4.489  15.476 -0.2196  1.0153 -0.0072
 5743TIP3    H138720   1.390   4.428  15.509 -1.8409 -0.9520 -0.1826
 5743TIP3    H238721   1.361   4.521  15.394  0.0724 -0.9567 -0.7017
 5744TIP3   OH238722   5.077   0.787  12.983  0.6786 -0.5054 -0.3328
 5744TIP3    H138723   5.143   0.826  13.041 -0.2228  0.9748 -0.2544
 5744TIP3    H238724   5.077   0.843  12.906 -0.7573 -0.2482 -0.1613
 5745TIP3   OH238725   4.052   0.508   3.234  0.0743  0.0898 -0.4484
 5745TIP3    H138726   4.066   0.417   3.257  1.5606  0.3978  0.0078
 5745TIP3    H238727   4.135   0.551   3.254 -1.1349  1.9029  1.0743
 5746TIP3   OH238728   1.325   4.755   4.100 -0.6511 -0.5175 -0.4575
 5746TIP3    H138729   1.384   4.827   4.121 -0.9335 -0.3961 -0.0593
 5746TIP3    H238730   1.356   4.683   4.154 -0.4659 -0.6503 -0.7383
 5747TIP3   OH238731   0.227   6.080   2.292  0.3029  0.1462  0.1344
 5747TIP3    H138732   0.217   6.107   2.383  0.0728  1.0834 -0.1532
 5747TIP3    H238733   0.138   6.079   2.257  0.5584  3.0667 -0.9363
 5748TIP3   OH238734   3.171   5.467   5.036  0.0461  0.0433  0.0131
 5748TIP3    H138735   3.166   5.563   5.034  1.5651  0.2505  2.4077
 5748TIP3    H238736   3.249   5.446   4.984  1.0770  0.3303  1.3881
 5749TIP3   OH238737   2.681   0.926  14.229 -0.0969  0.2285 -0.0699
 5749TIP3    H138738   2.689   1.010  14.275  0.7410  0.1151 -0.0033
 5749TIP3    H238739   2.621   0.946  14.156 -2.7511  0.0229  1.8923
 5750TIP3   OH238740   4.469   2.669  14.222 -0.4572  0.0064 -0.1068
 5750TIP3    H138741   4.479   2.638  14.312  0.9486  0.8392  0.0571
 5750TIP3    H238742   4.559   2.679  14.191 -0.9250  0.6760 -1.2730
 5751TIP3   OH238743   3.627   0.125   4.315 -0.2536 -0.0063  0.0788
 5751TIP3    H138744   3.575   0.111   4.394  3.1174 -1.4640  2.2629
 5751TIP3    H238745   3.623   0.042   4.269 -0.5358  0.1677 -0.2156
 5752TIP3   OH238746   4.140   5.923  11.857  0.2688  0.3835  0.2659
 5752TIP3    H138747   4.235   5.937  11.857  0.2287  1.2626 -2.7177
 5752TIP3    H238748   4.103   6.009  11.838 -1.1061 -0.1221  0.5161
 5753TIP3   OH238749   4.443   3.490  16.261 -0.0176 -0.8780 -0.1096
 5753TIP3    H138750   4.382   3.483  16.334 -1.4864  3.5358 -0.5856
 5753TIP3    H238751   4.409   3.563  16.208  5.8801  2.6447 -0.0378
 5754TIP3   OH238752   4.915   1.223   1.444 -0.3096  0.4811  0.3097
 5754TIP3    H138753   4.848   1.157   1.423  0.5119  0.0987 -1.2675
 5754TIP3    H238754   4.865   1.304   1.455 -1.0875  0.1236 -0.4119
 5755TIP3   OH238755   5.537   3.270  12.388  0.1398  0.0117 -0.3489
 5755TIP3    H138756   5.442   3.283  12.381  0.1585 -0.4766 -2.1671
 5755TIP3    H238757   5.548   3.180  12.417 -0.0040 -0.7930 -2.5914
 5756TIP3   OH238758   5.073   5.295  11.772 -0.4606  0.3796  0.1324
 5756TIP3    H138759   5.021   5.373  11.752 -1.1518 -0.4825 -1.6541
 5756TIP3    H238760   5.080   5.295  11.867 -1.2023  2.1329  0.2299
 5757TIP3   OH238761   4.873   0.961   0.799  1.1151  0.1220 -0.6203
 5757TIP3    H138762   4.841   0.989   0.713  0.2563  0.8721 -0.0814
 5757TIP3    H238763   4.842   1.030   0.858 -0.7972 -1.7807  0.7311
 5758TIP3   OH238764   5.846   4.535   3.660 -0.1679 -0.0376  0.0286
 5758TIP3    H138765   5.879   4.609   3.608  0.8454 -0.3620  0.1828
 5758TIP3    H238766   5.798   4.577   3.732  1.5186  0.5595  0.8735
 5759TIP3   OH238767   3.386   3.701   1.661 -0.1430  0.0704  0.4395
 5759TIP3    H138768   3.318   3.671   1.600  1.4949 -0.3874 -1.2503
 5759TIP3    H238769   3.409   3.622   1.711  0.2521 -0.1824 -0.1234
 5760TIP3   OH238770   3.175   1.819   2.148  0.0374 -0.0928 -0.1446
 5760TIP3    H138771   3.269   1.806   2.135 -0.2118 -1.8951 -0.4565
 5760TIP3    H238772   3.140   1.827   2.059 -0.1103  0.6798 -0.0247
 5761TIP3   OH238773   3.499   5.423  12.418 -0.2819  0.0538  0.7862
 5761TIP3    H138774   3.498   5.490  12.350 -0.2352  0.1187  0.8510
 5761TIP3    H238775   3.534   5.466  12.495 -0.0268 -0.1084  0.7625
 5762TIP3   OH238776   2.448   1.967  10.685 -0.1889  0.3958  0.2806
 5762TIP3    H138777   2.406   1.970  10.599 -1.2103  2.2212  0.7657
 5762TIP3    H238778   2.402   1.898  10.732  1.3915 -1.6695 -1.0619
 5763TIP3   OH238779   4.774   3.452   3.276  0.2613  0.2751  0.0966
 5763TIP3    H138780   4.837   3.414   3.337 -0.7467 -0.5975  0.6199
 5763TIP3    H238781   4.742   3.531   3.319 -0.8670 -0.6357  0.9976
 5764TIP3   OH238782   2.131   0.836  13.700  0.0456 -0.9530 -0.0433
 5764TIP3    H138783   2.173   0.772  13.757 -0.3176 -1.1217  0.0368
 5764TIP3    H238784   2.204   0.883  13.659  0.3075 -0.6803  0.7193
 5765TIP3   OH238785   6.805   6.546   6.537  0.2876  0.1417 -0.3212
 5765TIP3    H138786   6.825   6.457   6.509 -1.2770 -0.2916 -0.1331
 5765TIP3    H238787   6.875   6.599   6.500  0.6652 -1.0151 -1.3191
 5766TIP3   OH238788   0.311   0.605  12.444 -0.1991 -0.2172 -0.3217
 5766TIP3    H138789   0.391   0.574  12.486 -0.2987  0.3832  0.3460
 5766TIP3    H238790   0.252   0.529  12.446  0.4001 -0.7055 -0.9629
 5767TIP3   OH238791   6.577   6.729   4.785 -0.0845  0.0897 -0.1304
 5767TIP3    H138792   6.501   6.721   4.727  0.4338  0.9087 -0.9552
 5767TIP3    H238793   6.641   6.668   4.749  0.1320  0.3847 -0.2494
 5768TIP3   OH238794   3.041   4.174  11.805  0.0693  0.4985  0.4404
 5768TIP3    H138795   3.085   4.249  11.764 -1.9279  0.6324 -1.6293
 5768TIP3    H238796   2.954   4.207  11.827 -0.5126 -0.9468  0.3903
 5769TIP3   OH238797   6.135   1.157  13.983 -0.9077 -0.0716 -0.1783
 5769TIP3    H138798   6.045   1.171  14.013 -0.2871  1.6602  1.0694
 5769TIP3    H238799   6.183   1.132  14.062  0.2539  1.9460 -0.1674
 5770TIP3   OH238800   4.506   6.381   0.187  0.8346 -0.1917  0.6733
 5770TIP3    H138801   4.568   6.429   0.132  1.2223 -0.8843  0.4874
 5770TIP3    H238802   4.422   6.388   0.140  0.2761  2.3846  1.8781
 5771TIP3   OH238803   2.158   2.490  11.925 -0.4174  0.4299 -0.0538
 5771TIP3    H138804   2.206   2.570  11.943 -1.8964  1.5359 -0.7931
 5771TIP3    H238805   2.067   2.518  11.916 -1.0083 -1.3734 -0.0798
 5772TIP3   OH238806   5.056   0.246   0.537  0.4104  0.6702  0.1309
 5772TIP3    H138807   4.992   0.191   0.581  1.8239 -0.7391  0.5337
 5772TIP3    H238808   5.048   0.331   0.580 -0.7345  0.3420  0.5989
 5773TIP3   OH238809   3.502   1.881  12.328  0.2490  0.1562  0.4470
 5773TIP3    H138810   3.488   1.930  12.246  0.4648 -1.5996 -0.6837
 5773TIP3    H238811   3.526   1.793  12.300  0.6930 -0.4018  2.4258
 5774TIP3   OH238812   0.291   0.801  17.050 -0.4398  0.3486  0.3224
 5774TIP3    H138813   0.364   0.766  17.101 -0.3154  0.1352  0.0002
 5774TIP3    H238814   0.244   0.857  17.111  0.2138  0.7892  0.4331
 5775TIP3   OH238815   5.216   6.334  13.606 -0.1162 -0.7582 -0.4365
 5775TIP3    H138816   5.295   6.329  13.551  0.5827  0.5126  0.4168
 5775TIP3    H238817   5.146   6.352  13.544  0.8722  2.1870 -0.8691
 5776TIP3   OH238818   5.444   2.369  12.901  0.4400  0.2863 -0.3715
 5776TIP3    H138819   5.461   2.426  12.976 -2.8020  0.8296  0.1066
 5776TIP3    H238820   5.422   2.284  12.941 -2.0616  0.7748 -0.5114
 5777TIP3   OH238821   5.712   1.744  15.324  0.3891  0.5205 -0.4262
 5777TIP3    H138822   5.672   1.764  15.409  0.2546 -0.7431 -0.1818
 5777TIP3    H238823   5.780   1.680  15.344  0.5739  0.4606 -1.2292
 5778TIP3   OH238824   4.212   6.502  12.661  0.0538 -0.7449  0.2492
 5778TIP3    H138825   4.255   6.557  12.595 -0.1673 -1.4512 -0.5111
 5778TIP3    H238826   4.243   6.536  12.745 -0.9101  1.2018 -0.1446
 5779TIP3   OH238827   1.442   3.689  11.600  0.0713  0.5431 -0.1639
 5779TIP3    H138828   1.393   3.634  11.539 -0.7509  1.2187 -0.1321
 5779TIP3    H238829   1.405   3.777  11.589 -1.0095  0.4854  2.1829
 5780TIP3   OH238830   1.219   3.629  15.919 -1.0804 -0.1278 -0.6228
 5780TIP3    H138831   1.240   3.714  15.880  0.6033 -0.7016 -1.0466
 5780TIP3    H238832   1.298   3.577  15.907 -1.5195 -1.2467  1.0664
 5781TIP3   OH238833   5.023   0.113  13.213 -0.5133  0.4619 -0.0147
 5781TIP3    H138834   5.045   0.168  13.138 -2.7687  1.8985  0.3043
 5781TIP3    H238835   5.044   0.166  13.290 -1.7875  0.5376  0.3083
 5782TIP3   OH238836   0.877   0.072  12.630  0.1882  0.2832  0.3532
 5782TIP3    H138837   0.865  -0.017  12.598 -1.3413  0.5056  0.2125
 5782TIP3    H238838   0.847   0.070  12.721 -0.5157  0.7864  0.1444
 5783TIP3   OH238839   3.155   2.707   5.828 -0.7771  0.7301 -0.2400
 5783TIP3    H138840   3.208   2.746   5.759  0.8727 -0.7833  0.1095
 5783TIP3    H238841   3.218   2.662   5.884 -2.3589 -0.4005  0.7007
 5784TIP3   OH238842   0.484   2.131   2.344 -0.0719  0.3686 -0.6677
 5784TIP3    H138843   0.574   2.123   2.374  0.3793  0.1720 -1.9995
 5784TIP3    H238844   0.431   2.090   2.413  0.6061  2.5596  1.2761
 5785TIP3   OH238845   5.106   3.646  15.355 -0.3852 -0.5801 -0.0429
 5785TIP3    H138846   5.029   3.702  15.343 -0.1515 -0.3321 -0.4146
 5785TIP3    H238847   5.081   3.562  15.316 -0.7482 -0.7506  0.5468
 5786TIP3   OH238848   1.446   4.519  12.603  0.6513  0.5094  0.0242
 5786TIP3    H138849   1.420   4.448  12.544  1.2023 -0.6198  1.0892
 5786TIP3    H238850   1.370   4.578  12.604  0.3198  0.1245 -1.1599
 5787TIP3   OH238851   6.172   5.535  14.151  0.1344 -0.0067 -0.0792
 5787TIP3    H138852   6.152   5.574  14.066  0.7318  1.2552  0.3456
 5787TIP3    H238853   6.086   5.517  14.190 -0.1431 -0.1490 -0.7415
 5788TIP3   OH238854   2.080   0.192  14.158  0.3355 -0.1805  0.0074
 5788TIP3    H138855   2.148   0.156  14.101  0.6480 -1.5730  1.2069
 5788TIP3    H238856   2.102   0.285  14.166  2.5686 -0.7167  0.9401
 5789TIP3   OH238857   1.126   3.000  17.109 -0.0560 -0.5842  0.9212
 5789TIP3    H138858   1.190   3.041  17.050 -0.9012  0.7692  0.9148
 5789TIP3    H238859   1.171   2.997  17.194  1.1653 -2.5375  0.2978
 5790TIP3   OH238860   2.871   2.789  14.340 -0.3541 -0.0469  0.0927
 5790TIP3    H138861   2.960   2.815  14.314 -1.4366  1.0748 -2.8366
 5790TIP3    H238862   2.849   2.849  14.412  1.5816 -1.0889  1.6696
 5791TIP3   OH238863   4.514   5.925  16.918  0.6383 -0.1611  0.1419
 5791TIP3    H138864   4.578   5.870  16.965 -1.9463 -2.0974  1.7123
 5791TIP3    H238865   4.515   6.008  16.965  0.9615 -0.6884  1.1057
 5792TIP3   OH238866   0.470   3.270  16.946 -0.5653 -0.1061  0.0096
 5792TIP3    H138867   0.530   3.344  16.952  0.4152 -0.9013  0.3854
 5792TIP3    H238868   0.412   3.279  17.021  0.4879 -0.4923  0.8951
 5793TIP3   OH238869   4.616   5.905   4.378  0.1801  0.3371  0.3984
 5793TIP3    H138870   4.672   5.881   4.452 -0.2428  0.7789  0.8692
 5793TIP3    H238871   4.531   5.923   4.417 -0.3252 -0.4217 -0.3306
 5794TIP3   OH238872   0.960   1.645  12.336 -0.0163  0.8719 -0.0469
 5794TIP3    H138873   0.979   1.576  12.272 -0.7356  0.7271 -0.1184
 5794TIP3    H238874   1.040   1.697  12.340  1.2690 -1.0879  1.4677
 5795TIP3   OH238875   0.556   6.266  15.616 -0.5050  0.0496 -0.6010
 5795TIP3    H138876   0.607   6.219  15.549 -0.8979  0.1955 -1.0084
 5795TIP3    H238877   0.480   6.211  15.631 -0.0303 -0.3731  0.3162
 5796TIP3   OH238878   3.794   0.770  14.606 -0.1798  0.2176  0.3495
 5796TIP3    H138879   3.855   0.754  14.534 -0.3628  0.8343  0.0500
 5796TIP3    H238880   3.759   0.858  14.589 -0.6578  0.1362  0.8761
 5797TIP3   OH238881   5.920   2.679   5.705 -0.5954 -0.3646  0.3671
 5797TIP3    H138882   5.871   2.756   5.677  0.9573  0.6362  0.2578
 5797TIP3    H238883   6.009   2.694   5.673  0.3338 -1.0216  2.4604
 5798TIP3   OH238884   1.374   2.121   3.539  0.3014 -0.0822  0.2988
 5798TIP3    H138885   1.441   2.053   3.537 -0.7014 -1.2020  2.2719
 5798TIP3    H238886   1.411   2.191   3.593 -0.1883 -0.8156  1.6126
 5799TIP3   OH238887   5.664   2.851   2.594  0.1926 -0.1861 -0.3607
 5799TIP3    H138888   5.571   2.838   2.613  0.4946 -1.0859  0.6264
 5799TIP3    H238889   5.673   2.946   2.582 -0.2591  0.4547  3.1785
 5800TIP3   OH238890   5.734   3.453   4.757  0.1205  0.1367 -0.5009
 5800TIP3    H138891   5.686   3.485   4.833  2.6521 -1.3749  1.9392
 5800TIP3    H238892   5.667   3.425   4.696 -2.0672  0.8108  1.4438
 5801TIP3   OH238893   1.505   0.761   5.901 -0.3392 -0.3819  0.4945
 5801TIP3    H138894   1.514   0.801   5.814  0.8128 -0.1713  0.6992
 5801TIP3    H238895   1.517   0.833   5.962  1.9165 -1.0098  0.8744
 5802TIP3   OH238896   0.250   5.985   4.310  0.6148 -0.1333 -0.0014
 5802TIP3    H138897   0.304   6.042   4.365  1.4694 -2.2827  1.4769
 5802TIP3    H238898   0.222   5.915   4.368 -2.1432 -0.1907 -1.2428
 5803TIP3   OH238899   4.084   1.065  14.469  0.2280 -0.4106 -0.0314
 5803TIP3    H138900   4.157   1.113  14.508  0.1353 -1.8302  1.9786
 5803TIP3    H238901   4.021   1.055  14.540 -1.2331 -0.6143 -1.3145
 5804TIP3   OH238902   1.191   5.666  12.644 -0.1978 -0.9794 -0.4786
 5804TIP3    H138903   1.118   5.645  12.702  0.3768 -1.3632  0.1044
 5804TIP3    H238904   1.156   5.647  12.556 -0.3482 -2.5600 -0.1227
 5805TIP3   OH238905   0.700   1.656   5.583 -0.1025 -0.0314 -0.0637
 5805TIP3    H138906   0.740   1.597   5.519 -0.2124 -2.4112  1.9370
 5805TIP3    H238907   0.774   1.706   5.618  0.3540 -0.6533 -0.1217
 5806TIP3   OH238908   2.030   2.873   0.528  0.0551  0.3774  0.0589
 5806TIP3    H138909   2.069   2.834   0.606 -0.8494 -1.5729 -0.3924
 5806TIP3    H238910   2.104   2.897   0.473  0.6607  0.2476  0.8046
 5807TIP3   OH238911   6.586   1.209   1.862  1.1325 -0.2932 -0.0478
 5807TIP3    H138912   6.622   1.122   1.876  0.5693 -0.6672 -0.8248
 5807TIP3    H238913   6.620   1.235   1.776  1.5822  0.4036  0.3340
 5808TIP3   OH238914   5.900   0.341   0.869  0.2821  0.1217 -0.8986
 5808TIP3    H138915   5.855   0.283   0.807 -2.2495 -0.7168  1.5057
 5808TIP3    H238916   5.852   0.424   0.864  1.0664  0.5813 -1.1127
 5809TIP3   OH238917   1.861   1.160  11.191  1.1202  0.1837 -0.2651
 5809TIP3    H138918   1.794   1.153  11.123 -0.2945  0.2795  1.0531
 5809TIP3    H238919   1.848   1.081  11.245  0.6904  1.2028  1.1724
 5810TIP3   OH238920   0.606   1.614  14.356  0.0314 -0.1831 -0.1711
 5810TIP3    H138921   0.648   1.662  14.427  2.0347 -1.0699 -0.6820
 5810TIP3    H238922   0.635   1.524  14.368 -1.2198 -0.7192 -0.9744
 5811TIP3   OH238923   1.373   5.394  12.363  0.2551  0.8549  0.2601
 5811TIP3    H138924   1.431   5.433  12.297  0.2730  1.1796  0.4635
 5811TIP3    H238925   1.338   5.316  12.321  1.7085  0.0187  0.5127
 5812TIP3   OH238926   1.145   2.283  11.246  0.1844 -0.3353  0.2108
 5812TIP3    H138927   1.129   2.325  11.162 -1.1030  0.8780  1.0190
 5812TIP3    H238928   1.134   2.189  11.229  0.7708 -0.1792 -1.1240
 5813TIP3   OH238929   4.527   1.617  11.637  0.3576 -0.4871 -0.3083
 5813TIP3    H138930   4.604   1.656  11.595  0.1526 -0.2550 -0.4666
 5813TIP3    H238931   4.550   1.612  11.730 -0.5763  2.3330  0.1521
 5814TIP3   OH238932   3.585   5.476   0.294  0.0740  0.4359  0.2215
 5814TIP3    H138933   3.621   5.441   0.213 -0.0021 -1.4055  0.9251
 5814TIP3    H238934   3.497   5.505   0.270  1.3896  3.6868 -1.1969
 5815TIP3   OH238935   6.787   0.447   2.479 -0.3089 -0.1304  0.0998
 5815TIP3    H138936   6.706   0.476   2.521 -0.9596 -1.7588  0.0621
 5815TIP3    H238937   6.851   0.442   2.550 -0.3110  0.8572  0.1863
 5816TIP3   OH238938   4.821   4.731   6.133 -0.2362 -0.1707 -0.4753
 5816TIP3    H138939   4.892   4.764   6.189  0.8940 -0.2758 -1.7739
 5816TIP3    H238940   4.773   4.670   6.188  1.8294 -1.5283 -0.0844
 5817TIP3   OH238941   1.697   3.189  14.055  0.0285  0.7940  0.1494
 5817TIP3    H138942   1.673   3.098  14.038 -0.3741  0.9234  0.0198
 5817TIP3    H238943   1.789   3.184  14.083 -0.2384  0.2708  0.9757
 5818TIP3   OH238944   3.692   0.976   5.268 -0.2553  0.4997  0.3442
 5818TIP3    H138945   3.754   0.948   5.335 -0.2825  0.4194  0.3366
 5818TIP3    H238946   3.616   0.919   5.281  0.6491 -1.1730 -1.2769
 5819TIP3   OH238947   0.034   4.784   5.108 -0.1891  0.1684 -0.1139
 5819TIP3    H138948  -0.055   4.765   5.140 -0.8757  0.9102 -1.5079
 5819TIP3    H238949   0.046   4.877   5.126 -0.3150  0.4311 -1.3578
 5820TIP3   OH238950   4.733   0.106   4.005 -0.2953 -0.3223 -0.5645
 5820TIP3    H138951   4.706   0.050   4.078  1.5104  0.7632  1.0275
 5820TIP3    H238952   4.682   0.187   4.017  1.9873  0.9629  1.2823
 5821TIP3   OH238953   1.343   3.893   1.201 -0.5544  0.6426  0.4652
 5821TIP3    H138954   1.256   3.919   1.229 -0.9435 -0.6443  0.5000
 5821TIP3    H238955   1.352   3.802   1.228 -0.0574  0.0546 -1.4522
 5822TIP3   OH238956   4.220   6.535  14.060 -0.0370  0.1363  0.3171
 5822TIP3    H138957   4.180   6.490  14.135 -1.0662  1.7552  0.7780
 5822TIP3    H238958   4.169   6.507  13.985 -0.8639  0.7224  0.6422
 5823TIP3   OH238959   1.705   4.320   5.750 -0.3039  0.0630 -0.0196
 5823TIP3    H138960   1.638   4.293   5.688  0.2192 -1.0557 -0.1237
 5823TIP3    H238961   1.779   4.261   5.733  0.6919  1.2186  0.1309
 5824TIP3   OH238962   0.904   5.694   5.327 -0.5950 -0.6196  0.4115
 5824TIP3    H138963   0.841   5.671   5.396 -0.4781  1.5407  1.3177
 5824TIP3    H238964   0.988   5.667   5.362 -0.7721 -1.6351  0.0860
 5825TIP3   OH238965   5.930   0.084   3.666 -1.0138 -0.3649  0.0166
 5825TIP3    H138966   5.918   0.050   3.755 -0.7441 -1.5698 -0.3984
 5825TIP3    H238967   5.874   0.162   3.663  0.0204  0.5073  1.6711
 5826TIP3   OH238968   4.438   3.240  14.130  0.3420 -0.6730  0.5798
 5826TIP3    H138969   4.387   3.293  14.069  0.2925 -0.7826  0.5260
 5826TIP3    H238970   4.444   3.154  14.088 -1.0250 -1.2196  1.4468
 5827TIP3   OH238971   1.522   6.727  10.911 -0.4249 -0.3509  0.1012
 5827TIP3    H138972   1.428   6.713  10.898 -0.2067 -0.1978 -1.9390
 5827TIP3    H238973   1.544   6.800  10.853  0.9694 -0.3794  0.5513
 5828TIP3   OH238974   0.323   4.501  13.097  0.5630 -0.2211 -0.3929
 5828TIP3    H138975   0.343   4.512  13.004 -0.2911  0.5051 -0.5042
 5828TIP3    H238976   0.392   4.443  13.130  1.8103  0.8042 -1.1073
 5829TIP3   OH238977   3.876   5.596   0.166 -0.0528 -0.4583  0.2642
 5829TIP3    H138978   3.914   5.510   0.185  0.3415 -0.3580 -0.0540
 5829TIP3    H238979   3.929   5.657   0.218 -0.6571 -0.4600  0.8869
 5830TIP3   OH238980   5.789   4.967  13.931 -0.0669 -0.2471  0.8672
 5830TIP3    H138981   5.830   4.943  14.014 -0.5212  1.3473  1.5938
 5830TIP3    H238982   5.856   5.017  13.885  0.4181 -1.6938 -0.0557
 5831TIP3   OH238983   6.394   2.647  16.764  0.5206 -0.0392  0.5334
 5831TIP3    H138984   6.396   2.601  16.680 -2.5942  0.5420  0.0423
 5831TIP3    H238985   6.456   2.719  16.754  2.1788 -1.5043 -0.2489
 5832TIP3   OH238986   4.508   3.252   3.967 -0.6344  0.1103  0.2967
 5832TIP3    H138987   4.543   3.211   4.047  0.4330  2.4563  1.1154
 5832TIP3    H238988   4.450   3.321   3.999  0.4759  1.6649 -0.9100
 5833TIP3   OH238989   2.840   1.418   1.891 -0.1236  0.0210  0.4672
 5833TIP3    H138990   2.920   1.426   1.839 -0.5865  0.8454 -0.1533
 5833TIP3    H238991   2.771   1.449   1.832 -0.5176  2.1856  1.9812
 5834TIP3   OH238992   2.543   1.488   6.058 -0.0413 -0.2558 -0.2808
 5834TIP3    H138993   2.556   1.395   6.077 -0.1572 -0.1614  0.2567
 5834TIP3    H238994   2.568   1.533   6.138  4.1927  0.5513 -1.7777
 5835TIP3   OH238995   1.967   5.211  12.565  0.3445 -0.3660  0.1486
 5835TIP3    H138996   1.945   5.156  12.490  1.9775 -0.5956 -0.1961
 5835TIP3    H238997   1.931   5.164  12.641  1.7829 -2.0021 -0.1258
 5836TIP3   OH238998   4.518   2.254   3.677  0.0953 -0.0857  0.0285
 5836TIP3    H138999   4.448   2.234   3.739  0.1234  1.4981  0.6035
 5836TIP3    H239000   4.474   2.262   3.592 -0.1425 -0.8416  0.0718
 5837TIP3   OH239001   5.403   5.776  14.380  0.3837  0.3596  0.1849
 5837TIP3    H139002   5.422   5.717  14.307  0.8577 -0.3748  0.8921
 5837TIP3    H239003   5.471   5.843  14.376 -1.0646  1.8678 -1.6085
 5838TIP3   OH239004   1.643   2.754  12.642 -0.2162 -0.3654  0.0078
 5838TIP3    H139005   1.580   2.719  12.705 -0.4047 -0.5864 -0.2970
 5838TIP3    H239006   1.710   2.796  12.695 -1.1453  0.7772  0.3066
 5839TIP3   OH239007   4.945   5.658   3.786  0.5097 -0.3071  0.2709
 5839TIP3    H139008   4.909   5.601   3.718 -1.8614  0.1678  1.0217
 5839TIP3    H239009   4.875   5.720   3.804  1.1892 -0.2242  2.9334
 5840TIP3   OH239010   3.697   3.371  15.354  0.3041  0.0937 -0.3834
 5840TIP3    H139011   3.717   3.424  15.431  1.7433  0.1827 -0.7929
 5840TIP3    H239012   3.747   3.291  15.367  0.3600  0.0097 -1.1113
 5841TIP3   OH239013   2.834   3.639   0.503  0.4588 -0.2351  0.7233
 5841TIP3    H139014   2.912   3.692   0.492  1.0597 -0.5768  2.9566
 5841TIP3    H239015   2.866   3.550   0.516 -0.3289 -0.5038  0.9243
 5842TIP3   OH239016   1.631   1.794   1.805  0.4916  0.7266  0.6435
 5842TIP3    H139017   1.605   1.764   1.892 -0.7517  2.2758  0.8574
 5842TIP3    H239018   1.550   1.792   1.754  1.4727 -1.6356 -1.0013
 5843TIP3   OH239019   1.730   4.929  11.786  0.4517 -0.2270  0.2963
 5843TIP3    H139020   1.689   4.917  11.871 -2.5895 -1.1698 -1.1751
 5843TIP3    H239021   1.688   5.008  11.750  0.0816 -1.0535 -1.1615
 5844TIP3   OH239022   3.843   0.973  11.293  0.4821 -0.2123 -0.2114
 5844TIP3    H139023   3.817   1.021  11.372  0.2932 -0.3234 -0.2057
 5844TIP3    H239024   3.854   1.042  11.227 -0.7663 -0.2289 -0.4685
 5845TIP3   OH239025   5.174   5.364   2.705  0.5240  0.1812  0.5910
 5845TIP3    H139026   5.210   5.354   2.793 -0.3429 -1.0712  0.8316
 5845TIP3    H239027   5.108   5.295   2.698 -1.4344  1.9727 -0.0172
 5846TIP3   OH239028   4.307   1.069  11.831  0.5153 -0.2294  0.0826
 5846TIP3    H139029   4.286   0.982  11.798  0.4219  0.1869 -0.9896
 5846TIP3    H239030   4.402   1.068  11.843  0.5264 -0.4437 -0.0220
 5847TIP3   OH239031   4.101   1.757   4.765 -0.1880  0.2097 -0.0036
 5847TIP3    H139032   4.178   1.799   4.725  0.0474 -0.7165 -0.5586
 5847TIP3    H239033   4.092   1.800   4.850  1.3571 -0.1143  0.3637
 5848TIP3   OH239034   3.094   3.509   1.753 -0.7784 -0.4424 -0.0925
 5848TIP3    H139035   3.190   3.503   1.752 -0.8071 -2.6174 -2.4977
 5848TIP3    H239036   3.076   3.597   1.783  2.0829  0.8679 -1.7505
 5849TIP3   OH239037   0.978   2.651  12.224 -0.2657  0.2408  0.1871
 5849TIP3    H139038   1.074   2.649  12.222 -0.2632  0.2843  0.2896
 5849TIP3    H239039   0.953   2.573  12.273 -0.3771 -1.7320 -2.7092
 5850TIP3   OH239040   3.838   3.722   2.817 -0.0713  0.1435  0.0910
 5850TIP3    H139041   3.770   3.779   2.779 -0.4040 -0.2005  0.1613
 5850TIP3    H239042   3.805   3.701   2.904  0.6937  0.9317  0.5872
 5851TIP3   OH239043   1.663   6.434  11.293 -0.3930 -0.1200  0.5537
 5851TIP3    H139044   1.715   6.408  11.218 -0.8228 -1.8223  0.8080
 5851TIP3    H239045   1.593   6.489  11.257  0.8536  1.2233  0.0739
 5852TIP3   OH239046   0.932   0.505   3.102  0.3235  0.2435 -0.5463
 5852TIP3    H139047   0.952   0.427   3.051 -0.9044 -0.0601 -0.6097
 5852TIP3    H239048   0.906   0.471   3.188 -2.7567  0.3039 -1.3146
 5853TIP3   OH239049   1.531   0.928   3.923  0.1591  0.2022 -0.1103
 5853TIP3    H139050   1.523   0.980   4.003  0.7236  0.6050 -0.3099
 5853TIP3    H239051   1.603   0.868   3.941 -0.4430 -0.4882  0.0937
 5854TIP3   OH239052   3.641   0.500  14.025  0.4368  0.4189 -0.1494
 5854TIP3    H139053   3.710   0.544  14.076  0.7970 -0.0415 -0.2374
 5854TIP3    H239054   3.560   0.543  14.053  0.8279  1.4408 -0.5479
 5855TIP3   OH239055   3.422   3.560   4.383 -0.1925 -0.2927  0.0083
 5855TIP3    H139056   3.338   3.600   4.361  0.4792  1.6382  0.7410
 5855TIP3    H239057   3.457   3.530   4.299 -1.3897 -0.7116 -0.3643
 5856TIP3   OH239058   0.372   6.797  14.643 -0.4198 -0.0321  0.3474
 5856TIP3    H139059   0.330   6.793  14.728  0.7641  1.1265  1.0269
 5856TIP3    H239060   0.462   6.770  14.659 -0.3666 -0.5254 -0.6873
 5857TIP3   OH239061   4.360   3.408  11.193 -0.0392  0.1700  0.4330
 5857TIP3    H139062   4.394   3.402  11.104  1.7779 -0.6532  1.1565
 5857TIP3    H239063   4.322   3.496  11.198 -1.5166 -0.2920 -1.5781
 5858TIP3   OH239064   1.839   0.619  11.414  0.3870 -0.1814  0.0895
 5858TIP3    H139065   1.810   0.619  11.323 -1.1143  0.2962  0.5310
 5858TIP3    H239066   1.833   0.528  11.441  0.3284 -0.2467 -0.1396
 5859TIP3   OH239067   3.862   3.089   3.946 -0.2612  0.1632 -0.3989
 5859TIP3    H139068   3.888   3.166   3.995  1.1725  0.3725 -1.4476
 5859TIP3    H239069   3.772   3.107   3.919 -0.1822  1.1463 -0.0381
 5860TIP3   OH239070   2.422   2.526  11.452  0.1114  0.4561 -0.5290
 5860TIP3    H139071   2.418   2.481  11.368  0.6938 -0.5337 -0.0350
 5860TIP3    H239072   2.333   2.517  11.488 -0.1547  0.9301 -1.0513
 5861TIP3   OH239073   5.408   2.228  11.687  0.3510  0.0426 -0.5396
 5861TIP3    H139074   5.337   2.201  11.628  0.8572 -2.0315 -0.2834
 5861TIP3    H239075   5.363   2.275  11.757 -0.5762  0.2066 -1.2158
 5862TIP3   OH239076   2.169   0.414   4.337  0.6433 -0.1683 -0.0216
 5862TIP3    H139077   2.199   0.487   4.390 -0.4223  0.2987 -0.0305
 5862TIP3    H239078   2.226   0.414   4.261  0.5448  0.7700 -0.1053
 5863TIP3   OH239079   0.670   2.514   0.182 -0.3283 -0.5840 -0.0414
 5863TIP3    H139080   0.605   2.463   0.230  0.1790 -0.6320  0.6154
 5863TIP3    H239081   0.745   2.456   0.175  0.0724 -0.1172  0.2656
 5864TIP3   OH239082   2.639   3.214   0.560 -0.2369  0.1112  0.2058
 5864TIP3    H139083   2.610   3.126   0.535  1.2722 -0.2314 -0.5040
 5864TIP3    H239084   2.580   3.272   0.512  0.4921 -0.5497 -1.6212
 5865TIP3   OH239085   0.985   0.040   4.388 -0.0283 -0.6397  0.1197
 5865TIP3    H139086   0.904  -0.008   4.406  0.2769 -2.1415 -2.0469
 5865TIP3    H239087   1.054  -0.026   4.397  0.7463  0.1390  0.0075
 5866TIP3   OH239088   4.220   2.185   3.683  1.1451 -0.3646 -0.1412
 5866TIP3    H139089   4.128   2.205   3.698  1.3098 -0.3385  0.8935
 5866TIP3    H239090   4.224   2.154   3.592  0.4782  1.7841 -0.9637
 5867TIP3   OH239091   4.041   0.996   6.503 -0.2778  0.2317  0.0504
 5867TIP3    H139092   3.965   0.948   6.536 -0.1752 -1.2887 -1.7217
 5867TIP3    H239093   4.009   1.085   6.490 -1.6943 -0.3127 -0.3777
 5868TIP3   OH239094   2.697   0.867  10.964  0.1730 -0.3989  0.4054
 5868TIP3    H139095   2.641   0.793  10.938  0.4514 -0.4228 -0.1433
 5868TIP3    H239096   2.759   0.877  10.892  2.0359 -1.5001  1.7895
 5869TIP3   OH239097   6.024   2.430  14.525 -0.2371  0.0235 -1.0470
 5869TIP3    H139098   6.064   2.415  14.611  0.6754 -1.3021 -1.6708
 5869TIP3    H239099   6.001   2.342  14.494  1.6269  0.1758 -3.1528
 5870TIP3   OH239100   2.499   2.400  14.892  0.7598 -0.2080 -0.1342
 5870TIP3    H139101   2.498   2.441  14.978  4.3243 -0.8786  0.4013
 5870TIP3    H239102   2.585   2.422  14.857  1.2671 -3.8199 -1.5048
 5871TIP3   OH239103   0.192   0.306   0.212  0.0054 -0.4564  0.2954
 5871TIP3    H139104   0.103   0.337   0.194  0.5363  0.9517 -0.0509
 5871TIP3    H239105   0.190   0.213   0.188 -0.8288  0.0330 -1.7984
 5872TIP3   OH239106   6.396   2.365   4.379  0.3097 -0.5762  0.0506
 5872TIP3    H139107   6.320   2.325   4.422  0.2647 -1.7499 -1.0689
 5872TIP3    H239108   6.451   2.396   4.451 -1.3777  0.6276  0.8965
 5873TIP3   OH239109   3.577   5.874  15.665 -0.2542 -0.4558  0.0483
 5873TIP3    H139110   3.671   5.861  15.654 -0.3671  0.4021 -2.9789
 5873TIP3    H239111   3.544   5.789  15.693  1.2777 -1.0566  0.1377
 5874TIP3   OH239112   2.322   1.045  14.376 -0.6255  0.2186  0.3358
 5874TIP3    H139113   2.370   0.964  14.391  0.1050  0.6193  0.2149
 5874TIP3    H239114   2.232   1.025  14.403 -0.2432 -0.3323  1.2313
 5875TIP3   OH239115   0.245   5.449  14.100  0.0407 -0.4213  0.2127
 5875TIP3    H139116   0.335   5.454  14.067  1.4092 -0.8414  3.4785
 5875TIP3    H239117   0.221   5.357  14.090 -1.2120  0.0950 -3.0720
 5876TIP3   OH239118   4.856   1.163   1.008 -0.8374 -0.1275 -0.2343
 5876TIP3    H139119   4.908   1.138   1.085 -2.4629  0.1930  1.0356
 5876TIP3    H239120   4.769   1.179   1.043 -1.9164 -1.0287 -2.3445
 5877TIP3   OH239121   0.539   2.762   4.921 -0.1879 -0.1107 -0.0166
 5877TIP3    H139122   0.490   2.844   4.921 -0.6992 -0.3896  1.0160
 5877TIP3    H239123   0.537   2.734   5.013  0.5192 -0.9593 -0.2474
 5878TIP3   OH239124   5.607   0.827   0.914 -0.0817 -0.6449 -0.3821
 5878TIP3    H139125   5.557   0.889   0.861 -0.0935 -0.1051  0.2456
 5878TIP3    H239126   5.601   0.861   1.003  1.2664 -0.6507 -0.2589
 5879TIP3   OH239127   1.018   4.211  11.568  0.0270  1.0513  0.0346
 5879TIP3    H139128   0.939   4.263  11.583  0.5158  2.3148 -1.4445
 5879TIP3    H239129   0.995   4.123  11.596 -1.2543  1.7935  1.4593
 5880TIP3   OH239130   5.844   6.849  12.930  0.0591  0.1446 -0.1052
 5880TIP3    H139131   5.756   6.854  12.967  0.8469  1.3986  1.7804
 5880TIP3    H239132   5.855   6.932  12.883  0.2622  0.0216 -0.2769
 5881TIP3   OH239133   0.626   5.164   2.508  0.5554 -0.6149 -0.2364
 5881TIP3    H139134   0.664   5.162   2.421 -2.1251  2.2113 -1.6434
 5881TIP3    H239135   0.633   5.255   2.536 -1.5781 -0.7859  1.0784
 5882TIP3   OH239136   6.813   2.872   5.908  0.2399 -0.4656 -0.1012
 5882TIP3    H139137   6.781   2.951   5.864 -0.7808 -1.7898 -1.8387
 5882TIP3    H239138   6.761   2.867   5.988  2.3638  2.1631  1.6208
 5883TIP3   OH239139   4.396   6.233   5.429 -0.8753  0.0558 -0.0583
 5883TIP3    H139140   4.317   6.183   5.449 -2.0543  1.9873  0.3957
 5883TIP3    H239141   4.468   6.169   5.436 -2.2848 -1.5449  0.4253
 5884TIP3   OH239142   0.865   6.543   3.384  0.1995 -0.0400 -0.3416
 5884TIP3    H139143   0.825   6.488   3.451  0.4301  0.1645 -0.0349
 5884TIP3    H239144   0.870   6.630   3.424 -2.3316  0.7924 -1.6484
 5885TIP3   OH239145   3.196   0.435   2.318 -0.2088 -0.1818  0.5574
 5885TIP3    H139146   3.149   0.356   2.346  0.0286  0.0126  1.5146
 5885TIP3    H239147   3.288   0.413   2.329 -0.0741 -0.3147 -0.6691
 5886TIP3   OH239148   5.566   0.083   5.077 -0.3638  0.1769 -0.4484
 5886TIP3    H139149   5.569   0.154   5.141  0.2555  0.6162 -0.9545
 5886TIP3    H239150   5.543   0.006   5.128 -1.1638  0.7606  0.0884
 5887TIP3   OH239151   2.096   0.005  10.856 -0.5183  0.6776  0.3271
 5887TIP3    H139152   2.098  -0.038  10.770 -0.1029 -1.5738  1.4109
 5887TIP3    H239153   2.044   0.084  10.841 -1.3505 -0.1877 -1.7628
 5888TIP3   OH239154   0.236   0.541   3.898  0.2993  0.6999  0.0981
 5888TIP3    H139155   0.312   0.594   3.922  0.3555  0.6325  0.0679
 5888TIP3    H239156   0.161   0.597   3.920  0.3637  0.9676 -0.3465
 5889TIP3   OH239157   5.993   4.280  13.274 -0.1084  0.0535 -0.1411
 5889TIP3    H139158   5.959   4.191  13.271  0.3728 -0.1280 -0.3747
 5889TIP3    H239159   5.938   4.326  13.337 -0.0338 -0.5423  0.3559
 5890TIP3   OH239160   4.311   1.663  16.614 -0.5282 -0.3548 -0.2214
 5890TIP3    H139161   4.367   1.588  16.630 -0.3641 -0.2568 -0.3321
 5890TIP3    H239162   4.222   1.632  16.634 -0.4830 -0.6288 -0.4439
 5891TIP3   OH239163   4.547   4.927  16.865 -0.7151  0.4216  0.6470
 5891TIP3    H139164   4.478   4.987  16.837 -1.0215 -0.5298 -0.7719
 5891TIP3    H239165   4.511   4.840  16.850  0.3983 -0.1097  0.8974
 5892TIP3   OH239166   4.934   3.221  11.693 -0.0285  0.6317 -0.0905
 5892TIP3    H139167   4.865   3.234  11.758 -0.6567 -3.3016  0.2248
 5892TIP3    H239168   5.014   3.247  11.739 -0.4941 -1.7081  2.2944
 5893TIP3   OH239169   4.769   5.757  11.939  1.0611 -0.8512 -0.2989
 5893TIP3    H139170   4.727   5.797  12.015  2.0341  0.2281 -0.3188
 5893TIP3    H239171   4.856   5.731  11.970  1.1416 -1.2208 -0.8121
 5894TIP3   OH239172   1.035   3.753   4.284  0.0306 -0.2497 -0.3330
 5894TIP3    H139173   1.049   3.842   4.250 -0.8930  0.2042  0.4416
 5894TIP3    H239174   0.975   3.713   4.221 -0.8543  0.2426  0.1755
 5895TIP3   OH239175   4.788   1.800   3.162 -0.0994  0.0964 -0.4140
 5895TIP3    H139176   4.800   1.894   3.173 -0.1682 -0.0692  1.3412
 5895TIP3    H239177   4.873   1.762   3.187 -0.9480 -0.4475  1.8787
 5896TIP3   OH239178   0.480   5.100  16.012 -0.0572 -0.2349  0.0513
 5896TIP3    H139179   0.556   5.151  15.984 -1.0721  0.7537 -0.9773
 5896TIP3    H239180   0.511   5.009  16.013  0.8797  0.0385 -1.3175
 5897TIP3   OH239181   3.795   2.423   5.157 -0.1612  0.5296 -0.0257
 5897TIP3    H139182   3.734   2.356   5.188 -2.1109  1.8511 -0.8488
 5897TIP3    H239183   3.848   2.379   5.091 -1.8210 -0.0796 -1.0007
 5898TIP3   OH239184   5.284   0.558  13.941  0.3989  0.2314 -0.0597
 5898TIP3    H139185   5.250   0.622  13.879 -3.4670 -0.4593  1.0599
 5898TIP3    H239186   5.288   0.604  14.025  0.9293 -0.0921  0.1004
 5899TIP3   OH239187   1.569   3.151   5.220 -0.3187  0.2021  0.3414
 5899TIP3    H139188   1.482   3.114   5.204  0.3819 -1.7625  0.7744
 5899TIP3    H239189   1.562   3.193   5.305 -0.9679  0.4760  0.1597
 5900TIP3   OH239190   2.367   0.195   4.725 -0.4040 -0.3321  0.1441
 5900TIP3    H139191   2.399   0.127   4.665  1.9309  0.8616 -0.0835
 5900TIP3    H239192   2.408   0.175   4.809 -0.1114  0.4884  0.2040
 5901TIP3   OH239193   0.252   2.080  16.441  0.4256  0.0735 -0.3438
 5901TIP3    H139194   0.326   2.139  16.427 -0.1891  1.2369  1.0358
 5901TIP3    H239195   0.257   2.018  16.369  2.4299  0.4408 -0.5821
 5902TIP3   OH239196   4.207   4.486  16.185 -0.2608  0.2316  0.5082
 5902TIP3    H139197   4.248   4.562  16.144 -1.9443  0.4011 -0.9767
 5902TIP3    H239198   4.116   4.511  16.198 -0.4158 -0.8540  1.8079
 5903TIP3   OH239199   2.737   4.710  16.775  0.6684  0.2392 -0.4677
 5903TIP3    H139200   2.651   4.712  16.818  1.3147  0.4102  0.8767
 5903TIP3    H239201   2.739   4.791  16.724 -0.0015  0.1875 -0.5922
 5904TIP3   OH239202   5.546   6.463  16.778 -0.5210 -0.1501  0.2807
 5904TIP3    H139203   5.636   6.493  16.767  0.2279 -2.6287 -1.0909
 5904TIP3    H239204   5.512   6.516  16.850  1.5214  1.8938 -0.1576
 5905TIP3   OH239205   2.420   4.226  11.624 -0.5841  0.3461  0.3897
 5905TIP3    H139206   2.439   4.174  11.702  0.5996 -0.0780 -0.1654
 5905TIP3    H239207   2.325   4.221  11.614 -0.5147 -1.7160  0.3613
 5906TIP3   OH239208   0.042   3.933  14.997 -0.0826 -0.0126 -0.3833
 5906TIP3    H139209  -0.010   3.941  14.917  2.3397  0.2965 -2.0272
 5906TIP3    H239210   0.057   3.839  15.007 -2.6181 -0.3295  1.3294
 5907TIP3   OH239211   1.599   5.436  14.924  0.2347 -0.4711 -0.3063
 5907TIP3    H139212   1.521   5.396  14.962 -0.5165 -0.1597 -1.4787
 5907TIP3    H239213   1.613   5.389  14.842  0.4286  0.4115 -0.7967
 5908TIP3   OH239214   4.955   4.748  10.799  0.2988 -0.0847 -0.4192
 5908TIP3    H139215   4.910   4.663  10.799 -0.9181  0.5287  0.0366
 5908TIP3    H239216   4.912   4.798  10.869  2.1576  0.3317  0.4669
 5909TIP3   OH239217   1.507   4.612   2.216  0.3377 -0.6734  0.3541
 5909TIP3    H139218   1.561   4.656   2.281  0.8509  0.4428 -0.7679
 5909TIP3    H239219   1.433   4.672   2.203  0.5852 -0.5426 -0.5453
 5910TIP3   OH239220   6.452   1.029  15.775 -0.3159 -0.1688 -0.2359
 5910TIP3    H139221   6.445   1.096  15.707 -1.3428 -0.8692 -0.8602
 5910TIP3    H239222   6.485   0.952  15.729  0.6163 -0.1711  0.4256
 5911TIP3   OH239223   6.652   1.187   5.567  0.2408 -0.0813  0.2420
 5911TIP3    H139224   6.641   1.107   5.619  1.5415 -0.6918 -0.4014
 5911TIP3    H239225   6.733   1.226   5.599 -0.7004  1.3805  1.0128
 5912TIP3   OH239226   3.067   5.725  12.219 -0.0392 -0.1481 -0.5062
 5912TIP3    H139227   2.981   5.705  12.257 -0.2261 -0.1116 -0.9118
 5912TIP3    H239228   3.065   5.685  12.132  0.2265  0.1565 -0.6523
 5913TIP3   OH239229   0.432   1.083  13.014  0.1853  0.2390  0.0264
 5913TIP3    H139230   0.516   1.093  12.968  0.6750 -0.5436  0.7112
 5913TIP3    H239231   0.378   1.031  12.954  0.3128  0.4523 -0.2745
 5914TIP3   OH239232   5.447   4.776  16.675  1.0900  0.5970 -0.2197
 5914TIP3    H139233   5.495   4.840  16.729  0.7686  1.1198 -0.5429
 5914TIP3    H239234   5.428   4.823  16.594  0.7109  0.1355 -0.4006
 5915TIP3   OH239235   4.445   0.793   3.488 -0.3228 -0.1081 -0.3199
 5915TIP3    H139236   4.423   0.740   3.564  1.3565  0.9230  0.9667
 5915TIP3    H239237   4.521   0.750   3.449 -1.5382 -0.9783 -1.8470
 5916TIP3   OH239238   6.789   0.955   0.073 -0.7538  0.4601 -0.8992
 5916TIP3    H139239   6.821   0.876   0.117 -1.8378  1.1902  1.2771
 5916TIP3    H239240   6.825   0.948  -0.016  2.2013 -0.6671  0.2664
 5917TIP3   OH239241   3.976   4.279  13.021  0.2223 -0.5077 -0.0513
 5917TIP3    H139242   4.059   4.267  13.069 -0.8818 -0.2810  2.0574
 5917TIP3    H239243   3.909   4.262  13.087 -1.4152  0.3884 -1.4353
 5918TIP3   OH239244   0.721   3.831   1.917  0.5936  0.2348 -0.4668
 5918TIP3    H139245   0.641   3.842   1.866 -0.0343  1.1132  0.6391
 5918TIP3    H239246   0.781   3.896   1.882  0.4146  0.3469 -0.5675
 5919TIP3   OH239247   1.580   0.874  15.843  0.1648 -0.0539 -0.0017
 5919TIP3    H139248   1.485   0.883  15.844  0.0708 -0.6418 -1.3346
 5919TIP3    H239249   1.605   0.867  15.936 -0.9976  0.8534  0.3983
 5920TIP3   OH239250   4.065   5.504   3.362  0.2642 -0.0611  0.7732
 5920TIP3    H139251   4.042   5.484   3.453 -1.3899  0.0399  0.4147
 5920TIP3    H239252   4.004   5.572   3.336  0.0270 -0.7947 -0.7180
 5921TIP3   OH239253   0.946   6.092   0.315  0.4363 -0.1336  0.2402
 5921TIP3    H139254   0.964   6.106   0.222  0.5443  1.5448  0.4737
 5921TIP3    H239255   0.852   6.104   0.324  0.7007  2.0286  0.6552
 5922TIP3   OH239256   3.052   6.687  13.261  0.1588  0.0544  1.0237
 5922TIP3    H139257   3.081   6.635  13.337  1.4323 -1.0366 -0.1421
 5922TIP3    H239258   3.112   6.761  13.259 -2.1586  2.1628  3.1629
 5923TIP3   OH239259   2.542   4.438  12.240 -0.0724 -0.2641 -0.1853
 5923TIP3    H139260   2.476   4.383  12.282 -0.0397  2.1216  3.5262
 5923TIP3    H239261   2.618   4.382  12.229 -0.6896 -1.4920  1.4848
 5924TIP3   OH239262   4.817   5.744   2.070  0.2692 -0.3907  0.1393
 5924TIP3    H139263   4.765   5.681   2.119 -2.2091  2.1211  1.0077
 5924TIP3    H239264   4.796   5.728   1.978  1.2648 -2.0567  0.1635
 5925TIP3   OH239265   0.857   6.664   3.124  0.4793  0.1623 -0.2262
 5925TIP3    H139266   0.923   6.727   3.152 -0.5639  1.1733  0.0280
 5925TIP3    H239267   0.844   6.607   3.200  2.2668 -1.1621 -0.8327
 5926TIP3   OH239268   4.303   0.083   3.128  0.3307  0.5611 -0.3346
 5926TIP3    H139269   4.265   0.126   3.051 -0.9180  2.5231  1.2689
 5926TIP3    H239270   4.234   0.024   3.158  0.7887 -0.1446 -0.6515
 5927TIP3   OH239271   2.037   1.943  17.109  0.3559  0.6633  0.2014
 5927TIP3    H139272   2.024   2.037  17.120 -0.0751  0.9915 -2.3985
 5927TIP3    H239273   2.040   1.931  17.014  1.3637 -1.8367  0.4868
 5928TIP3   OH239274   0.151   3.272   1.687 -0.7019 -0.0951  0.5444
 5928TIP3    H139275   0.078   3.237   1.635 -2.2385  2.0850  1.0710
 5928TIP3    H239276   0.118   3.356   1.720  1.8680  0.6787  1.3309
 5929TIP3   OH239277   0.360   6.518   0.950  0.2111  0.2393  0.3061
 5929TIP3    H139278   0.314   6.550   0.873  1.0738  2.8987  0.7959
 5929TIP3    H239279   0.300   6.535   1.023 -0.0927 -1.1067  0.3895
 5930TIP3   OH239280   5.365   1.360   6.000  0.3079  0.4989 -0.4005
 5930TIP3    H139281   5.296   1.414   6.038 -0.5084 -0.1184 -0.9716
 5930TIP3    H239282   5.441   1.418   5.994 -0.2233  1.2549  0.0139
 5931TIP3   OH239283   0.379   5.209  15.575  0.4902 -0.0192 -0.6029
 5931TIP3    H139284   0.461   5.196  15.623  0.1328  1.6886  0.5730
 5931TIP3    H239285   0.398   5.180  15.486  2.2914  0.1179 -0.2944
 5932TIP3   OH239286   2.078   6.543  11.376  0.3296  0.1017  0.1805
 5932TIP3    H139287   1.994   6.545  11.421  0.0380  0.1859 -0.3618
 5932TIP3    H239288   2.057   6.514  11.288  1.1087 -1.7142  0.5429
 5933TIP3   OH239289   4.215   2.270   5.659 -0.0293  1.1014  1.1774
 5933TIP3    H139290   4.159   2.200   5.693 -0.1638  0.0713 -1.0022
 5933TIP3    H239291   4.154   2.335   5.625  0.0040  0.0745 -1.0071
 5934TIP3   OH239292   4.888   6.162  15.093 -0.0630  0.2127 -0.5446
 5934TIP3    H139293   4.797   6.181  15.069 -0.4953  1.4671  1.8004
 5934TIP3    H239294   4.881   6.100  15.166  1.0118 -0.3514 -0.8994
 5935TIP3   OH239295   4.961   4.537  13.391 -0.4223  0.2462  0.2690
 5935TIP3    H139296   4.889   4.533  13.454  0.6843  0.4221  1.5858
 5935TIP3    H239297   4.998   4.448  13.391  1.4487  0.9258  2.1980
 5936TIP3   OH239298   5.297   0.085  15.397  0.5677 -0.0253 -0.4506
 5936TIP3    H139299   5.222   0.037  15.432  0.2311  0.6080 -0.2861
 5936TIP3    H239300   5.332   0.028  15.328  0.4321 -0.6865  0.0160
 5937TIP3   OH239301   2.512   2.638   5.231 -0.5041 -0.1879 -0.3793
 5937TIP3    H139302   2.571   2.707   5.202  1.1266 -1.4545 -0.2169
 5937TIP3    H239303   2.521   2.637   5.326 -0.7840 -0.3910 -0.3540
 5938TIP3   OH239304   5.484   2.789   6.454  0.6676  0.2535  0.0193
 5938TIP3    H139305   5.491   2.845   6.532  1.0742  1.0680 -0.5939
 5938TIP3    H239306   5.495   2.849   6.380 -0.4557 -0.3924 -0.6986
 5939TIP3   OH239307   1.720   1.898  16.570 -0.1033 -0.3302 -0.4957
 5939TIP3    H139308   1.773   1.977  16.564 -0.8130  0.4304  1.9164
 5939TIP3    H239309   1.783   1.827  16.579  0.5302  0.1852 -0.8478
 5940TIP3   OH239310   4.346   6.578  16.951  0.2982  0.1607 -0.0889
 5940TIP3    H139311   4.352   6.529  16.869 -0.4455 -0.2804  0.1045
 5940TIP3    H239312   4.334   6.669  16.925  0.4887  0.0821 -0.4597
 5941TIP3   OH239313   0.317   4.227   0.864 -0.1225  0.1332 -0.6817
 5941TIP3    H139314   0.289   4.306   0.910 -0.2501 -0.2304 -0.1266
 5941TIP3    H239315   0.358   4.173   0.931 -1.4602 -0.9638 -0.6986
 5942TIP3   OH239316   0.079   6.446  16.627 -0.8130  0.0022 -0.0428
 5942TIP3    H139317   0.094   6.375  16.565 -1.8686  0.5495 -0.9741
 5942TIP3    H239318   0.153   6.442  16.687  0.8474  0.0764 -1.9459
 5943TIP3   OH239319   1.836   5.603  13.580 -0.3861 -0.1324  0.1235
 5943TIP3    H139320   1.824   5.695  13.555 -3.4651 -0.5268 -0.2976
 5943TIP3    H239321   1.900   5.606  13.651  1.5184  2.0250 -1.5175
 5944TIP3   OH239322   0.350   3.309   4.787  0.7539 -0.4287  0.1400
 5944TIP3    H139323   0.325   3.224   4.750  0.1273 -0.3825  0.4511
 5944TIP3    H239324   0.395   3.354   4.715 -0.9918 -0.0836 -0.7921
 5945TIP3   OH239325   4.112   6.696  13.359 -0.4858 -0.7141 -0.1189
 5945TIP3    H139326   4.093   6.697  13.453 -0.8476 -1.8721 -0.1677
 5945TIP3    H239327   4.053   6.762  13.322 -0.1200 -0.0328  0.5009
 5946TIP3   OH239328   2.631   5.534   1.693  0.0222  0.3539 -0.0577
 5946TIP3    H139329   2.635   5.584   1.774 -0.4019  1.7556 -0.8515
 5946TIP3    H239330   2.550   5.484   1.699 -0.2562  0.8222  0.1968
 5947TIP3   OH239331   5.757   1.539  12.718  0.1630  0.0035  0.0389
 5947TIP3    H139332   5.768   1.444  12.715 -1.0452 -0.1610  0.2145
 5947TIP3    H239333   5.797   1.570  12.637  2.0122 -0.4617  0.7128
 5948TIP3   OH239334   5.585   1.504   5.972 -0.4717 -0.0231 -0.2250
 5948TIP3    H139335   5.632   1.507   6.056 -0.5515  0.0319 -0.1821
 5948TIP3    H239336   5.654   1.505   5.906 -0.4133  0.1128 -0.1629
 5949TIP3   OH239337   6.395   6.050   0.397 -0.1235 -0.7181  0.0699
 5949TIP3    H139338   6.322   6.000   0.433 -0.1641 -1.2973 -0.7943
 5949TIP3    H239339   6.461   5.984   0.376  0.9771 -0.1336  1.5436
 5950TIP3   OH239340   2.633   3.838  16.543  0.2181  0.2585  0.5441
 5950TIP3    H139341   2.609   3.930  16.557 -1.8085  0.4959 -3.4089
 5950TIP3    H239342   2.728   3.841  16.530  0.0475  2.0396 -0.6978
 5951TIP3   OH239343   5.990   3.651  16.902 -0.2680 -0.2566  0.3125
 5951TIP3    H139344   6.069   3.701  16.884 -0.0690 -0.1182  1.4570
 5951TIP3    H239345   5.921   3.697  16.854  0.2058  0.0975 -0.0389
 5952TIP3   OH239346   4.379   2.912   6.199  0.1108 -0.2029 -0.2192
 5952TIP3    H139347   4.356   2.827   6.237 -0.9256 -0.1440 -0.6830
 5952TIP3    H239348   4.469   2.901   6.170 -0.2771 -1.4366 -1.0350
 5953TIP3   OH239349   6.758   0.089   2.116 -0.0062 -0.0006 -0.4690
 5953TIP3    H139350   6.708   0.009   2.126  0.3672 -0.2759 -0.7603
 5953TIP3    H239351   6.704   0.145   2.060  0.2327 -0.4946 -1.2067
 5954TIP3   OH239352   4.152   0.920   2.635  0.0265  0.2613  1.0022
 5954TIP3    H139353   4.178   0.983   2.568  1.2047 -1.2788 -0.0826
 5954TIP3    H239354   4.226   0.859   2.640 -0.4209 -0.1794  3.0962
 5955TIP3   OH239355   3.644   2.108  15.922 -0.1220 -0.1173 -0.3538
 5955TIP3    H139356   3.645   2.012  15.916  0.4881 -0.1030 -0.5523
 5955TIP3    H239357   3.571   2.134  15.867 -0.0222 -0.4529 -0.6497
 5956TIP3   OH239358   6.316   5.375  11.204 -0.3705  0.2623 -0.0618
 5956TIP3    H139359   6.228   5.350  11.177 -0.7693 -0.2617  1.5793
 5956TIP3    H239360   6.356   5.292  11.231  0.5628  0.5283 -0.5775
 5957TIP3   OH239361   0.573   1.139   6.091 -0.1346 -0.0106 -0.1485
 5957TIP3    H139362   0.584   1.044   6.089  1.4076  0.1458 -0.4801
 5957TIP3    H239363   0.521   1.159   6.013 -1.3968 -0.6557  0.4980
 5958TIP3   OH239364   5.194   5.247  15.402 -0.1757 -0.4158  0.1872
 5958TIP3    H139365   5.205   5.341  15.413 -0.3369 -0.2761 -0.7295
 5958TIP3    H239366   5.173   5.236  15.309  0.5620 -1.4204  0.1196
 5959TIP3   OH239367   5.418   6.087   3.043 -0.1837 -0.4876  0.1557
 5959TIP3    H139368   5.334   6.120   3.076 -0.1314 -0.6211  0.4230
 5959TIP3    H239369   5.396   6.049   2.958 -0.4351 -0.7191  0.3217
 5960TIP3   OH239370   2.573   3.763  15.609 -0.0030 -0.0883  0.0627
 5960TIP3    H139371   2.657   3.729  15.637  0.1389  1.2723  1.3940
 5960TIP3    H239372   2.527   3.785  15.690 -0.2080  2.5073 -0.6544
 5961TIP3   OH239373   3.835   4.749   2.528  0.2727 -0.7989  0.5859
 5961TIP3    H139374   3.805   4.831   2.568  0.5616  0.4317 -1.5262
 5961TIP3    H239375   3.824   4.683   2.596 -1.0554  0.7893  2.0084
 5962TIP3   OH239376   3.333   2.543  14.313  0.0374  0.1670  0.0523
 5962TIP3    H139377   3.248   2.551  14.270  0.0822  2.3662  0.2746
 5962TIP3    H239378   3.383   2.484  14.256 -1.4721 -0.8398 -0.2893
 5963TIP3   OH239379   3.027   0.665   5.561  0.6653  0.3133 -0.0267
 5963TIP3    H139380   3.029   0.757   5.538  0.6366  0.4884  0.6556
 5963TIP3    H239381   3.108   0.629   5.523  0.4393  0.5105 -0.7038
 5964TIP3   OH239382   5.141   3.211  11.067 -0.4408 -0.2324  0.3042
 5964TIP3    H139383   5.088   3.150  11.014  0.1539  0.1597 -0.7692
 5964TIP3    H239384   5.231   3.189  11.045 -0.1907  2.5105 -1.9299
 5965TIP3   OH239385   2.677   3.071  16.361  0.0214 -0.1102  0.1197
 5965TIP3    H139386   2.586   3.075  16.332 -0.2038 -0.4365  0.7559
 5965TIP3    H239387   2.727   3.105  16.287 -0.5178 -1.0417 -0.6948
 5966TIP3   OH239388   1.185   6.646   2.812  0.1246 -0.4381 -0.0534
 5966TIP3    H139389   1.184   6.551   2.801  0.3299 -0.4702  0.2124
 5966TIP3    H239390   1.267   6.665   2.857 -0.5872 -0.2885  1.2402
 5967TIP3   OH239391   5.274   1.164  14.018  0.1286 -0.0019 -0.8035
 5967TIP3    H139392   5.271   1.192  14.109  0.5135  0.5360 -0.9548
 5967TIP3    H239393   5.214   1.089  14.014 -0.2287  0.2449 -0.2043
 5968TIP3   OH239394   3.005   6.254   0.440 -0.1220  0.7866  0.6204
 5968TIP3    H139395   3.065   6.328   0.444  0.1249  0.5792  0.7491
 5968TIP3    H239396   2.955   6.268   0.359  3.1560 -1.3828 -2.0722
 5969TIP3   OH239397   2.969   3.476  11.079  0.6495  0.4454  0.2008
 5969TIP3    H139398   2.907   3.525  11.026  0.9435  0.3421 -0.2402
 5969TIP3    H239399   2.923   3.396  11.103  0.2301  0.8493  0.7761
 5970TIP3   OH239400   0.030   2.531   1.550 -0.3444  0.0059  0.5578
 5970TIP3    H139401   0.108   2.579   1.577  0.0722 -0.1919 -0.2543
 5970TIP3    H239402   0.037   2.526   1.455  0.6455 -3.3823  0.7067
 5971TIP3   OH239403   1.404   6.695  12.930  0.1039  0.1463  0.3404
 5971TIP3    H139404   1.388   6.726  12.841 -0.0658 -1.4800 -0.2384
 5971TIP3    H239405   1.334   6.632  12.947  0.2474  0.2821  1.5683
 5972TIP3   OH239406   5.009   5.364  14.438 -0.0092 -0.4693 -0.0678
 5972TIP3    H139407   4.944   5.299  14.409  1.2842 -2.1153  0.5274
 5972TIP3    H239408   5.022   5.420  14.362 -0.8650 -1.1619 -0.7580
 5973TIP3   OH239409   4.331   4.530  15.035 -0.5592  0.0484  0.3436
 5973TIP3    H139410   4.278   4.607  15.015 -1.6324 -0.2648  1.7579
 5973TIP3    H239411   4.338   4.483  14.953 -0.2697  1.4115 -0.4412
 5974TIP3   OH239412   4.451   5.465  11.613 -0.2695  0.4973  0.4120
 5974TIP3    H139413   4.400   5.456  11.693 -1.9591  0.3330 -0.6333
 5974TIP3    H239414   4.393   5.513  11.553  1.2641  1.3567 -0.4430
 5975TIP3   OH239415   4.206   0.519  13.781 -0.2901  0.2024 -0.1589
 5975TIP3    H139416   4.122   0.563  13.792 -0.0655  1.1983 -1.9444
 5975TIP3    H239417   4.269   0.576  13.826 -0.5214 -0.4622  1.0440
 5976TIP3   OH239418   2.993   1.840   3.631  0.4001 -0.2583  0.2209
 5976TIP3    H139419   2.907   1.829   3.590  0.5511 -2.0242  0.2885
 5976TIP3    H239420   2.974   1.862   3.722  0.0538  1.4699 -0.2375
 5977TIP3   OH239421   0.484   6.390  16.847  0.2698 -0.0287  0.1933
 5977TIP3    H139422   0.408   6.343  16.882 -0.1860  1.7912  1.8169
 5977TIP3    H239423   0.456   6.419  16.760  1.0050 -3.6247 -1.4462
 5978TIP3   OH239424   5.507   2.403   4.183 -0.7171  0.3484  0.2833
 5978TIP3    H139425   5.507   2.363   4.096 -0.4087 -0.3747  0.5998
 5978TIP3    H239426   5.573   2.353   4.232 -0.4096  1.1835  0.7332
 5979TIP3   OH239427   5.950   1.144  17.026  0.0906 -0.2941  0.1298
 5979TIP3    H139428   5.868   1.191  17.042 -0.8996 -1.7928 -0.3199
 5979TIP3    H239429   6.006   1.209  16.984 -0.1112  1.3536  2.2374
 5980TIP3   OH239430   6.774   0.813  15.868  0.6858  0.2457 -0.8182
 5980TIP3    H139431   6.711   0.800  15.939  1.4458 -0.0590 -0.1869
 5980TIP3    H239432   6.860   0.804  15.910  1.1575  0.7719 -1.6367
 5981TIP3   OH239433   3.286   3.810  13.757  0.5329 -0.1297  0.0501
 5981TIP3    H139434   3.212   3.852  13.713  0.5976 -1.1190 -1.0430
 5981TIP3    H239435   3.320   3.877  13.817 -1.0628  0.4374  0.3720
 5982TIP3   OH239436   6.452   2.184  10.810 -0.0870 -0.1814  0.1125
 5982TIP3    H139437   6.390   2.255  10.794 -0.3687 -0.6446 -0.9873
 5982TIP3    H239438   6.409   2.106  10.773  0.2630 -0.9051  1.2004
 5983TIP3   OH239439   3.945   3.561  12.188 -0.2172  0.0089 -0.3367
 5983TIP3    H139440   3.967   3.500  12.258  0.4191  0.4766 -0.1196
 5983TIP3    H239441   3.871   3.520  12.143 -0.8410 -0.1566  0.7935
 5984TIP3   OH239442   0.541   3.171  12.560 -0.0687 -0.1938  0.1600
 5984TIP3    H139443   0.584   3.157  12.645 -1.0296  3.7431  1.4971
 5984TIP3    H239444   0.480   3.098  12.552  0.2109 -0.8158  2.7601
 5985TIP3   OH239445   6.378   4.541  13.893  0.1532  0.4432 -0.5831
 5985TIP3    H139446   6.303   4.523  13.837 -0.2760  0.7593 -0.1078
 5985TIP3    H239447   6.410   4.626  13.865  0.8922 -0.0877 -1.3962
 5986TIP3   OH239448   0.074   4.660   2.175  0.2027  0.6570  0.5225
 5986TIP3    H139449   0.147   4.696   2.225  0.9155  0.8839 -0.6395
 5986TIP3    H239450   0.054   4.728   2.111  0.2530 -0.1916 -0.4203
 5987TIP3   OH239451   1.849   1.218   5.229  0.0075  0.4509  0.4030
 5987TIP3    H139452   1.925   1.162   5.244  0.5998  0.7687 -1.1333
 5987TIP3    H239453   1.843   1.224   5.133 -1.8007  0.6503  0.5033
 5988TIP3   OH239454   5.849   4.212   5.833  0.0566  0.4878  0.0617
 5988TIP3    H139455   5.823   4.194   5.743  0.6495  0.6213 -0.1439
 5988TIP3    H239456   5.887   4.300   5.829  0.1250  0.4769  0.4326
 5989TIP3   OH239457   1.274   1.922  16.193  0.1132 -0.2375 -0.0306
 5989TIP3    H139458   1.334   1.857  16.228 -0.9750 -0.6865  1.0914
 5989TIP3    H239459   1.244   1.885  16.110 -1.0186 -1.5571  0.9102
 5990TIP3   OH239460   3.079   4.304   4.935  0.1927  0.1038  0.1506
 5990TIP3    H139461   3.032   4.361   4.874 -1.5374 -1.1274  0.2556
 5990TIP3    H239462   3.124   4.364   4.994  1.6011  1.3374 -2.0224
 5991TIP3   OH239463   5.181   2.922   0.703  0.7191 -0.0399 -0.4018
 5991TIP3    H139464   5.139   3.002   0.671 -2.3211 -1.1338  0.4853
 5991TIP3    H239465   5.154   2.917   0.795  0.0548 -2.4726 -0.6604
 5992TIP3   OH239466   0.471   3.036   5.688 -0.2957 -0.8609 -0.2063
 5992TIP3    H139467   0.411   3.055   5.760  0.2616  1.7851 -0.3215
 5992TIP3    H239468   0.552   3.008   5.732 -0.6901 -1.5710  0.0765
 5993TIP3   OH239469   2.149   1.574  10.474  0.0881  0.0652  0.4768
 5993TIP3    H139470   2.074   1.528  10.512  0.7102  0.7389  2.6466
 5993TIP3    H239471   2.201   1.504  10.433 -1.2068 -0.5259 -0.2502
 5994TIP3   OH239472   5.191   2.424   1.732 -0.1755 -0.0974  0.6010
 5994TIP3    H139473   5.233   2.510   1.720  1.2668 -0.8783 -0.1662
 5994TIP3    H239474   5.114   2.427   1.675 -0.0237  0.6039  0.4174
 5995TIP3   OH239475   4.658   3.916  12.438  0.4250 -0.2425  0.0328
 5995TIP3    H139476   4.622   3.918  12.526 -2.1776 -1.0711 -0.8990
 5995TIP3    H239477   4.585   3.942  12.382  2.1582  0.8348 -1.8597
 5996TIP3   OH239478   2.714   2.853  14.586 -0.0989  0.5767 -0.3868
 5996TIP3    H139479   2.640   2.830  14.530 -0.8866  0.5382  0.6537
 5996TIP3    H239480   2.675   2.875  14.670  1.2371 -2.0331  1.0275
 5997TIP3   OH239481   4.520   5.413  11.113 -0.2498 -0.7023  0.4013
 5997TIP3    H139482   4.505   5.453  11.028  1.5684 -0.6974  0.0422
 5997TIP3    H239483   4.481   5.474  11.176  0.3274  0.4064 -0.2878
 5998TIP3   OH239484   6.182   3.859   0.351 -0.5665 -0.5262 -0.0323
 5998TIP3    H139485   6.196   3.908   0.432  2.1845 -0.4493 -0.4551
 5998TIP3    H239486   6.093   3.825   0.359 -0.9174  0.7065  2.3355
 5999TIP3   OH239487   6.217   1.867   0.122  0.3292  0.2220  0.2173
 5999TIP3    H139488   6.275   1.918   0.179  0.7526 -1.7626  1.6660
 5999TIP3    H239489   6.140   1.924   0.109  1.1576  1.5745  0.9863
 6000TIP3   OH239490   0.226   5.874  17.036 -0.3470 -0.8599 -0.6207
 6000TIP3    H139491   0.132   5.893  17.037 -0.0894  0.5594  1.0751
 6000TIP3    H239492   0.241   5.834  16.950 -2.3631 -0.4064 -1.2418
 6001TIP3   OH239493   5.686   5.859  15.081 -0.4074 -0.6129  0.3554
 6001TIP3    H139494   5.704   5.791  15.146  1.1741 -2.8618 -2.2153
 6001TIP3    H239495   5.769   5.905  15.069 -1.3985  1.7724  1.8923
 6002TIP3   OH239496   4.603   1.373   6.047 -0.0547  1.3437  0.1390
 6002TIP3    H139497   4.637   1.284   6.056  0.2680  1.4153 -0.3477
 6002TIP3    H239498   4.605   1.409   6.136 -2.1447  0.1725  0.7290
 6003TIP3   OH239499   4.397   4.828  14.348  0.2080  0.4460 -0.5496
 6003TIP3    H139500   4.392   4.885  14.271 -0.1534  0.5833 -0.4265
 6003TIP3    H239501   4.314   4.841  14.393  0.4452  0.4178 -0.0958
 6004TIP3   OH239502   1.232   2.202   3.873 -0.1857  0.7596 -0.1026
 6004TIP3    H139503   1.139   2.190   3.852 -0.9933  2.2346  2.2428
 6004TIP3    H239504   1.270   2.115   3.863 -1.5523  0.3111 -2.1193
 6005TIP3   OH239505   4.438   3.273   1.205  0.6084 -0.5082  0.3595
 6005TIP3    H139506   4.396   3.309   1.284  0.4367 -0.3898  0.2148
 6005TIP3    H239507   4.454   3.181   1.227 -1.2643 -1.0032 -0.1846
 6006TIP3   OH239508   0.436   4.164  14.865  0.0317 -0.2889 -0.1735
 6006TIP3    H139509   0.423   4.233  14.930 -1.7531  0.1895 -0.9860
 6006TIP3    H239510   0.409   4.083  14.910  0.3047 -0.1966  0.1626
 6007TIP3   OH239511   5.636   6.787  11.692  0.2377 -0.7573  0.1543
 6007TIP3    H139512   5.697   6.836  11.638  0.7224 -1.0898  0.3890
 6007TIP3    H239513   5.626   6.703  11.648  1.0916 -1.2534  0.8656
 6008TIP3   OH239514   2.966   2.917  15.475 -0.1164 -0.1548  0.0417
 6008TIP3    H139515   2.874   2.931  15.497 -0.5750 -2.3813 -0.1964
 6008TIP3    H239516   2.981   2.973  15.398 -0.9679  0.9931  0.6838
 6009TIP3   OH239517   1.759   0.605  14.555  0.4051 -0.8418  0.2044
 6009TIP3    H139518   1.840   0.656  14.561  0.8895 -1.3143 -1.7285
 6009TIP3    H239519   1.691   0.669  14.534  0.3523 -0.5269  1.2736
 6010TIP3   OH239520   2.809   4.113   0.243  0.0568 -0.1552 -0.3440
 6010TIP3    H139521   2.875   4.179   0.260 -1.3341  1.0516  0.5406
 6010TIP3    H239522   2.835   4.074   0.159  1.2904  0.9941 -0.5177
 6011TIP3   OH239523   2.307   5.824  12.008 -0.1246  0.0519  0.4462
 6011TIP3    H139524   2.214   5.815  12.024 -1.0618  1.6788 -3.0421
 6011TIP3    H239525   2.334   5.900  12.060 -1.3926  1.1265 -0.4102
 6012TIP3   OH239526   4.503   0.054   4.519  0.1054 -0.3818  0.0549
 6012TIP3    H139527   4.412   0.041   4.492 -0.1023  2.6134 -0.9437
 6012TIP3    H239528   4.548   0.085   4.441  1.3155  0.9702  1.2378
 6013TIP3   OH239529   4.069   5.786  11.257 -0.9907 -0.7440 -0.2050
 6013TIP3    H139530   3.984   5.760  11.222 -0.8322 -0.2672 -0.9654
 6013TIP3    H239531   4.131   5.769  11.186 -0.6931  0.4343 -0.2565
 6014TIP3   OH239532   5.382   5.970  12.446 -0.2458 -0.8973 -0.2677
 6014TIP3    H139533   5.385   5.975  12.542 -0.2722  1.5981 -0.3211
 6014TIP3    H239534   5.433   5.892  12.424  2.3974  0.1471  1.6557
 6015TIP3   OH239535   1.628   3.048  13.781  0.1632  0.2693 -0.0998
 6015TIP3    H139536   1.688   2.973  13.774 -0.4936 -0.1463 -1.7657
 6015TIP3    H239537   1.540   3.009  13.775 -0.2106  1.1141 -0.2549
 6016TIP3   OH239538   5.605   5.115  12.716 -0.3619  0.0105 -0.0451
 6016TIP3    H139539   5.598   5.130  12.810 -1.5597  0.9479 -0.2525
 6016TIP3    H239540   5.605   5.020  12.706  1.9082 -0.1512  1.0129
 6017TIP3   OH239541   4.531   5.436  16.713  0.2766 -0.8077 -0.0105
 6017TIP3    H139542   4.520   5.531  16.723 -0.0178 -0.8648  0.2060
 6017TIP3    H239543   4.542   5.424  16.619 -0.1556 -0.6053 -0.0898
 6018TIP3   OH239544   0.228   2.073   5.706 -0.1042 -0.0507 -0.0220
 6018TIP3    H139545   0.142   2.073   5.748 -0.9222 -1.9706 -1.5616
 6018TIP3    H239546   0.218   2.132   5.631 -0.1148 -0.3805 -0.2793
 6019TIP3   OH239547   4.340   2.062  12.199 -0.1377  0.3475 -0.3493
 6019TIP3    H139548   4.301   1.984  12.160 -0.2686  0.8045 -1.1623
 6019TIP3    H239549   4.336   2.046  12.293 -1.6783  0.0901 -0.4248
 6020TIP3   OH239550   6.306   2.561   6.029  0.2754  0.2956  0.2082
 6020TIP3    H139551   6.303   2.509   6.109 -1.1972 -0.4152 -0.2765
 6020TIP3    H239552   6.326   2.650   6.059  1.5480 -0.2956  1.1644
 6021TIP3   OH239553   4.535   6.798  17.099  0.5544 -0.1433  0.3888
 6021TIP3    H139554   4.460   6.758  17.054  0.6913  0.2862 -0.2326
 6021TIP3    H239555   4.590   6.831  17.028 -0.1832  2.2970  0.8683
 6022TIP3   OH239556   5.929   2.127   3.538  0.1762 -0.1344  0.6101
 6022TIP3    H139557   6.004   2.082   3.498 -0.6112  0.3323 -1.5046
 6022TIP3    H239558   5.863   2.059   3.548  0.2262 -0.1655  0.7318
 6023TIP3   OH239559   6.455   6.190  17.102  0.0167 -0.1867 -0.3570
 6023TIP3    H139560   6.362   6.213  17.103 -0.2687 -1.2988  0.3186
 6023TIP3    H239561   6.482   6.194  17.194  0.3035 -1.1422 -0.3952
 6024TIP3   OH239562   5.050   5.725   3.469 -0.1273 -0.1444  0.0307
 6024TIP3    H139563   5.093   5.811   3.469 -0.1075 -0.1542 -0.1512
 6024TIP3    H239564   5.111   5.668   3.516 -1.0891  0.4100  2.0476
 6025TIP3   OH239565   0.110   1.402   2.368 -0.0593 -0.2026  0.1559
 6025TIP3    H139566   0.034   1.345   2.363  0.4691 -0.9361  0.3839
 6025TIP3    H239567   0.154   1.378   2.449  1.3803 -1.0450 -0.8179
 6026TIP3   OH239568   2.697   1.251  16.872 -0.2018  0.1981 -0.0864
 6026TIP3    H139569   2.715   1.206  16.955  0.3138  1.7503  0.6910
 6026TIP3    H239570   2.614   1.296  16.888 -0.1186  0.4741 -0.4227
 6027TIP3   OH239571   0.349   3.844  16.248  0.0748  0.3649 -0.2456
 6027TIP3    H139572   0.337   3.908  16.178  1.2224 -0.3911 -1.1657
 6027TIP3    H239573   0.318   3.761  16.212 -0.3240  0.1616  0.5317
 6028TIP3   OH239574   1.629   3.292   3.502 -0.6479 -0.1088  0.4224
 6028TIP3    H139575   1.719   3.324   3.501 -0.2696 -1.1104 -0.8418
 6028TIP3    H239576   1.585   3.343   3.433 -0.3084 -1.5273 -0.8828
 6029TIP3   OH239577   3.269   4.365   4.609  0.2804 -0.7155  0.6010
 6029TIP3    H139578   3.187   4.381   4.655  0.8865 -0.5188  1.6590
 6029TIP3    H239579   3.249   4.296   4.546 -1.0553  0.3987 -0.2398
 6030TIP3   OH239580   5.508   0.679   5.706  0.1038 -0.0711  0.6874
 6030TIP3    H139581   5.459   0.612   5.754 -0.7597 -0.4339 -0.6687
 6030TIP3    H239582   5.442   0.731   5.662  0.8486  0.7067  0.4616
 6031TIP3   OH239583   1.016   4.203  12.690  0.2155  0.0651  0.0652
 6031TIP3    H139584   1.048   4.254  12.765  0.4292  1.7217 -1.0992
 6031TIP3    H239585   0.921   4.214  12.692  0.3647  2.4159 -1.3812
 6032TIP3   OH239586   2.059   3.292  14.316  0.2976 -0.1164  0.2800
 6032TIP3    H139587   2.076   3.387  14.312  0.6451 -0.1196  1.3670
 6032TIP3    H239588   2.085   3.260  14.229  1.2223  0.6316  0.2565
 6033TIP3   OH239589   3.738   6.620   6.177  0.4262 -0.1592  0.0866
 6033TIP3    H139590   3.831   6.615   6.195  0.2694 -1.0099  0.7205
 6033TIP3    H239591   3.696   6.582   6.254 -0.4140 -0.4170 -0.4832
 6034TIP3   OH239592   1.862   5.430   4.299  0.5045  0.1893  0.3192
 6034TIP3    H139593   1.899   5.343   4.310 -1.2613 -0.4170  2.1281
 6034TIP3    H239594   1.813   5.426   4.217  0.1003 -0.6676  0.5953
 6035TIP3   OH239595   4.710   5.170  11.627 -0.0157  0.2989 -0.0571
 6035TIP3    H139596   4.713   5.229  11.703 -1.9691 -1.6120  1.6171
 6035TIP3    H239597   4.635   5.201  11.576 -0.8838 -0.5324  0.6871
 6036TIP3   OH239598   5.694   0.955  11.434  0.0576  0.1615  0.1796
 6036TIP3    H139599   5.619   0.990  11.482 -1.1121  0.8687 -1.9851
 6036TIP3    H239600   5.744   0.906  11.499 -1.5733  0.7544  1.9902
 6037TIP3   OH239601   0.722   1.427   3.734 -0.2387 -0.6842  0.2710
 6037TIP3    H139602   0.768   1.407   3.816 -0.0988 -1.5902 -0.0235
 6037TIP3    H239603   0.791   1.449   3.672 -0.4146  1.5190  0.7678
 6038TIP3   OH239604   0.325   4.519   5.530  0.0990  0.0377  0.5521
 6038TIP3    H139605   0.339   4.587   5.596  2.0439 -0.1510  0.3742
 6038TIP3    H239606   0.286   4.446   5.580  1.4504 -0.0662  1.5061
 6039TIP3   OH239607   2.415   4.372   4.928  0.2315  0.0915 -0.1169
 6039TIP3    H139608   2.329   4.330   4.923  0.1924  0.2694 -1.2297
 6039TIP3    H239609   2.476   4.299   4.941 -0.1613  0.0681  1.9800
 6040TIP3   OH239610   1.510   4.904   5.192 -0.0348  0.1225 -0.7799
 6040TIP3    H139611   1.583   4.924   5.251 -0.5906 -1.0638  0.3630
 6040TIP3    H239612   1.518   4.968   5.121  2.0416  0.0981 -0.6333
 6041TIP3   OH239613   2.854   2.585   2.393  0.0730  0.4526 -0.1861
 6041TIP3    H139614   2.900   2.631   2.463 -0.8648  0.2661  0.5893
 6041TIP3    H239615   2.915   2.517   2.365  0.3741  0.3709  0.6342
 6042TIP3   OH239616   3.947   1.278  13.687  0.4290 -0.3936 -0.1498
 6042TIP3    H139617   3.890   1.291  13.612  0.7426  0.0541 -0.3140
 6042TIP3    H239618   3.931   1.187  13.714  0.0156 -0.4271 -0.4995
 6043TIP3   OH239619   6.073   0.202  10.796 -0.4135 -0.2497  0.1983
 6043TIP3    H139620   6.071   0.119  10.843  1.5855  0.2613  1.3249
 6043TIP3    H239621   5.992   0.246  10.823 -0.7918 -1.2357  0.7341
 6044TIP3   OH239622   3.198   4.154   3.055  0.4065 -0.5205 -0.3827
 6044TIP3    H139623   3.220   4.209   3.130  1.8710  0.0264 -1.1658
 6044TIP3    H239624   3.111   4.120   3.074  0.6562 -0.2069  1.4384
 6045TIP3   OH239625   0.702   3.165   5.076 -0.5680 -0.2407 -0.4041
 6045TIP3    H139626   0.621   3.177   5.027 -0.3907 -1.0836 -0.9267
 6045TIP3    H239627   0.745   3.251   5.074 -0.6773 -0.1965 -1.5362
 6046TIP3   OH239628   2.486   2.297   3.778 -0.2482 -0.1361  0.0203
 6046TIP3    H139629   2.408   2.295   3.723  0.9112 -1.7799 -1.7068
 6046TIP3    H239630   2.477   2.376   3.830 -1.5905  1.3590 -2.3155
 6047TIP3   OH239631   6.613   0.084   4.343  0.1988  0.0248 -0.7906
 6047TIP3    H139632   6.649   0.156   4.291  0.3820 -0.3077 -1.1348
 6047TIP3    H239633   6.537   0.122   4.388  0.4885  0.5177 -0.7049
 6048TIP3   OH239634   4.636   2.590   4.654  0.1438  0.0226  0.4010
 6048TIP3    H139635   4.645   2.497   4.674 -0.6673  0.1560  1.4236
 6048TIP3    H239636   4.542   2.606   4.651  0.2624  0.6338 -0.6645
 6049TIP3   OH239637   6.768   4.470   6.356  0.1564 -0.1153 -0.3099
 6049TIP3    H139638   6.818   4.542   6.396  0.6166 -0.4422 -0.2853
 6049TIP3    H239639   6.812   4.391   6.388 -1.6583 -0.4936  1.4208
 6050TIP3   OH239640   1.406   0.044   3.571 -0.1032  0.0559  0.1944
 6050TIP3    H139641   1.339  -0.008   3.615 -1.4671  1.8330  0.3268
 6050TIP3    H239642   1.485   0.031   3.623 -0.6055 -1.2385  0.6588
 6051TIP3   OH239643   5.035   6.773  16.846 -0.1342  0.1359 -0.3814
 6051TIP3    H139644   5.096   6.839  16.814 -0.8541 -0.1096 -2.3858
 6051TIP3    H239645   4.957   6.822  16.872  0.9634  0.5000  2.6106
 6052TIP3   OH239646   3.035   2.816   4.402  1.0851  0.6006 -0.4181
 6052TIP3    H139647   3.040   2.901   4.358 -0.3986 -0.1422 -2.1429
 6052TIP3    H239648   3.029   2.753   4.331 -3.8222 -0.5550  0.6291
 6053TIP3   OH239649   1.644   6.558  14.368 -0.2865 -0.1113  0.1122
 6053TIP3    H139650   1.649   6.574  14.462  1.2052 -0.0226  0.0375
 6053TIP3    H239651   1.735   6.557  14.339 -0.6062 -2.0478 -1.0136
 6054TIP3   OH239652   4.778   2.567  11.535  0.1896  0.1783  0.1492
 6054TIP3    H139653   4.821   2.560  11.621 -0.4481  0.9846  0.5546
 6054TIP3    H239654   4.799   2.656  11.506  1.7623 -0.6069 -1.3055
 6055TIP3   OH239655   6.557   2.630   5.303 -0.3182 -0.1723 -0.6231
 6055TIP3    H139656   6.509   2.704   5.339  0.1550 -0.3976  0.4987
 6055TIP3    H239657   6.584   2.659   5.216 -1.1542  0.5219 -0.6668
 6056TIP3   OH239658   6.201   6.557   3.630 -0.4536 -0.4052  0.0432
 6056TIP3    H139659   6.158   6.631   3.587 -1.1562 -0.5714  0.4415
 6056TIP3    H239660   6.162   6.554   3.718  1.1521  0.0995  0.8086
 6057TIP3   OH239661   1.753   4.208   0.029 -0.6342  0.2284  0.1901
 6057TIP3    H139662   1.667   4.222   0.069 -0.9003 -1.9018  0.4685
 6057TIP3    H239663   1.796   4.144   0.086 -0.7155 -2.3712 -2.4326
 6058TIP3   OH239664   1.378   1.248  14.236 -0.8648  0.3598 -0.1541
 6058TIP3    H139665   1.472   1.232  14.239 -1.1097 -1.4165 -0.7793
 6058TIP3    H239666   1.358   1.264  14.144 -0.9853  2.2892  0.1643
 6059TIP3   OH239667   5.177   2.299   0.212  0.2943  0.0105  0.0501
 6059TIP3    H139668   5.221   2.300   0.297 -2.6365 -1.0942  1.7550
 6059TIP3    H239669   5.228   2.238   0.158  0.0326 -2.5623  2.4672
 6060TIP3   OH239670   0.900   3.231  15.597  0.3639 -0.4538  0.5320
 6060TIP3    H139671   0.925   3.283  15.673  1.0327  0.4386 -0.2765
 6060TIP3    H239672   0.972   3.242  15.535 -1.9060  2.2598 -1.9218
 6061TIP3   OH239673   4.030   3.737  12.564  0.1212  1.0558 -0.2663
 6061TIP3    H139674   3.986   3.800  12.621 -1.0153 -0.5805  0.7500
 6061TIP3    H239675   4.120   3.768  12.559 -0.0355  1.9183  1.4819
 6062TIP3   OH239676   6.512   3.265  14.027  0.1262 -0.4156  0.3313
 6062TIP3    H139677   6.599   3.299  14.007 -0.3508  0.6928  0.0780
 6062TIP3    H239678   6.491   3.302  14.113 -0.3963 -0.0557  0.0560
 6063TIP3   OH239679   6.260   6.655  11.434 -0.2635 -0.0630 -0.0076
 6063TIP3    H139680   6.189   6.676  11.495 -0.8016 -0.3903 -0.5131
 6063TIP3    H239681   6.280   6.739  11.392  1.2865  0.5488  1.8024
 6064TIP3   OH239682   4.989   0.087   6.373 -0.1403  0.4354  0.2497
 6064TIP3    H139683   5.028   0.132   6.448  2.2338  0.9643 -1.1766
 6064TIP3    H239684   5.056   0.025   6.345 -0.8895  0.3362 -1.4819
 6065TIP3   OH239685   0.386   0.007  14.387  0.7928 -0.6929  0.0691
 6065TIP3    H139686   0.393   0.001  14.482  1.3274 -1.7569 -0.0281
 6065TIP3    H239687   0.393   0.101  14.369 -0.9826 -0.2905  1.1822
 6066TIP3   OH239688   1.171   3.865  14.517  0.0140  0.3690  0.4315
 6066TIP3    H139689   1.179   3.836  14.426 -1.0621  1.4223 -0.0195
 6066TIP3    H239690   1.261   3.872  14.548  0.4049  0.3211 -0.6587
 6067TIP3   OH239691   0.472   0.817  13.583  0.2172  0.2241  0.0688
 6067TIP3    H139692   0.436   0.895  13.624 -1.4537  0.1354 -1.1206
 6067TIP3    H239693   0.454   0.746  13.645 -2.3214  0.0802 -0.7303
 6068TIP3   OH239694   3.729   3.947   4.858 -0.1497  0.9631  0.7448
 6068TIP3    H139695   3.737   3.980   4.947 -0.4731  0.0375  1.1244
 6068TIP3    H239696   3.702   4.024   4.807 -1.4363  1.1945  1.7003
 6069TIP3   OH239697   2.996   3.419  16.178 -0.4511  0.3121  0.4282
 6069TIP3    H139698   2.903   3.430  16.164 -0.3783  0.7547  0.2752
 6069TIP3    H239699   3.006   3.329  16.207 -0.7043 -0.3302 -1.4049
 6070TIP3   OH239700   2.351   2.271   1.410 -0.1681 -0.6418  0.0644
 6070TIP3    H139701   2.408   2.264   1.487 -1.9709  1.1814  1.7057
 6070TIP3    H239702   2.304   2.188   1.407 -0.4817 -0.5383  1.3295
 6071TIP3   OH239703   5.457   0.045   0.725  0.4927  0.4037  0.8492
 6071TIP3    H139704   5.368   0.077   0.737  0.2911 -0.3652  1.4972
 6071TIP3    H239705   5.490   0.093   0.649 -0.2082  1.2382  1.0604
 6072TIP3   OH239706   2.025   6.018   6.030  0.4736  0.0348 -0.8019
 6072TIP3    H139707   2.091   5.962   5.988  0.9423  1.0311 -1.4168
 6072TIP3    H239708   1.951   5.959   6.045  1.8975 -1.4001  0.9745
 6073TIP3   OH239709   4.555   0.135   1.284 -0.0165  0.8360 -0.0500
 6073TIP3    H139710   4.630   0.188   1.309 -0.0162  0.5311  0.6396
 6073TIP3    H239711   4.522   0.100   1.367  1.8504 -2.7681 -0.6212
 6074TIP3   OH239712   5.697   5.171  14.216  0.7796 -0.5619 -0.2372
 6074TIP3    H139713   5.789   5.159  14.195  0.4868 -1.1680 -1.1979
 6074TIP3    H239714   5.666   5.237  14.154  0.7545  0.2861  0.6446
 6075TIP3   OH239715   4.899   0.569  16.918  0.3840  0.0212 -0.7022
 6075TIP3    H139716   4.966   0.623  16.960 -0.2473  0.2833 -0.0079
 6075TIP3    H239717   4.901   0.596  16.826  1.1919  0.0584 -0.6822
 6076TIP3   OH239718   2.278   1.526   0.560  0.0461 -0.0462 -0.2099
 6076TIP3    H139719   2.287   1.485   0.474  1.8410 -1.0185  0.3847
 6076TIP3    H239720   2.364   1.515   0.601  0.2566  3.2745  0.4858
 6077TIP3   OH239721   5.762   6.090   1.901 -0.1493  0.0721 -0.7272
 6077TIP3    H139722   5.679   6.069   1.858 -0.9193 -0.2733  0.8398
 6077TIP3    H239723   5.819   6.015   1.882 -0.3792  0.0527 -1.3511
 6078TIP3   OH239724   0.269   6.619   2.241  0.2590  0.2860 -0.1110
 6078TIP3    H139725   0.332   6.552   2.267  0.2157  0.3403  0.1351
 6078TIP3    H239726   0.319   6.679   2.186  0.4178  0.3230  0.0734
 6079TIP3   OH239727   6.091   2.668  14.385 -0.7813 -0.1351 -0.3914
 6079TIP3    H139728   6.054   2.598  14.438 -0.9281  0.0335 -0.2714
 6079TIP3    H239729   6.116   2.736  14.448  0.9663 -0.7885 -0.3263
 6080TIP3   OH239730   6.643   0.092   2.989  0.3370 -0.3503 -0.4406
 6080TIP3    H139731   6.616   0.017   3.041  1.8734 -1.6007 -1.3592
 6080TIP3    H239732   6.689   0.054   2.914  0.7145  1.4959 -1.2036
 6081TIP3   OH239733   2.973   6.203  16.767  0.5185  0.0705 -0.2929
 6081TIP3    H139734   2.936   6.115  16.774  0.0963  0.2269 -0.5238
 6081TIP3    H239735   2.897   6.260  16.759  0.7024  0.6330  1.5433
 6082TIP3   OH239736   6.202   0.819   2.289  0.0057  0.3213 -0.5089
 6082TIP3    H139737   6.291   0.843   2.263 -0.1119 -0.4409 -1.7534
 6082TIP3    H239738   6.213   0.766   2.368  0.5739  0.9990 -0.1282
 6083TIP3   OH239739   2.354   2.238   5.291 -0.0521 -0.0007 -0.0836
 6083TIP3    H139740   2.428   2.211   5.346 -0.4284 -0.5052  0.1843
 6083TIP3    H239741   2.366   2.332   5.278  0.6868 -0.0945 -0.1167
 6084TIP3   OH239742   0.080   4.091   4.303 -0.3775  0.0066  0.4836
 6084TIP3    H139743  -0.008   4.119   4.330 -0.0097  0.5974  1.0892
 6084TIP3    H239744   0.064   4.029   4.232 -1.2179  2.0220 -1.2051
 6085TIP3   OH239745   6.182   0.096  14.349  0.3117 -0.3816  0.1686
 6085TIP3    H139746   6.131   0.091  14.268 -1.4021  1.2267  1.0722
 6085TIP3    H239747   6.266   0.054  14.327 -1.0315 -2.3503 -1.6489
 6086TIP3   OH239748   5.096   4.352   5.210  0.6262  0.0787  0.2839
 6086TIP3    H139749   5.093   4.447   5.218 -0.3570  0.0735  0.0852
 6086TIP3    H239750   5.065   4.320   5.295 -1.2456 -0.0261 -0.3795
 6087TIP3   OH239751   2.351   5.680  15.547 -0.2656  0.1187  0.3764
 6087TIP3    H139752   2.407   5.643  15.615 -1.2174 -0.6051  0.7912
 6087TIP3    H239753   2.281   5.725  15.595  0.0735  1.2214 -0.1314
 6088TIP3   OH239754   5.834   6.177  16.780  0.5458  0.2939  0.0364
 6088TIP3    H139755   5.825   6.086  16.809  1.3610 -0.1751 -1.1015
 6088TIP3    H239756   5.744   6.207  16.768  0.2750 -0.8901 -1.0957
 6089TIP3   OH239757   0.331   5.138  17.127  0.0960 -0.2401  0.3557
 6089TIP3    H139758   0.399   5.180  17.075 -0.5762 -1.0960 -1.2989
 6089TIP3    H239759   0.264   5.112  17.063 -0.5834 -1.7355  1.5884
 6090TIP3   OH239760   5.775   0.068  11.287  0.3645  0.0908 -0.1115
 6090TIP3    H139761   5.700   0.128  11.277  0.9923  0.9695  0.3401
 6090TIP3    H239762   5.800   0.046  11.197 -2.3128 -2.6783 -0.3370
 6091TIP3   OH239763   3.761   4.710  13.015  0.3012  0.1342 -0.2546
 6091TIP3    H139764   3.852   4.702  12.986 -0.4217 -0.2422 -2.6958
 6091TIP3    H239765   3.748   4.803  13.031  1.6386 -0.0403  2.1977
 6092TIP3   OH239766   2.101   0.183  15.536  0.5269 -0.1116  0.7356
 6092TIP3    H139767   2.052   0.174  15.618 -1.4094 -2.3366 -0.5216
 6092TIP3    H239768   2.171   0.118  15.542  0.4981 -0.1447  0.7159
 6093TIP3   OH239769   5.031   4.895  10.578 -0.5820 -0.2748 -0.5269
 6093TIP3    H139770   5.018   4.848  10.660  0.5807  0.9476  0.3930
 6093TIP3    H239771   4.947   4.939  10.562 -1.2420 -1.5307 -0.7155
 6094TIP3   OH239772   3.619   3.503   3.410 -0.1058  0.1494  0.2646
 6094TIP3    H139773   3.708   3.469   3.399 -0.2726  0.2241 -1.6485
 6094TIP3    H239774   3.628   3.598   3.404 -0.3887  0.1244 -0.8659
 6095TIP3   OH239775   6.625   5.321  15.353  0.3528 -0.0914  0.0644
 6095TIP3    H139776   6.542   5.276  15.336  1.0491 -1.0404 -1.0375
 6095TIP3    H239777   6.658   5.281  15.433 -0.3700  0.4912  0.6664
 6096TIP3   OH239778   0.311   0.893   1.037 -0.0017  0.6591  0.2692
 6096TIP3    H139779   0.339   0.837   1.109  0.2967  1.8566  1.1192
 6096TIP3    H239780   0.216   0.881   1.033 -0.0302  0.6645  0.9245
 6097TIP3   OH239781   6.139   6.670  16.434 -0.7005 -0.0634  0.1457
 6097TIP3    H139782   6.144   6.738  16.501 -1.3482  1.8915 -1.6808
 6097TIP3    H239783   6.228   6.636  16.427 -0.2925  0.8245  0.8419
 6098TIP3   OH239784   3.747   0.876  12.265  0.1459 -0.1426 -0.0111
 6098TIP3    H139785   3.712   0.787  12.275  0.2927 -0.1610  0.3854
 6098TIP3    H239786   3.685   0.920  12.208 -1.1684  0.1710  1.6075
 6099TIP3   OH239787   2.140   0.190  13.462  0.6333 -0.2549  0.2242
 6099TIP3    H139788   2.186   0.273  13.453 -0.0840  0.0355 -0.9861
 6099TIP3    H239789   2.170   0.154  13.546  1.8468  0.6516  0.1927
 6100TIP3   OH239790   6.842   0.726   1.484  0.0487 -0.1806  0.0630
 6100TIP3    H139791   6.757   0.709   1.525 -0.6247 -1.3140 -1.6601
 6100TIP3    H239792   6.847   0.821   1.478  0.0855  0.0281  2.4572
 6101TIP3   OH239793   2.840   1.842   3.083  0.0506 -0.0859  0.0558
 6101TIP3    H139794   2.778   1.770   3.080 -0.0905  0.0470 -0.5435
 6101TIP3    H239795   2.923   1.804   3.052  0.5971 -0.5551  1.9960
 6102TIP3   OH239796   2.350   6.298   3.914 -0.3574 -0.4593 -0.1266
 6102TIP3    H139797   2.383   6.288   4.003  1.3753 -0.6710 -0.7456
 6102TIP3    H239798   2.428   6.293   3.859 -1.4275 -0.7337 -1.6934
 6103TIP3   OH239799   0.385   0.052  12.937  0.2185 -0.6314 -0.2365
 6103TIP3    H139800   0.300   0.008  12.929 -0.0926  0.1837 -1.9076
 6103TIP3    H239801   0.379   0.104  13.017  0.1975 -2.6973  1.1912
 6104TIP3   OH239802   0.006   4.804   5.520 -0.4420 -0.0551 -0.7024
 6104TIP3    H139803  -0.039   4.877   5.562 -0.6617 -0.6911  0.1928
 6104TIP3    H239804  -0.026   4.726   5.566  0.1248 -0.6784 -1.3372
 6105TIP3   OH239805   1.340   5.426  16.948  0.9652  0.5216  0.2140
 6105TIP3    H139806   1.268   5.446  16.888  0.1973  0.1839  1.0052
 6105TIP3    H239807   1.382   5.511  16.964  0.1169  0.8821  0.5400
 6106TIP3   OH239808   4.067   2.591   2.792 -0.2744  0.0184 -0.4027
 6106TIP3    H139809   4.023   2.575   2.875  0.0230  0.1142 -0.2270
 6106TIP3    H239810   4.157   2.613   2.816  0.2434 -1.5284 -0.8285
 6107TIP3   OH239811   2.021   1.213  12.626 -0.8384  0.3271 -0.0336
 6107TIP3    H139812   2.077   1.291  12.631 -1.3479  0.6532  1.0272
 6107TIP3    H239813   2.075   1.147  12.584 -0.9361  1.7117 -2.5239
 6108TIP3   OH239814   6.042   5.595   4.390  0.4609 -0.0556  0.7778
 6108TIP3    H139815   6.076   5.684   4.375  0.0098  0.4367  2.4711
 6108TIP3    H239816   6.112   5.538   4.360  0.2295  0.8094 -1.6293
 6109TIP3   OH239817   3.944   0.984   2.008  0.2254  0.2627  0.1004
 6109TIP3    H139818   3.926   1.016   2.097  0.6193  2.0670 -0.4221
 6109TIP3    H239819   3.859   0.982   1.965 -0.0230 -0.9935  0.6041
 6110TIP3   OH239820   1.628   5.214  14.184  0.0732 -0.1261  0.7224
 6110TIP3    H139821   1.593   5.125  14.176  2.1364 -0.8697 -1.1213
 6110TIP3    H239822   1.678   5.213  14.266  1.1197 -1.1161  0.1087
 6111TIP3   OH239823   4.009   2.519   3.328  0.6246  0.9277 -0.2945
 6111TIP3    H139824   4.048   2.606   3.316  1.6515  0.2200 -2.8486
 6111TIP3    H239825   3.915   2.536   3.335  0.7704  2.2535 -1.1144
 6112TIP3   OH239826   0.197   5.495  11.506  0.7978 -0.4571 -0.1410
 6112TIP3    H139827   0.197   5.557  11.433  1.1679  0.7357  0.8485
 6112TIP3    H239828   0.173   5.411  11.466 -0.8933  0.5291 -1.3072
 6113TIP3   OH239829   3.598   5.355   2.412  0.1233  0.1290  0.1207
 6113TIP3    H139830   3.580   5.271   2.368  0.7965 -1.1634  2.1685
 6113TIP3    H239831   3.672   5.391   2.364  0.2935 -0.8137 -0.3534
 6114TIP3   OH239832   1.201   2.809   2.375  0.4033  0.0290 -0.4723
 6114TIP3    H139833   1.118   2.857   2.378 -0.3143 -1.1220 -1.2883
 6114TIP3    H239834   1.181   2.725   2.415  0.4888 -1.2151 -2.8726
 6115TIP3   OH239835   2.397   5.561  16.297  0.6914 -0.8080  0.4195
 6115TIP3    H139836   2.323   5.506  16.273  0.5774 -1.2725  1.7825
 6115TIP3    H239837   2.431   5.593  16.213  0.4768 -2.5765 -0.3869
 6116TIP3   OH239838   3.769   5.354  12.732 -0.1135 -0.6022 -0.0932
 6116TIP3    H139839   3.711   5.296  12.682 -0.0304  0.2781 -1.2622
 6116TIP3    H239840   3.846   5.364  12.675 -0.5957  1.5220 -0.4325
 6117TIP3   OH239841   0.627   2.384  12.324  0.5665  0.0297 -0.0036
 6117TIP3    H139842   0.685   2.381  12.400  0.7439  0.9924 -0.0837
 6117TIP3    H239843   0.579   2.467  12.334  0.7497  0.2711 -1.0507
 6118TIP3   OH239844   5.110   2.822   4.194  0.0009 -0.2461  0.4916
 6118TIP3    H139845   5.031   2.784   4.157 -0.7177 -0.2792  1.9799
 6118TIP3    H239846   5.085   2.912   4.216  1.4645  1.0017 -2.3381
 6119TIP3   OH239847   1.180   2.628  12.543 -0.5041  0.7310  0.2096
 6119TIP3    H139848   1.183   2.639  12.448 -2.4541 -0.6808 -0.0815
 6119TIP3    H239849   1.094   2.589  12.560 -0.1108  0.7201  2.5402
 6120TIP3   OH239850   1.250   0.209  10.819  0.7099 -0.2032  0.2469
 6120TIP3    H139851   1.224   0.298  10.796 -0.4885 -0.5257  0.2737
 6120TIP3    H239852   1.324   0.190  10.762 -0.6237 -0.1034 -1.6275
 6121TIP3   OH239853   5.273   5.915  13.768 -0.3583 -0.2614 -0.0987
 6121TIP3    H139854   5.335   5.978  13.730  1.0646 -2.2485 -1.2536
 6121TIP3    H239855   5.226   5.879  13.693 -3.7238  1.7963  0.7835
 6122TIP3   OH239856   1.367   3.493  16.342 -0.2036 -0.3878  0.0771
 6122TIP3    H139857   1.412   3.474  16.424 -0.3446  1.0602  0.5184
 6122TIP3    H239858   1.318   3.573  16.360 -0.1876 -0.0080 -1.4363
 6123TIP3   OH239859   0.295   0.928   4.223  0.8157  0.3849  0.8053
 6123TIP3    H139860   0.262   0.987   4.291  2.3021  4.0237 -1.3198
 6123TIP3    H239861   0.219   0.911   4.167  0.2434 -0.2044  1.7391
 6124TIP3   OH239862   4.750   2.622   3.528  0.4601  0.3691 -0.4384
 6124TIP3    H139863   4.777   2.532   3.506  0.0005  0.0819  0.1623
 6124TIP3    H239864   4.732   2.662   3.443 -0.4569 -0.4643 -0.6504
 6125TIP3   OH239865   4.169   5.191   4.893  0.2253 -0.4951 -0.3702
 6125TIP3    H139866   4.177   5.118   4.954  0.8193 -0.4511 -0.3867
 6125TIP3    H239867   4.246   5.183   4.836  0.1604 -0.0075 -0.5315
 6126TIP3   OH239868   2.169   1.424   2.209 -0.7552  0.1429  0.2415
 6126TIP3    H139869   2.170   1.332   2.237 -0.7298 -0.0708 -0.4257
 6126TIP3    H239870   2.233   1.467   2.266 -0.3540 -0.3748  0.1973
 6127TIP3   OH239871   0.271   2.968  13.814 -0.2469  0.0958 -0.0278
 6127TIP3    H139872   0.357   2.984  13.854 -0.9033 -0.4630  1.6907
 6127TIP3    H239873   0.232   3.055  13.804  0.5120  0.3537 -0.8349
 6128TIP3   OH239874   5.556   3.663   5.808 -0.3191  0.3451  0.6944
 6128TIP3    H139875   5.492   3.731   5.790  0.6366  1.0076 -0.3520
 6128TIP3    H239876   5.627   3.709   5.855  1.9883  1.0075 -3.0353
 6129TIP3   OH239877   0.141   2.279  16.756 -0.1540  0.1986  0.2133
 6129TIP3    H139878   0.203   2.207  16.745 -0.9274 -0.5827  0.8380
 6129TIP3    H239879   0.187   2.342  16.812  0.6183  0.3263 -0.5420
 6130TIP3   OH239880   6.201   0.180  12.481 -0.3621  0.2245  0.0861
 6130TIP3    H139881   6.127   0.174  12.541 -0.3478  1.9936  0.3359
 6130TIP3    H239882   6.249   0.258  12.509  1.6714 -0.9155 -0.0216
 6131TIP3   OH239883   2.811   4.081  13.700 -0.0490  0.2114  0.0835
 6131TIP3    H139884   2.832   4.175  13.701  2.0148 -0.2118  0.6708
 6131TIP3    H239885   2.740   4.073  13.636  1.3894  1.8442 -1.8257
 6132TIP3   OH239886   0.960   5.428   5.822  0.0558 -0.2771  0.7047
 6132TIP3    H139887   0.886   5.442   5.763 -0.3315 -0.3940  1.1528
 6132TIP3    H239888   1.009   5.510   5.818 -1.9141  1.1481  2.9391
 6133TIP3   OH239889   4.091   3.432  12.484  0.0321  0.1970  0.3725
 6133TIP3    H139890   4.063   3.343  12.507 -1.3568  0.7788  1.0905
 6133TIP3    H239891   4.026   3.488  12.527 -0.3206  1.4984 -1.7389
 6134TIP3   OH239892   2.906   6.272  11.921 -0.1386 -0.5907  0.0688
 6134TIP3    H139893   2.839   6.305  11.980  0.2697  0.5712 -0.0994
 6134TIP3    H239894   2.858   6.217  11.859 -0.4312 -2.8060  2.1163
 6135TIP3   OH239895   1.973   1.358  11.863  0.0035 -0.2447 -0.1941
 6135TIP3    H139896   2.035   1.364  11.791 -1.1823  1.3426 -1.1471
 6135TIP3    H239897   1.887   1.374  11.823 -0.8676 -0.8621  1.3174
 6136TIP3   OH239898   4.690   6.356   5.234 -0.2107  0.0465  0.1061
 6136TIP3    H139899   4.621   6.364   5.168 -0.2850  0.7973  0.2674
 6136TIP3    H239900   4.732   6.442   5.235  0.0532 -0.0867  0.7541
 6137TIP3   OH239901   1.553   6.320  12.286  0.5238  0.1181  0.3176
 6137TIP3    H139902   1.546   6.323  12.381  0.3710 -0.4465  0.3275
 6137TIP3    H239903   1.465   6.296  12.256  0.9775 -1.4703  0.1412
 6138TIP3   OH239904   2.793   0.676  15.996 -0.3645  0.1421 -0.5939
 6138TIP3    H139905   2.802   0.765  16.030  1.4753 -1.2412  3.0396
 6138TIP3    H239906   2.718   0.640  16.043 -0.1578 -0.7127 -0.9082
 6139TIP3   OH239907   6.099   6.125  13.171 -0.1982  0.6041 -0.2422
 6139TIP3    H139908   6.152   6.052  13.138 -1.6662 -0.0958 -1.1345
 6139TIP3    H239909   6.017   6.119  13.123 -0.5035  2.6464 -0.0587
 6140TIP3   OH239910   5.737   6.850   1.872  0.6457 -0.5425 -0.1786
 6140TIP3    H139911   5.788   6.931   1.865 -1.1942  0.8051  1.1486
 6140TIP3    H239912   5.801   6.784   1.900  1.7932  0.9372  0.8302
 6141TIP3   OH239913   4.169   6.277   3.123  0.2980  0.3373  0.2374
 6141TIP3    H139914   4.205   6.191   3.103 -1.7823 -0.1804 -1.7132
 6141TIP3    H239915   4.095   6.259   3.181  0.0727  0.8402  0.1128
 6142TIP3   OH239916   5.540   0.169  11.183 -0.0361  0.9575 -0.2500
 6142TIP3    H139917   5.518   0.213  11.101 -1.3342  0.7426 -0.0488
 6142TIP3    H239918   5.543   0.240  11.248 -3.3877  0.7568  0.3233
 6143TIP3   OH239919   4.155   5.093   5.171 -0.0943  0.1244  0.4557
 6143TIP3    H139920   4.136   5.155   5.241 -0.4606  0.1827  0.3106
 6143TIP3    H239921   4.250   5.094   5.162 -0.0830  0.4980  0.6070
 6144TIP3   OH239922   4.061   4.076   3.239 -0.0751  0.0977  0.2430
 6144TIP3    H139923   4.037   4.104   3.327  0.5151  2.0641 -0.1642
 6144TIP3    H239924   4.156   4.066   3.241 -0.1935 -1.2253  0.1651
 6145TIP3   OH239925   1.319   5.225  15.525  0.0617 -0.0364 -0.1643
 6145TIP3    H139926   1.354   5.178  15.601  1.6831  1.4902  0.1178
 6145TIP3    H239927   1.320   5.317  15.552 -0.7016  0.4069 -1.5439
 6146TIP3   OH239928   0.239   0.200  11.076  0.2622 -0.4314 -0.0868
 6146TIP3    H139929   0.273   0.131  11.020 -1.1033 -0.7821 -0.5175
 6146TIP3    H239930   0.145   0.199  11.061  0.0906  0.7627  0.7674
 6147TIP3   OH239931   1.951   4.444  11.219 -0.0450  0.6327 -0.4815
 6147TIP3    H139932   1.869   4.398  11.236 -0.4238  1.8279  1.2044
 6147TIP3    H239933   2.019   4.386  11.254  0.0409 -0.9410 -2.9947
 6148TIP3   OH239934   6.261   4.059   0.828  0.2252  0.3920  0.0409
 6148TIP3    H139935   6.234   3.977   0.870 -0.6004  1.3035  1.3567
 6148TIP3    H239936   6.203   4.125   0.865  3.6942  2.3871  2.5040
 6149TIP3   OH239937   5.402   4.341  12.898 -0.1106  0.4504  0.1031
 6149TIP3    H139938   5.319   4.343  12.851  0.8208  2.0999 -1.5767
 6149TIP3    H239939   5.465   4.379  12.838  1.2563  2.3237  2.4985
 6150TIP3   OH239940   3.637   0.944   0.557  0.1678 -0.6125 -0.0006
 6150TIP3    H139941   3.638   0.990   0.640 -0.7365 -0.3410 -0.1215
 6150TIP3    H239942   3.726   0.911   0.545  0.7906  0.9630  0.1629
 6151TIP3   OH239943   3.950   1.806   0.509 -0.2341 -0.1996 -0.8866
 6151TIP3    H139944   4.035   1.816   0.466 -0.7483  1.4009 -1.6067
 6151TIP3    H239945   3.920   1.718   0.483  1.1985 -0.8063 -0.5703
 6152TIP3   OH239946   6.608   3.804  15.721  0.2431 -0.4042  0.0779
 6152TIP3    H139947   6.634   3.797  15.629 -2.2711 -0.7378 -0.6681
 6152TIP3    H239948   6.563   3.722  15.740  0.0499 -0.0162  1.3817
 6153TIP3   OH239949   4.570   0.244   1.914  0.5255  0.4165  0.2168
 6153TIP3    H139950   4.589   0.213   2.002 -0.5944 -2.9457 -0.5593
 6153TIP3    H239951   4.655   0.268   1.878  1.0228  1.6051  2.0667
 6154TIP3   OH239952   4.905   2.616  15.082  0.6155 -0.0612 -0.2814
 6154TIP3    H139953   4.908   2.688  15.019  0.2347 -0.5166 -0.8315
 6154TIP3    H239954   4.920   2.538  15.029  0.1654 -0.4629  0.1735
 6155TIP3   OH239955   0.690   2.501  15.585  0.2118 -0.2473 -0.5170
 6155TIP3    H139956   0.635   2.458  15.651 -1.6633  2.9944  0.2837
 6155TIP3    H239957   0.773   2.517  15.630  0.2262 -1.1833 -0.1822
 6156TIP3   OH239958   3.389   5.712   0.418 -0.1028  0.0076 -0.1292
 6156TIP3    H139959   3.378   5.808   0.420 -0.1257  0.0072 -0.2591
 6156TIP3    H239960   3.446   5.694   0.493 -0.1727  0.1139 -0.0490
 6157TIP3   OH239961   3.867   6.189   4.568  0.4163  0.3212  0.0166
 6157TIP3    H139962   3.959   6.189   4.539  0.2943  0.2897 -0.3732
 6157TIP3    H239963   3.865   6.126   4.640  0.4147 -0.7956 -0.9208
 6158TIP3   OH239964   5.069   6.693  17.108 -0.0339 -0.3377 -1.1562
 6158TIP3    H139965   5.079   6.747  17.029 -0.1832  0.7643 -0.4425
 6158TIP3    H239966   5.069   6.756  17.180 -0.4662 -1.2854 -0.3084
 6159TIP3   OH239967   6.530   0.451  16.296 -0.0284  0.2173 -0.0245
 6159TIP3    H139968   6.494   0.530  16.335 -0.8034 -0.4458  0.6270
 6159TIP3    H239969   6.496   0.379  16.349 -0.8955 -0.7078 -1.7385
 6160TIP3   OH239970   5.504   0.315  12.408 -0.3725  0.2220 -0.5863
 6160TIP3    H139971   5.550   0.233  12.427  0.4510  0.7940 -0.0113
 6160TIP3    H239972   5.437   0.321  12.476 -0.5543 -0.0625 -0.7408
 6161TIP3   OH239973   1.474   4.784  14.628 -0.0131  0.0929  0.4065
 6161TIP3    H139974   1.509   4.829  14.551  0.8821  1.5864  1.6356
 6161TIP3    H239975   1.408   4.724  14.592  2.0915 -1.0867 -1.7516
 6162TIP3   OH239976   0.743   3.442  11.624 -0.5859 -0.0758  0.2587
 6162TIP3    H139977   0.813   3.380  11.646 -0.9316 -0.9030 -0.9329
 6162TIP3    H239978   0.778   3.527  11.651  0.4915 -0.5946  0.5484
 6163TIP3   OH239979   6.088   2.653   0.726 -0.0533  0.8600 -0.0413
 6163TIP3    H139980   6.012   2.603   0.697  1.0035 -2.6643  2.6001
 6163TIP3    H239981   6.053   2.716   0.789 -0.9365  0.1290  0.2062
 6164TIP3   OH239982   3.430   4.706   2.189  0.5771  0.2045 -0.7678
 6164TIP3    H139983   3.376   4.630   2.210  0.0805  0.8092  0.1805
 6164TIP3    H239984   3.412   4.723   2.097 -0.6410  0.2334 -0.5332
 6165TIP3   OH239985   3.948   5.315  11.760 -0.2234  0.3579  0.3086
 6165TIP3    H139986   3.940   5.343  11.669  1.6836  0.9496  0.2826
 6165TIP3    H239987   3.991   5.388  11.805 -0.7982 -0.0714  1.6204
 6166TIP3   OH239988   3.917   2.020   5.981 -0.0274  0.1351  0.5470
 6166TIP3    H139989   3.878   1.933   5.972 -1.9259  1.1046 -1.3926
 6166TIP3    H239990   3.843   2.079   5.992  1.1157  1.7148  0.1110
 6167TIP3   OH239991   4.650   2.581  13.834 -0.0984  0.0408 -0.3033
 6167TIP3    H139992   4.668   2.637  13.910 -0.9634  0.6134 -0.4993
 6167TIP3    H239993   4.583   2.520  13.866 -0.6857  0.4766 -0.6735
 6168TIP3   OH239994   0.646   4.708  12.693  0.2037  0.1194  0.2750
 6168TIP3    H139995   0.680   4.762  12.764  0.6836 -0.1334  0.2417
 6168TIP3    H239996   0.565   4.752  12.666  0.8900  1.1579 -0.1518
 6169TIP3   OH239997   5.258   1.066  11.285  0.2268  0.1220  0.0284
 6169TIP3    H139998   5.260   1.153  11.243  0.9751  0.0117 -0.1690
 6169TIP3    H239999   5.286   1.006  11.216  0.3292 -0.2041  0.3560
 6170TIP3   OH240000   1.812   3.944  14.155 -0.6446  0.6127 -0.2599
 6170TIP3    H140001   1.808   3.855  14.118  0.4703  0.1831  0.5785
 6170TIP3    H240002   1.893   3.944  14.206 -1.6869  1.4276  1.4898
 6171TIP3   OH240003   2.164   1.694   4.778  0.3841 -0.1028  0.7886
 6171TIP3    H140004   2.221   1.618   4.787 -0.2121 -1.1329 -2.6591
 6171TIP3    H240005   2.225   1.769   4.778  1.2294 -0.7619  1.6790
 6172TIP3   OH240006   3.401   5.792   3.458  0.5004  0.1084 -0.3918
 6172TIP3    H140007   3.427   5.749   3.540  1.4456 -0.9907 -1.2323
 6172TIP3    H240008   3.426   5.730   3.390 -0.7519  0.7783 -1.5013
 6173TIP3   OH240009   5.383   3.906   3.395  0.0067  0.3775  0.0943
 6173TIP3    H140010   5.328   3.874   3.466  1.3405  1.5411  1.7487
 6173TIP3    H240011   5.368   4.001   3.395  0.4516  0.4544 -0.8065
 6174TIP3   OH240012   0.805   6.046   6.191  0.0117  0.0953 -0.7438
 6174TIP3    H140013   0.856   6.101   6.131  0.3107 -1.4870 -2.0283
 6174TIP3    H240014   0.870   5.989   6.231 -0.4438 -0.2224 -0.4547
 6175TIP3   OH240015   4.172   3.915  15.325  0.5075  0.2555 -0.1330
 6175TIP3    H140016   4.108   3.845  15.315  0.9028 -0.1792  0.3077
 6175TIP3    H240017   4.143   3.984  15.266 -0.7831  0.3657  0.5984
 6176TIP3   OH240018   0.446   3.954   4.273  0.2060 -0.3426  0.1331
 6176TIP3    H140019   0.368   3.963   4.218 -1.9638 -0.7553  2.9452
 6176TIP3    H240020   0.445   4.032   4.329  2.2805  0.0083 -0.2391
 6177TIP3   OH240021   5.295   4.234   2.244 -0.5613 -0.3759 -0.0460
 6177TIP3    H140022   5.238   4.272   2.178 -0.8772  0.3543  0.6326
 6177TIP3    H240023   5.350   4.172   2.196 -2.6910 -1.9632 -0.5434
 6178TIP3   OH240024   6.105   1.788   3.098  0.1811 -0.4208  0.4538
 6178TIP3    H140025   6.017   1.817   3.122  0.4474 -0.0213  0.9712
 6178TIP3    H240026   6.122   1.831   3.014  1.7221  3.5649  2.5331
 6179TIP3   OH240027   4.901   1.245   6.054 -0.2899 -0.5857 -0.5249
 6179TIP3    H140028   4.901   1.157   6.018 -1.7610 -0.6609 -0.3844
 6179TIP3    H240029   4.939   1.236   6.141  2.4412 -0.5467 -1.5949
 6180TIP3   OH240030   2.166   1.518  15.722 -0.2325  0.7212 -0.2567
 6180TIP3    H140031   2.074   1.493  15.733 -0.2119  0.5630 -0.4229
 6180TIP3    H240032   2.213   1.469  15.789 -0.1808  0.2314 -0.6398
 6181TIP3   OH240033   1.405   3.495   0.164  0.0492  1.0042  0.2621
 6181TIP3    H140034   1.434   3.454   0.246 -0.0724 -0.0497 -0.2074
 6181TIP3    H240035   1.324   3.540   0.187 -1.3659 -1.3295  0.2596
 6182TIP3   OH240036   1.780   3.772  10.495  0.0831 -0.3563  0.4478
 6182TIP3    H140037   1.752   3.723  10.572  0.5804  0.2463  1.0100
 6182TIP3    H240038   1.710   3.756  10.431  0.0460 -1.4917  0.7416
 6183TIP3   OH240039   5.038   0.687   4.701 -0.0007 -0.7233 -0.0714
 6183TIP3    H140040   5.062   0.605   4.743  0.6192 -1.0298 -1.0077
 6183TIP3    H240041   4.955   0.668   4.657 -1.7350  0.1379  2.5619
 6184TIP3   OH240042   5.237   1.606   3.080 -0.1573 -0.2478  0.7919
 6184TIP3    H140043   5.303   1.676   3.082 -1.3915  0.9573  0.6126
 6184TIP3    H240044   5.286   1.527   3.103  1.5464  0.4364 -0.2507
 6185TIP3   OH240045   3.476   5.947  14.191 -0.3041 -0.0268 -0.0326
 6185TIP3    H140046   3.552   6.004  14.200  0.8136 -1.4961  0.2951
 6185TIP3    H240047   3.500   5.885  14.122 -0.4270 -1.6274  1.2833
 6186TIP3   OH240048   4.620   3.799   0.521  0.3844 -0.8697  0.2507
 6186TIP3    H140049   4.620   3.884   0.565 -1.7625  0.0967 -1.4799
 6186TIP3    H240050   4.555   3.748   0.568  0.7295 -1.1243  0.4589
 6187TIP3   OH240051   2.054   0.469   6.056 -0.7239  0.5699 -0.0747
 6187TIP3    H140052   1.983   0.406   6.040 -0.6168  0.1654  0.9356
 6187TIP3    H240053   2.009   0.550   6.080 -0.8674  0.1518  1.1442
 6188TIP3   OH240054   2.546   2.720  15.359 -0.0490 -0.3101  0.3184
 6188TIP3    H140055   2.500   2.798  15.330 -1.7546 -0.9672  1.1084
 6188TIP3    H240056   2.477   2.657  15.380  1.2395 -2.6565 -1.8507
 6189TIP3   OH240057   5.529   6.567   0.352  0.3563  0.2698 -0.0360
 6189TIP3    H140058   5.508   6.514   0.275  1.0456 -1.2217  0.7717
 6189TIP3    H240059   5.505   6.656   0.326 -3.4732 -0.7161 -0.4684
 6190TIP3   OH240060   5.950   2.812  16.070 -0.2985 -0.1032  0.2406
 6190TIP3    H140061   5.872   2.766  16.102 -0.2849 -0.4854 -0.2657
 6190TIP3    H240062   5.997   2.836  16.150 -1.3386  0.8694  0.5946
 6191TIP3   OH240063   3.417   6.505  12.811 -0.8627  0.3102 -0.0314
 6191TIP3    H140064   3.438   6.566  12.740  1.2084 -0.8517 -0.4956
 6191TIP3    H240065   3.354   6.444  12.773 -0.5409  0.2962 -0.5393
 6192TIP3   OH240066   0.938   5.141   0.434 -0.5140  0.1207  0.6147
 6192TIP3    H140067   0.972   5.160   0.521  0.8552 -3.1927  0.9251
 6192TIP3    H240068   0.853   5.100   0.450 -1.3305  1.5571  0.1934
 6193TIP3   OH240069   3.124   4.283   5.371  0.0903  0.1223 -0.4618
 6193TIP3    H140070   3.106   4.363   5.421 -0.9427 -0.4431  0.1198
 6193TIP3    H240071   3.210   4.297   5.333 -0.1215  1.5712 -0.4840
 6194TIP3   OH240072   5.907   6.564  12.299 -0.0292 -0.2873  0.1793
 6194TIP3    H140073   5.872   6.620  12.229  0.4953 -0.1260  0.0393
 6194TIP3    H240074   5.869   6.478  12.281 -0.1688 -0.1693 -0.1083
 6195TIP3   OH240075   6.022   0.303  11.529 -0.3164  0.2428  0.2232
 6195TIP3    H140076   6.071   0.284  11.449 -0.1506  0.8011  0.1877
 6195TIP3    H240077   6.089   0.309  11.597 -0.5421 -1.3073  0.6299
 6196TIP3   OH240078   2.984   0.513  10.620  0.2891  0.6711  0.0789
 6196TIP3    H140079   2.907   0.468  10.586  0.4659  0.6967 -0.3724
 6196TIP3    H240080   3.038   0.529  10.542  0.9098  0.3393  0.4312
 6197TIP3   OH240081   3.269   6.230   1.327 -0.2024  0.1586 -0.0248
 6197TIP3    H140082   3.222   6.191   1.401  1.8355 -0.1007  1.2371
 6197TIP3    H240083   3.310   6.308   1.364 -0.6181  1.0461 -1.3893
 6198TIP3   OH240084   4.555   5.107  12.379 -0.2300 -0.1038 -0.6491
 6198TIP3    H140085   4.502   5.082  12.455  0.2328  0.5855 -0.0863
 6198TIP3    H240086   4.569   5.025  12.331 -0.9076 -0.4674 -0.2370
 6199TIP3   OH240087   3.736   3.355   4.685  0.0991  0.1777  0.3114
 6199TIP3    H140088   3.767   3.383   4.771  1.1928  0.9915 -0.3193
 6199TIP3    H240089   3.744   3.433   4.629  1.0720 -0.7758 -0.9419
 6200TIP3   OH240090   5.611   6.463   2.471  0.4115 -0.2694 -0.3863
 6200TIP3    H140091   5.537   6.406   2.453  1.1059 -1.3066 -0.0642
 6200TIP3    H240092   5.670   6.410   2.524 -0.0342  1.5815  2.1400
 6201TIP3   OH240093   4.503   5.814   2.522  0.2384 -0.0134  0.1658
 6201TIP3    H140094   4.584   5.768   2.544  0.4258 -0.0049 -0.4834
 6201TIP3    H240095   4.452   5.750   2.473  0.0327  0.1156  0.2123
 6202TIP3   OH240096   2.737   2.396   4.065  0.4074  0.5602 -0.3166
 6202TIP3    H140097   2.829   2.400   4.091  0.0222 -1.6440  1.7445
 6202TIP3    H240098   2.714   2.304   4.071 -1.9637  1.0508 -0.7075
 6203TIP3   OH240099   4.263   0.509  11.746 -0.1748 -0.4496  0.2396
 6203TIP3    H140100   4.216   0.571  11.690 -0.1063 -0.6377 -0.0260
 6203TIP3    H240101   4.240   0.536  11.835 -0.6757 -0.4519  0.1145
 6204TIP3   OH240102   0.249   3.117  13.047  0.1167  1.4227  0.1302
 6204TIP3    H140103   0.167   3.156  13.015 -1.6795 -0.4617  2.0912
 6204TIP3    H240104   0.244   3.026  13.020  1.7224  1.3190  0.0999
 6205TIP3   OH240105   1.251   3.491   4.870  0.5296  0.5363  0.0781
 6205TIP3    H140106   1.323   3.552   4.885  0.2060  0.6996  1.0354
 6205TIP3    H240107   1.252   3.477   4.775  1.8337  0.5049  0.0736
 6206TIP3   OH240108   4.973   6.673   5.317 -0.6478 -0.0839  0.4968
 6206TIP3    H140109   4.945   6.764   5.316  0.6302  0.3470  1.5450
 6206TIP3    H240110   4.941   6.638   5.400 -0.9349 -0.5430  0.2039
 6207TIP3   OH240111   0.395   5.166   5.590  0.6241  0.3405  0.3439
 6207TIP3    H140112   0.385   5.258   5.568 -0.6954  0.2529  0.4859
 6207TIP3    H240113   0.418   5.124   5.507  2.2769  0.9217  0.4847
 6208TIP3   OH240114   0.777   5.358  12.118 -0.5266  0.2165  0.4999
 6208TIP3    H140115   0.784   5.453  12.106 -0.7545  0.1763  0.0318
 6208TIP3    H240116   0.855   5.323  12.076 -0.4042  0.2033  0.7404
 6209TIP3   OH240117   1.368   6.052  14.704 -0.3086 -0.8681 -0.3517
 6209TIP3    H140118   1.449   6.063  14.654 -0.8201 -2.0587 -1.5063
 6209TIP3    H240119   1.383   5.973  14.755  0.0870  0.1665  1.2048
 6210TIP3   OH240120   0.319   3.378  13.452 -0.2398 -0.0124  0.3213
 6210TIP3    H140121   0.331   3.311  13.520  0.4234 -0.2985 -0.0715
 6210TIP3    H240122   0.406   3.415  13.440  0.0308 -1.1524 -1.5875
 6211TIP3   OH240123   1.353   0.607  15.982  0.5789 -0.7108 -0.3135
 6211TIP3    H140124   1.404   0.575  16.057  0.8729 -1.4034 -0.7980
 6211TIP3    H240125   1.373   0.545  15.911  1.5761  0.8172 -1.4401
 6212TIP3   OH240126   3.478   3.942   4.446 -0.1535 -0.0198 -0.1698
 6212TIP3    H140127   3.486   3.970   4.537 -1.5532  0.6800 -0.2373
 6212TIP3    H240128   3.386   3.921   4.436 -0.2868  1.1510 -1.7637
 6213TIP3   OH240129   0.634   4.335   3.460 -0.1872  0.2335 -0.2800
 6213TIP3    H140130   0.679   4.263   3.503  0.8063  1.5838  1.0480
 6213TIP3    H240131   0.544   4.306   3.451  0.0937 -0.9844  0.6669
 6214TIP3   OH240132   6.723   3.815   6.766  0.2777  0.9476  0.5729
 6214TIP3    H140133   6.788   3.750   6.738 -0.4029  0.1755  0.7226
 6214TIP3    H240134   6.751   3.897   6.725  0.4459  0.2899 -0.6826
 6215TIP3   OH240135   0.986   6.667  17.117  0.3101  0.4991  0.1795
 6215TIP3    H140136   1.018   6.606  17.051  0.9754 -0.3410  1.2476
 6215TIP3    H240137   0.933   6.613  17.176 -0.7584  1.3450  0.0298
 6216TIP3   OH240138   3.829   1.775  11.074 -0.0683 -0.3552 -0.2905
 6216TIP3    H140139   3.840   1.865  11.045 -0.6143 -0.4640 -0.8570
 6216TIP3    H240140   3.894   1.725  11.025 -0.8335 -0.5028 -1.1960
 6217TIP3   OH240141   6.477   4.138   3.190 -0.1530  0.2819 -0.8158
 6217TIP3    H140142   6.384   4.159   3.187 -0.0965  0.5437 -0.7213
 6217TIP3    H240143   6.480   4.049   3.227 -0.2273  1.1997  1.5952
 6218TIP3   OH240144   2.111   4.429   3.252  0.2229 -0.3535 -0.8692
 6218TIP3    H140145   2.096   4.344   3.293  3.0902  0.4701  2.2656
 6218TIP3    H240146   2.047   4.488   3.294  2.5324  0.2834  2.0638
 6219TIP3   OH240147   2.920   6.473   4.056 -0.1556 -0.1459 -0.0436
 6219TIP3    H140148   2.833   6.455   4.093  0.9799 -1.5454  2.1663
 6219TIP3    H240149   2.902   6.497   3.965 -3.1634  3.3755  1.2051
 6220TIP3   OH240150   4.944   6.836  11.838 -0.9827 -0.3525 -0.0594
 6220TIP3    H140151   4.876   6.890  11.879  1.5578  2.3041  0.9952
 6220TIP3    H240152   4.953   6.871  11.749 -0.6235 -0.3137 -0.0101
 6221TIP3   OH240153   5.476   3.576   6.777 -0.1756  0.6253 -0.6267
 6221TIP3    H140154   5.443   3.659   6.744  1.0027  2.0818  1.6051
 6221TIP3    H240155   5.545   3.600   6.839  0.9931 -2.0677 -0.7219
 6222TIP3   OH240156   6.222   3.870  15.307 -0.6845 -0.0662 -0.5089
 6222TIP3    H140157   6.230   3.907  15.219 -0.0287  0.3449 -0.2872
 6222TIP3    H240158   6.127   3.862  15.321 -0.8107 -2.4492 -2.1758
 6223TIP3   OH240159   3.955   3.509   5.875 -0.5845 -0.2352  0.5747
 6223TIP3    H140160   4.047   3.500   5.851 -0.8210 -0.6574 -0.2030
 6223TIP3    H240161   3.954   3.580   5.940  0.2956 -0.3061  0.6765
 6224TIP3   OH240162   1.554   1.010   4.209 -0.1590 -0.5056 -0.2276
 6224TIP3    H140163   1.564   0.920   4.242 -0.2307 -1.1768 -1.9504
 6224TIP3    H240164   1.644   1.041   4.197 -0.0830 -1.2005 -1.7492
 6225TIP3   OH240165   0.232   2.169  14.585 -0.0095  0.3342 -0.4866
 6225TIP3    H140166   0.320   2.162  14.623 -0.6484  0.6358  1.1342
 6225TIP3    H240167   0.190   2.087  14.609 -0.7901  0.9925  0.4789
 6226TIP3   OH240168   2.830   0.975  12.430  0.5795 -0.0081  0.1669
 6226TIP3    H140169   2.792   1.057  12.399  1.3907 -0.3658 -1.9320
 6226TIP3    H240170   2.761   0.935  12.483 -0.7300  0.9049 -0.7758
 6227TIP3   OH240171   1.109   6.209   2.059  0.9161 -0.0837 -0.3199
 6227TIP3    H140172   1.131   6.140   1.996  2.7036  0.4958 -0.3791
 6227TIP3    H240173   1.191   6.228   2.104  0.0455  0.7332  0.9882
 6228TIP3   OH240174   4.567   4.563  12.900  0.2675  0.0689  0.4970
 6228TIP3    H140175   4.579   4.594  12.990  0.1696  0.4077  0.3963
 6228TIP3    H240176   4.557   4.469  12.908 -0.7377  0.1956  0.9510
 6229TIP3   OH240177   1.872   3.614  13.029 -0.4099 -0.3086 -0.3195
 6229TIP3    H140178   1.916   3.534  12.998  1.1171  0.8156 -1.2189
 6229TIP3    H240179   1.942   3.666  13.069 -1.2505  0.8355 -0.2782
 6230TIP3   OH240180   3.992   6.151   5.933  0.3602 -0.0029 -0.2146
 6230TIP3    H140181   3.940   6.179   5.857  0.0357  0.7907  0.2828
 6230TIP3    H240182   3.930   6.105   5.989  0.4736 -0.1057 -0.1732
 6231TIP3   OH240183   1.741   2.554  14.201 -0.0281  0.1985  0.1518
 6231TIP3    H140184   1.742   2.532  14.294  0.5054 -0.3800  0.0123
 6231TIP3    H240185   1.720   2.472  14.156  1.1606  0.1343 -0.3199
 6232TIP3   OH240186   1.139   1.619  15.781  0.3154 -0.6214 -0.1307
 6232TIP3    H140187   1.074   1.554  15.807  0.6636 -0.8753  0.1215
 6232TIP3    H240188   1.125   1.632  15.687 -0.4951 -0.2216  0.0349
 6233TIP3   OH240189   3.897   4.199   3.052  0.3143 -0.7242 -0.0399
 6233TIP3    H140190   3.948   4.273   3.020 -0.9938  0.0852 -0.3201
 6233TIP3    H240191   3.961   4.143   3.096  1.5182 -0.0146 -0.8359
 6234TIP3   OH240192   4.426   2.109  16.451 -0.6209 -0.5185 -0.2909
 6234TIP3    H140193   4.356   2.172  16.466 -1.0939 -1.2323  0.5459
 6234TIP3    H240194   4.383   2.036  16.405  0.2736  0.5021 -2.9323
 6235TIP3   OH240195   1.399   2.039   1.061  0.1168  0.1784 -0.1286
 6235TIP3    H140196   1.493   2.057   1.063 -0.0744  1.4117 -0.8465
 6235TIP3    H240197   1.392   1.953   1.020  0.8927  0.6150 -1.2466
 6236TIP3   OH240198   3.231   4.509   0.395  0.0262  0.1470  0.4275
 6236TIP3    H140199   3.142   4.539   0.413 -0.2402  0.8979 -1.8521
 6236TIP3    H240200   3.247   4.440   0.460 -2.3260 -0.2488  0.6640
 6237TIP3   OH240201   3.592   2.458  15.279 -0.6116  0.0757 -0.2164
 6237TIP3    H140202   3.678   2.491  15.251 -0.1328  0.0456  1.1289
 6237TIP3    H240203   3.606   2.364  15.290 -1.1825 -0.1399 -1.2195
 6238TIP3   OH240204   0.629   6.190  14.559 -0.3635  0.4197  0.0447
 6238TIP3    H140205   0.661   6.103  14.535  1.6577  1.6190 -2.0544
 6238TIP3    H240206   0.554   6.174  14.616  0.7458 -2.6722  0.8150
 6239TIP3   OH240207   4.039   1.577  13.012 -0.0026 -1.1023  0.0080
 6239TIP3    H140208   4.027   1.667  13.040 -0.7135 -1.6098  1.4575
 6239TIP3    H240209   4.097   1.583  12.936  0.1026  0.5482  0.1775
 6240TIP3   OH240210   0.299   6.464   0.272  0.0374 -0.4812  0.1938
 6240TIP3    H140211   0.256   6.417   0.200  0.5168 -1.4679  0.5272
 6240TIP3    H240212   0.274   6.415   0.351  0.8974 -0.4391  0.5039
 6241TIP3   OH240213   6.315   1.741   4.829  0.4485 -0.2395 -1.2404
 6241TIP3    H140214   6.407   1.719   4.846  0.8137  1.5166 -0.7468
 6241TIP3    H240215   6.272   1.731   4.913  0.1981 -0.9236 -1.4409
 6242TIP3   OH240216   2.438   4.144  11.123 -0.2693  0.3417 -0.2590
 6242TIP3    H140217   2.406   4.065  11.079 -2.3557  1.3172 -0.5929
 6242TIP3    H240218   2.448   4.118  11.215  1.0864 -0.8446 -0.7010
 6243TIP3   OH240219   0.430   0.968  13.825  0.1402 -0.5830 -0.4740
 6243TIP3    H140220   0.342   0.987  13.857 -0.1629 -2.2615 -0.2401
 6243TIP3    H240221   0.468   0.910  13.891  0.7838 -1.2634 -1.4174
 6244TIP3   OH240222   3.302   3.818  15.465 -0.7468 -0.3779  0.6563
 6244TIP3    H140223   3.235   3.750  15.453 -0.6464 -0.5097  0.8553
 6244TIP3    H240224   3.256   3.900  15.444 -1.9597 -0.0529  4.0369
 6245TIP3   OH240225   3.073   4.770   5.583  0.2360 -0.0586 -0.4173
 6245TIP3    H140226   3.131   4.826   5.531  0.8380 -1.3416 -1.1849
 6245TIP3    H240227   3.032   4.829   5.646  0.4483  1.3299 -1.5332
 6246TIP3   OH240228   5.924   0.118  12.209 -0.5348  0.0233 -0.2110
 6246TIP3    H140229   5.972   0.196  12.182 -1.2188  0.5349  0.0416
 6246TIP3    H240230   5.953   0.050  12.147 -0.3913  0.6211 -0.8080
 6247TIP3   OH240231   2.784   4.306   2.890  0.3370 -0.6821  0.7181
 6247TIP3    H140232   2.721   4.376   2.905  0.5623 -0.3233  0.0649
 6247TIP3    H240233   2.831   4.298   2.973  1.5040  1.1768  0.3078
 6248TIP3   OH240234   0.912   0.133   4.012 -0.1898 -0.7245  0.1830
 6248TIP3    H140235   0.963   0.068   3.966 -0.5570 -0.3975 -0.7184
 6248TIP3    H240236   0.826   0.092   4.025  0.0379 -0.9722  0.9691
 6249TIP3   OH240237   4.318   3.136   3.551  0.4190 -0.1729 -0.0467
 6249TIP3    H140238   4.388   3.145   3.615 -2.2928 -1.5350  3.4562
 6249TIP3    H240239   4.357   3.084   3.480  3.1217 -0.2361  1.3632
 6250TIP3   OH240240   4.284   2.109  14.290 -0.3526  0.2501  0.4618
 6250TIP3    H140241   4.233   2.051  14.234  0.4677  0.3685 -0.4280
 6250TIP3    H240242   4.220   2.144  14.353 -1.6782  1.4775 -1.4661
 6251TIP3   OH240243   5.655   3.119   2.556 -0.2104  0.4189  0.3512
 6251TIP3    H140244   5.613   3.070   2.484 -0.6794  0.4285  0.6173
 6251TIP3    H240245   5.584   3.167   2.597  0.0997  0.5954  0.6847
 6252TIP3   OH240246   3.806   5.869  11.734 -0.5032 -1.2319  0.3694
 6252TIP3    H140247   3.761   5.786  11.719  0.7098 -1.7703 -0.4567
 6252TIP3    H240248   3.838   5.895  11.647 -0.8029  0.0663  0.6302
 6253TIP3   OH240249   6.820   3.616  11.679 -0.1720 -0.1067 -0.2054
 6253TIP3    H140250   6.860   3.703  11.675 -2.1427  0.9008  0.6457
 6253TIP3    H240251   6.830   3.580  11.591  1.5646  0.5343 -0.2999
 6254TIP3   OH240252   4.795   4.704  14.191 -0.3317  0.3974  0.0976
 6254TIP3    H140253   4.830   4.784  14.230 -1.0977  0.0743  1.5140
 6254TIP3    H240254   4.815   4.712  14.097  0.5094  1.7537  0.3649
 6255TIP3   OH240255   5.103   3.371   1.556  0.2073  0.2173 -0.3547
 6255TIP3    H140256   5.070   3.450   1.512 -0.9952 -1.0901 -1.9648
 6255TIP3    H240257   5.150   3.324   1.487 -0.0214 -0.9782  0.2819
 6256TIP3   OH240258   1.666   2.242   2.119 -0.3441  0.3604 -0.8170
 6256TIP3    H140259   1.621   2.195   2.188 -0.4520  0.0322 -1.1085
 6256TIP3    H240260   1.656   2.335   2.142 -0.6308  0.2627 -0.5540
 6257TIP3   OH240261   5.515   2.350  15.430  0.3150  0.1970  0.3668
 6257TIP3    H140262   5.599   2.330  15.389  0.1047  0.7477 -0.3521
 6257TIP3    H240263   5.535   2.356  15.524  0.8466 -0.8344  0.3334
 6258TIP3   OH240264   0.786   6.027  16.671 -0.3955  0.3063  0.2610
 6258TIP3    H140265   0.768   6.111  16.629  0.9327  1.8980  2.6194
 6258TIP3    H240266   0.872   6.001  16.637  0.4122  1.3039  1.4249
 6259TIP3   OH240267   3.957   2.612   0.184 -0.0265 -0.4047 -0.0088
 6259TIP3    H140268   3.953   2.700   0.147 -1.8990 -0.6841 -0.5723
 6259TIP3    H240269   3.885   2.609   0.248  0.2274 -1.4015  0.2586
 6260TIP3   OH240270   3.052   4.203   1.446  0.0973  0.1515  0.1142
 6260TIP3    H140271   3.094   4.139   1.503  1.0419 -0.8475 -1.6217
 6260TIP3    H240272   3.122   4.235   1.390 -0.4573  2.3924  0.5902
 6261TIP3   OH240273   1.355   2.981  14.914 -0.0292 -0.2568  0.0010
 6261TIP3    H140274   1.415   2.942  14.851  0.8470  0.8783  0.0878
 6261TIP3    H240275   1.367   3.076  14.903  0.3391 -0.0170  2.0257
 6262TIP3   OH240276   2.390   5.550   1.440  0.6617 -0.1382  0.3241
 6262TIP3    H140277   2.305   5.546   1.395 -0.1905 -1.8972  1.9506
 6262TIP3    H240278   2.399   5.465   1.483  2.2532  0.7780  1.9661
 6263TIP3   OH240279   5.785   1.113  12.329  0.1617 -0.0923 -0.0020
 6263TIP3    H140280   5.747   1.063  12.257 -1.0244 -2.2170  1.9877
 6263TIP3    H240281   5.868   1.069  12.348  0.6318  0.6651 -0.2547
 6264TIP3   OH240282   1.209   3.695   2.446  0.4229  0.1104 -0.8659
 6264TIP3    H140283   1.193   3.728   2.534  0.3494 -1.8905 -0.0762
 6264TIP3    H240284   1.224   3.774   2.393 -2.5270  1.6034  0.2619
 6265TIP3   OH240285   3.363   5.152  11.163  0.3734 -0.0463 -0.1571
 6265TIP3    H140286   3.384   5.189  11.078 -0.7922 -1.2472 -1.0019
 6265TIP3    H240287   3.353   5.228  11.220  0.6249  0.7983 -1.2069
 6266TIP3   OH240288   6.380   5.702  10.735  0.3434  0.3819 -0.1349
 6266TIP3    H140289   6.318   5.636  10.705  1.6037 -0.9083  0.0471
 6266TIP3    H240290   6.330   5.754  10.799 -0.5733 -0.5946 -0.0283
 6267TIP3   OH240291   3.486   1.316   6.260  0.0865 -0.1711  0.2163
 6267TIP3    H140292   3.572   1.322   6.301 -0.2145  1.4473  0.7203
 6267TIP3    H240293   3.425   1.313   6.334 -0.3034 -1.3079 -0.1336
 6268TIP3   OH240294   6.002   4.705  12.517  0.7846 -0.3719  0.8505
 6268TIP3    H140295   6.057   4.643  12.469  1.5928  0.3576  0.8104
 6268TIP3    H240296   6.062   4.775  12.542 -0.0695  0.2789  1.1003
 6269TIP3   OH240297   4.397   1.456  11.456  0.0864  0.1952  0.7952
 6269TIP3    H140298   4.423   1.515  11.527  1.0640 -0.5492  1.0700
 6269TIP3    H240299   4.369   1.515  11.386 -2.0028  0.9526  2.1556
 6270TIP3   OH240300   0.071   0.394   3.145 -0.2214 -0.3368  0.1225
 6270TIP3    H140301   0.089   0.439   3.228  0.1316  0.0444 -0.1620
 6270TIP3    H240302  -0.001   0.443   3.106  0.7234  0.5282 -0.5953
 6271TIP3   OH240303   2.455   2.547  12.121  0.0889 -0.0730 -0.0475
 6271TIP3    H140304   2.474   2.540  12.028  0.5783 -0.3791  0.0720
 6271TIP3    H240305   2.465   2.640  12.141  2.1317 -0.2990  0.1413
 6272TIP3   OH240306   0.840   5.780   1.173  0.1703 -0.8836 -0.1151
 6272TIP3    H140307   0.808   5.733   1.096 -0.4395  1.5751 -1.4561
 6272TIP3    H240308   0.931   5.802   1.151 -0.1282  0.1725 -0.3286
 6273TIP3   OH240309   3.955   3.657   6.082 -0.2831  0.1370 -0.2807
 6273TIP3    H140310   3.888   3.706   6.129  1.0453  0.4433  1.4296
 6273TIP3    H240311   4.011   3.622   6.152  0.6794 -1.0441 -1.5988
 6274TIP3   OH240312   1.072   2.277  16.664  0.6918  0.2926 -0.6102
 6274TIP3    H140313   1.041   2.205  16.609  1.9001 -0.3202 -0.5282
 6274TIP3    H240314   0.999   2.296  16.722  0.6154 -1.4587 -0.0621
 6275TIP3   OH240315   6.502   6.367  13.407  0.1450 -0.9377  0.0541
 6275TIP3    H140316   6.490   6.460  13.426  1.5795 -0.8300  0.5101
 6275TIP3    H240317   6.441   6.323  13.466 -2.3187 -0.2517 -1.7973
 6276TIP3   OH240318   0.093   2.087  12.965 -0.1639  0.3627 -0.4816
 6276TIP3    H140319   0.120   2.171  12.929  0.0242  0.7317  0.4893
 6276TIP3    H240320   0.173   2.033  12.961 -0.0914  0.4663 -0.4250
 6277TIP3   OH240321   4.433   0.078   4.788 -0.2148  0.4595 -0.1842
 6277TIP3    H140322   4.459   0.072   4.696 -0.5297 -0.6619 -0.2117
 6277TIP3    H240323   4.375   0.154   4.791 -0.2826  0.4478 -0.9350
 6278TIP3   OH240324   5.515   3.795   3.645 -0.0716 -0.4859 -0.0098
 6278TIP3    H140325   5.573   3.869   3.663  0.0392 -0.4429 -0.5120
 6278TIP3    H240326   5.427   3.831   3.652 -0.0236 -0.3761  0.0381
 6279TIP3   OH240327   2.988   4.807   3.634 -0.6167 -0.2980  0.1536
 6279TIP3    H140328   3.004   4.811   3.728 -0.9453 -0.2141  0.2068
 6279TIP3    H240329   2.899   4.839   3.623  0.0411  1.4414 -0.3813
 6280TIP3   OH240330   3.145   4.618  12.707  0.5392  0.0879  0.4424
 6280TIP3    H140331   3.239   4.602  12.699  0.5894  0.8916 -0.8267
 6280TIP3    H240332   3.137   4.682  12.777  1.0175  0.6310  0.0107
 6281TIP3   OH240333   3.437   5.944   2.219 -0.0972  0.0130  0.4903
 6281TIP3    H140334   3.520   5.936   2.171 -0.4347 -0.8528  0.0206
 6281TIP3    H240335   3.438   5.870   2.280 -0.1471  0.4992  1.0944
 6282TIP3   OH240336   4.945   2.789   5.732 -0.3741  0.1000  0.2292
 6282TIP3    H140337   4.890   2.747   5.799 -2.8366 -0.3986 -1.9414
 6282TIP3    H240338   4.885   2.806   5.659  2.0385  1.1910 -1.6290
 6283TIP3   OH240339   6.764   5.631  12.571 -0.1167 -0.1000  0.2612
 6283TIP3    H140340   6.733   5.598  12.656  1.8645 -0.1966  1.0064
 6283TIP3    H240341   6.852   5.594  12.562 -0.0183  0.4878 -1.5158
 6284TIP3   OH240342   0.006   5.685   5.242 -0.4710 -0.4680 -0.4124
 6284TIP3    H140343  -0.009   5.736   5.163 -1.4369 -1.1553 -0.6897
 6284TIP3    H240344   0.095   5.650   5.232  0.1226  0.9432 -0.3197
 6285TIP3   OH240345   2.660   6.463   4.179  0.5198 -0.5316 -0.2057
 6285TIP3    H140346   2.687   6.441   4.268  1.2971  0.8889 -0.0712
 6285TIP3    H240347   2.609   6.544   4.189  2.1909  0.6978 -1.2234
 6286TIP3   OH240348   3.016   0.369  12.334 -0.1974 -0.1014  0.6627
 6286TIP3    H140349   3.025   0.394  12.426 -0.0532  2.1087  0.0898
 6286TIP3    H240350   2.922   0.355  12.322 -0.2759  0.1110  1.0229
 6287TIP3   OH240351   1.116   4.341   1.883 -0.5173 -0.3438 -0.2967
 6287TIP3    H140352   1.112   4.246   1.885 -2.2849 -0.3302 -1.1087
 6287TIP3    H240353   1.166   4.362   1.804  1.6915 -0.5618  0.9775
 6288TIP3   OH240354   4.501   6.283   1.507 -0.0796  0.2051  0.3768
 6288TIP3    H140355   4.408   6.266   1.520 -0.0681  0.3055  0.5844
 6288TIP3    H240356   4.517   6.367   1.548 -0.0441  0.5334 -0.2916
 6289TIP3   OH240357   1.844   0.238   4.665  0.1031 -0.0233 -0.0239
 6289TIP3    H140358   1.806   0.310   4.613 -0.8085 -1.7901 -1.9537
 6289TIP3    H240359   1.938   0.243   4.647 -0.0649  0.1047 -0.9362
 6290TIP3   OH240360   4.405   6.097   6.264 -0.0084 -0.6484 -0.1762
 6290TIP3    H140361   4.441   6.169   6.212  0.1894 -1.8130 -1.7370
 6290TIP3    H240362   4.316   6.125   6.286 -0.2087 -0.2378 -1.4312
 6291TIP3   OH240363   6.407   1.875   4.599  0.0389  0.0014  0.3707
 6291TIP3    H140364   6.385   1.850   4.689 -0.7005  0.4410  0.3230
 6291TIP3    H240365   6.325   1.908   4.563  0.8180  2.0215  0.2849
 6292TIP3   OH240366   0.272   6.234  14.122 -0.5452 -0.3293 -0.5113
 6292TIP3    H140367   0.347   6.211  14.067  1.8962  1.9646  1.5641
 6292TIP3    H240368   0.237   6.314  14.083 -0.1032  0.1565  0.0682
 6293TIP3   OH240369   2.944   4.024  13.136  0.0189 -0.6984 -0.6494
 6293TIP3    H140370   3.036   4.026  13.107  0.1204 -0.7085 -0.3379
 6293TIP3    H240371   2.894   4.057  13.061  0.4055  0.6553 -0.3460
 6294TIP3   OH240372   4.796   4.001  11.597  0.1917  0.2647 -0.3847
 6294TIP3    H140373   4.891   4.008  11.587  0.2748  0.7923  0.6724
 6294TIP3    H240374   4.772   4.074  11.653 -0.6714 -0.5514  0.3485
 6295TIP3   OH240375   4.154   0.660   4.356  0.5305  0.0759  0.4829
 6295TIP3    H140376   4.085   0.594   4.359  0.1663  0.1066 -2.9115
 6295TIP3    H240377   4.114   0.738   4.395 -0.8040 -0.3677  0.0756
 6296TIP3   OH240378   1.441   6.378   1.686  0.0765 -0.2124  0.2449
 6296TIP3    H140379   1.507   6.444   1.706 -0.6490  0.4637  0.4507
 6296TIP3    H240380   1.446   6.316   1.758  0.8768 -0.4812 -0.0347
 6297TIP3   OH240381   5.870   6.358  12.504  0.1141 -0.2013 -0.0332
 6297TIP3    H140382   5.951   6.345  12.455  0.5267 -3.7059  1.3545
 6297TIP3    H240383   5.898   6.376  12.594 -0.6167 -1.1341  0.3993
 6298TIP3   OH240384   3.497   1.259  11.769  0.2708  0.0385 -0.2428
 6298TIP3    H140385   3.567   1.294  11.825 -0.2185  1.1014 -0.2818
 6298TIP3    H240386   3.441   1.334  11.751 -0.4206 -0.6281 -0.9123
 6299TIP3   OH240387   0.059   1.225  14.028 -0.1801 -0.1802 -0.0057
 6299TIP3    H140388   0.040   1.269  13.945 -0.0240 -0.1563 -0.0275
 6299TIP3    H240389  -0.022   1.178  14.049 -0.3055  0.0236 -0.0389
 6300TIP3   OH240390   2.733   6.025  13.106  0.1389 -0.6655  0.6875
 6300TIP3    H140391   2.737   5.946  13.051 -0.1393 -1.2340  1.4544
 6300TIP3    H240392   2.642   6.027  13.137  0.6514 -1.2230  2.3321
 6301TIP3   OH240393   4.366   0.335   0.156 -0.1161  0.6765  0.0562
 6301TIP3    H140394   4.449   0.295   0.131  0.0798  0.5691  0.8460
 6301TIP3    H240395   4.314   0.262   0.190 -0.2293  0.8800  0.3231
 6302TIP3   OH240396   6.017   0.462   5.421  0.0425  0.3041 -0.4010
 6302TIP3    H140397   5.930   0.422   5.430 -0.5061  1.5867  0.2467
 6302TIP3    H240398   6.055   0.456   5.509  0.5640 -0.1292 -0.6510
 6303TIP3   OH240399   2.772   4.023   4.832  0.0437  0.1838 -0.3947
 6303TIP3    H140400   2.717   4.051   4.905  1.4639  1.6022  0.1665
 6303TIP3    H240401   2.712   4.018   4.757 -1.4529 -1.3574  0.8155
 6304TIP3   OH240402   6.837   1.838  15.034 -0.1326 -0.2332 -0.1808
 6304TIP3    H140403   6.867   1.822  14.945 -1.8368  0.4112 -0.9213
 6304TIP3    H240404   6.907   1.888  15.075  0.3354  0.1480 -1.4184
 6305TIP3   OH240405   0.567   5.071   0.240 -0.4524 -0.4163  0.3270
 6305TIP3    H140406   0.623   5.034   0.172 -0.3290 -0.8392  0.6483
 6305TIP3    H240407   0.480   5.035   0.221 -0.5163 -0.1553  0.1183
 6306TIP3   OH240408   0.230   1.908  11.691  0.1633 -0.1774 -0.2751
 6306TIP3    H140409   0.175   1.865  11.756  0.6539 -2.4238 -1.2805
 6306TIP3    H240410   0.179   1.905  11.611  2.0587 -3.3987 -1.5393
 6307TIP3   OH240411   3.084   3.718   3.049 -0.8640 -0.3613 -0.0894
 6307TIP3    H140412   3.109   3.688   3.136 -0.9720  1.1191  0.4868
 6307TIP3    H240413   3.011   3.662   3.024 -0.7130 -0.9202  0.6831
 6308TIP3   OH240414   3.568   4.070   1.748  0.1980 -0.1434  0.4781
 6308TIP3    H140415   3.605   4.025   1.671 -0.3268 -0.1438  0.2234
 6308TIP3    H240416   3.624   4.147   1.760  0.3512 -0.2026  0.1644
 6309TIP3   OH240417   5.604   4.591  12.951  0.2290 -0.0477 -0.2139
 6309TIP3    H140418   5.523   4.642  12.961  1.1022  1.0891  1.6186
 6309TIP3    H240419   5.597   4.552  12.864 -1.9522  0.6035 -0.3965
 6310TIP3   OH240420   3.268   4.645  14.447  0.2507  0.1578 -0.6567
 6310TIP3    H140421   3.260   4.644  14.543 -0.5491 -3.7371 -0.6049
 6310TIP3    H240422   3.362   4.645  14.430  0.4236 -0.7936  0.2168
 6311TIP3   OH240423   3.639   4.247   3.111  0.0091  0.5252 -0.0241
 6311TIP3    H140424   3.719   4.196   3.117 -0.2862  0.1898  1.6658
 6311TIP3    H240425   3.645   4.292   3.027  0.7162 -1.5445 -1.1600
 6312TIP3   OH240426   0.618   4.473   5.771  0.4118 -0.5074  0.5493
 6312TIP3    H140427   0.551   4.424   5.818 -0.2798  0.6933  0.8741
 6312TIP3    H240428   0.615   4.561   5.810  0.9211  0.0799 -0.6685
 6313TIP3   OH240429   2.100   1.881   2.178  0.3257  0.0255 -0.0944
 6313TIP3    H140430   2.053   1.911   2.099  1.1507  4.3092  0.7669
 6313TIP3    H240431   2.031   1.874   2.245 -0.0086 -0.8934 -0.5249
 6314TIP3   OH240432   3.636   1.607   1.617 -0.0471 -0.2240  0.1069
 6314TIP3    H140433   3.669   1.546   1.551  1.2363 -2.7315  2.8573
 6314TIP3    H240434   3.703   1.608   1.685 -1.3443  2.1409  1.4905
 6315TIP3   OH240435   4.255   5.600  14.387  0.0645  0.3160  0.1554
 6315TIP3    H140436   4.227   5.675  14.440 -1.1399 -1.3367  1.9842
 6315TIP3    H240437   4.228   5.622  14.298 -1.8370  1.3451  0.9262
 6316TIP3   OH240438   5.667   5.852   5.172  0.0314 -0.4528  0.1276
 6316TIP3    H140439   5.651   5.946   5.181  0.5366 -0.2951 -0.5550
 6316TIP3    H240440   5.602   5.822   5.108 -0.4934 -0.6826  0.7545
 6317TIP3   OH240441   4.139   0.688   2.441  0.2188 -0.1218  0.1065
 6317TIP3    H140442   4.224   0.725   2.464  0.2605 -0.2277  0.1216
 6317TIP3    H240443   4.128   0.710   2.349 -0.4339  1.2725  0.4798
 6318TIP3   OH240444   1.460   1.145  13.037  0.5889 -0.1818 -0.1749
 6318TIP3    H140445   1.492   1.163  12.948  1.7645  1.5326  0.5348
 6318TIP3    H240446   1.374   1.187  13.040  1.2699  1.3014 -0.0369
 6319TIP3   OH240447   5.512   3.170  13.025  0.1924  0.2750  0.5212
 6319TIP3    H140448   5.575   3.193  13.093 -0.9524 -1.3877  2.2363
 6319TIP3    H240449   5.537   3.224  12.950  2.1914  1.3586  1.8798
 6320TIP3   OH240450   1.214   5.516  14.955  0.0866 -0.1423 -0.0553
 6320TIP3    H140451   1.242   5.425  14.962 -2.0312 -0.8426 -0.2095
 6320TIP3    H240452   1.263   5.550  14.880  0.2977 -1.3929 -0.5077
 6321TIP3   OH240453   6.269   6.171   4.933  0.3551  0.1478 -0.2999
 6321TIP3    H140454   6.289   6.263   4.914  0.3742 -0.0573 -1.3494
 6321TIP3    H240455   6.334   6.122   4.884 -1.9266 -0.5123 -2.9181
 6322TIP3   OH240456   5.980   1.810  13.795 -0.2452  0.4977  0.0182
 6322TIP3    H140457   5.976   1.764  13.879 -2.5159  0.8652  0.1554
 6322TIP3    H240458   6.001   1.901  13.818 -0.8366  0.5921  0.1902
 6323TIP3   OH240459   1.862   1.139   4.361 -0.1965 -0.4144 -0.6219
 6323TIP3    H140460   1.795   1.114   4.424  0.3137 -0.9410 -0.2820
 6323TIP3    H240461   1.878   1.232   4.378  1.4860 -1.0079  1.5278
 6324TIP3   OH240462   0.443   2.467   2.123  0.0912  0.3409 -0.2365
 6324TIP3    H140463   0.519   2.452   2.066 -0.8730  0.1588 -1.5289
 6324TIP3    H240464   0.436   2.562   2.129  0.8099  0.3575  0.4422
 6325TIP3   OH240465   2.775   0.960   4.455 -0.0707  0.0569  1.2623
 6325TIP3    H140466   2.745   1.051   4.454 -0.9554 -0.2051 -0.4426
 6325TIP3    H240467   2.796   0.941   4.364  1.1998 -1.1206  1.7660
 6326TIP3   OH240468   3.510   4.420  14.589  0.2476 -0.5884 -0.0312
 6326TIP3    H140469   3.531   4.474  14.665  0.4303 -0.7881  0.0626
 6326TIP3    H240470   3.516   4.480  14.514  2.4796 -0.8878 -0.1664
 6327TIP3   OH240471   0.397   6.624  11.790 -0.3332  0.1486 -0.4588
 6327TIP3    H140472   0.464   6.684  11.821 -0.6836 -0.1832  1.0311
 6327TIP3    H240473   0.446   6.555  11.745  0.0810  1.4051 -2.0318
 6328TIP3   OH240474   3.498   3.327  12.841 -0.1097 -0.4855 -0.3459
 6328TIP3    H140475   3.546   3.409  12.836  0.6054 -0.6710  2.1628
 6328TIP3    H240476   3.408   3.353  12.862 -0.6656 -0.2647 -2.6831
 6329TIP3   OH240477   0.051   2.073   2.239 -0.4250  0.1458  0.0506
 6329TIP3    H140478   0.046   2.129   2.162 -1.8636  1.3972  0.9874
 6329TIP3    H240479   0.145   2.064   2.256 -0.0976  3.2747  0.5046
 6330TIP3   OH240480   6.051   4.554   0.501  0.1165  0.2171  0.5945
 6330TIP3    H140481   5.992   4.483   0.526  2.0941 -1.0709  1.9292
 6330TIP3    H240482   6.082   4.530   0.414 -1.2983  0.9390 -0.1473
 6331TIP3   OH240483   5.708   3.625  12.798 -0.0226  0.2904 -0.4031
 6331TIP3    H140484   5.781   3.579  12.840 -1.5808  0.1534  2.3743
 6331TIP3    H240485   5.691   3.575  12.718  1.1437 -1.2965  0.2935
 6332TIP3   OH240486   6.059   2.060  16.403  0.0673 -0.2640 -0.0033
 6332TIP3    H140487   6.114   1.984  16.423  0.3420  0.4552  2.2500
 6332TIP3    H240488   5.984   2.024  16.355  1.1339 -1.6444 -0.6936
 6333TIP3   OH240489   0.752   0.495  13.867  0.1042  0.1085 -0.4787
 6333TIP3    H140490   0.759   0.423  13.805  1.6230  0.7299 -1.0754
 6333TIP3    H240491   0.790   0.461  13.948  1.5618  0.4474 -0.9866
 6334TIP3   OH240492   0.085   5.546  16.118  0.1933 -0.6997 -0.2828
 6334TIP3    H140493   0.179   5.563  16.105  0.2052  0.4123  0.9529
 6334TIP3    H240494   0.083   5.474  16.180  0.2318 -0.9436 -0.5652
 6335TIP3   OH240495   1.867   2.461   6.318 -0.1691  0.6116 -0.2915
 6335TIP3    H140496   1.944   2.514   6.337  0.0821  0.1074  0.1454
 6335TIP3    H240497   1.892   2.410   6.240 -0.4043  1.1196 -0.7005
 6336TIP3   OH240498   0.938   4.788  14.724  0.2349  0.8578  0.5618
 6336TIP3    H140499   1.009   4.849  14.703  0.6584  0.3498  0.5038
 6336TIP3    H240500   0.860   4.829  14.686  0.3662  1.7598  1.2200
 6337TIP3   OH240501   4.613   0.135  10.719 -0.4403  0.6781  0.3831
 6337TIP3    H140502   4.617   0.114  10.812 -0.3165  0.1938  0.2715
 6337TIP3    H240503   4.603   0.231  10.716 -0.4508  0.6945  0.8897
 6338TIP3   OH240504   0.715   3.698   0.925 -0.3615 -0.0872  0.2561
 6338TIP3    H140505   0.660   3.626   0.955 -2.8011  1.5978  0.1127
 6338TIP3    H240506   0.785   3.656   0.875 -1.0443 -2.3917  1.1180
 6339TIP3   OH240507   1.570   2.431   5.007  0.1942 -0.4903  0.2736
 6339TIP3    H140508   1.642   2.415   4.945 -0.2050  0.8461 -0.5649
 6339TIP3    H240509   1.591   2.515   5.047 -1.3539  0.4043 -0.6912
 6340TIP3   OH240510   5.734   6.811  14.930 -0.4488  0.2487  1.0388
 6340TIP3    H140511   5.726   6.813  15.026 -0.1589 -0.0514  1.0708
 6340TIP3    H240512   5.792   6.884  14.909  0.5141 -0.4504  1.2032
 6341TIP3   OH240513   0.543   4.563  11.547  0.2695 -0.6530  0.3177
 6341TIP3    H140514   0.617   4.586  11.604  0.1839 -2.3440  1.2085
 6341TIP3    H240515   0.584   4.522  11.471  0.3119 -0.4764  0.2469
 6342TIP3   OH240516   0.097   3.280  16.613 -0.7226 -0.0364  0.6948
 6342TIP3    H140517   0.023   3.240  16.568  0.3833 -1.3048 -0.0623
 6342TIP3    H240518   0.130   3.213  16.672  0.9567 -0.2089 -0.3431
 6343TIP3   OH240519   6.430   0.259   2.898  0.1988 -0.3283 -0.5089
 6343TIP3    H140520   6.500   0.200   2.925  0.0004 -0.7908 -0.9973
 6343TIP3    H240521   6.391   0.218   2.821  0.0223  0.4142 -0.8271
 6344TIP3   OH240522   3.182   3.634   4.335 -0.0899  0.2190 -0.5863
 6344TIP3    H140523   3.134   3.696   4.280 -1.1957  1.4962  1.6435
 6344TIP3    H240524   3.118   3.566   4.356 -0.2328  0.6628  0.4754
 6345TIP3   OH240525   2.632   2.255  12.172 -0.2291  0.1393 -0.2825
 6345TIP3    H140526   2.712   2.212  12.141 -0.8893 -0.1036 -1.7366
 6345TIP3    H240527   2.656   2.348  12.175  0.8082 -0.1266  1.6445
 6346TIP3   OH240528   1.598   1.845   1.314  0.1950 -0.4753 -0.8919
 6346TIP3    H140529   1.615   1.908   1.244  0.1723 -0.7987 -1.1981
 6346TIP3    H240530   1.602   1.895   1.395 -1.4278  0.2362 -1.2139
 6347TIP3   OH240531   3.508   0.578   1.069 -0.2475  0.0853 -0.1252
 6347TIP3    H140532   3.575   0.544   1.010 -0.0318 -1.3953  0.9227
 6347TIP3    H240533   3.509   0.673   1.053  1.9782  0.1057 -0.2696
 6348TIP3   OH240534   5.088   6.091  14.505  0.0386  0.4419 -0.5615
 6348TIP3    H140535   5.052   6.101  14.417  0.3167  0.5186 -0.6684
 6348TIP3    H240536   5.175   6.054  14.491 -0.0556  0.1249 -0.2971
 6349TIP3   OH240537   2.285   3.096   4.551 -0.9547 -0.3047  0.5290
 6349TIP3    H140538   2.296   3.123   4.642 -0.9936 -0.3329  0.5423
 6349TIP3    H240539   2.374   3.085   4.518 -0.9100  0.8554  0.2158
 6350TIP3   OH240540   5.156   4.644   0.828  0.1854 -0.2489 -0.2211
 6350TIP3    H140541   5.091   4.603   0.884  0.1451 -0.4187 -0.3905
 6350TIP3    H240542   5.131   4.619   0.739 -0.7842  1.4446 -0.4700
 6351TIP3   OH240543   4.052   0.019  15.335  0.2612 -0.1919  0.0090
 6351TIP3    H140544   4.042   0.060  15.422 -0.5482 -1.0942  0.3568
 6351TIP3    H240545   4.039  -0.074  15.351  2.2603 -0.6528 -0.7459
 6352TIP3   OH240546   2.107   2.203   0.858 -0.7508  0.5397 -0.1294
 6352TIP3    H140547   2.107   2.182   0.765 -2.0328 -0.1194 -0.0101
 6352TIP3    H240548   2.198   2.226   0.878 -0.2899 -0.1152 -1.3599
 6353TIP3   OH240549   2.320   0.618  11.652  0.4448 -0.4345 -0.0699
 6353TIP3    H140550   2.373   0.693  11.681 -0.0017 -0.0715 -0.1809
 6353TIP3    H240551   2.242   0.621  11.707 -1.1029  1.1232 -2.1798
 6354TIP3   OH240552   4.126   1.709   3.347  0.3815  0.0532  0.2738
 6354TIP3    H140553   4.098   1.797   3.321  1.2272  0.4348  0.6268
 6354TIP3    H240554   4.047   1.655   3.337  0.1465  0.5900 -1.0994
 6355TIP3   OH240555   3.966   3.258  16.234  0.1158 -0.2558 -0.3518
 6355TIP3    H140556   3.961   3.225  16.324 -0.1972 -0.8384 -0.5726
 6355TIP3    H240557   4.003   3.345  16.242  1.1031 -0.7173  0.2496
 6356TIP3   OH240558   4.014   0.918   0.764 -0.0557 -0.0052 -0.4374
 6356TIP3    H140559   3.951   0.864   0.717  0.9347 -0.9695 -0.7004
 6356TIP3    H240560   4.038   0.866   0.841 -1.4887  1.4584  1.0736
 6357TIP3   OH240561   4.020   5.601  16.208  0.2319 -0.3207  0.2294
 6357TIP3    H140562   4.051   5.591  16.298  1.7560 -0.3363 -0.2644
 6357TIP3    H240563   3.975   5.686  16.207  2.7621  1.1190  0.3878
 6358TIP3   OH240564   0.689   1.713   3.099 -0.9588 -0.0650 -0.1276
 6358TIP3    H140565   0.624   1.737   3.165 -0.7051  0.4620 -0.0688
 6358TIP3    H240566   0.637   1.696   3.021 -1.1805  0.2799 -0.0600
 6359TIP3   OH240567   5.726   1.326   5.664  0.2569  0.4017  0.0393
 6359TIP3    H140568   5.787   1.341   5.592 -0.0599  2.2372  0.1044
 6359TIP3    H240569   5.780   1.337   5.743  0.7927 -2.4018  0.1709
 6360TIP3   OH240570   3.581   4.097  16.005  0.2918  0.1183  0.1018
 6360TIP3    H140571   3.510   4.032  16.001  0.2809  0.0351  1.2893
 6360TIP3    H240572   3.626   4.078  16.087  2.6581 -0.7945 -1.3078
 6361TIP3   OH240573   2.815   2.109   0.915  0.1553  0.0312 -0.8625
 6361TIP3    H140574   2.856   2.139   0.997  0.3486  0.6149 -1.1665
 6361TIP3    H240575   2.883   2.058   0.871 -0.0508 -0.5508 -0.5200
 6362TIP3   OH240576   4.926   3.495   0.645 -1.2732 -0.2957  0.0120
 6362TIP3    H140577   4.875   3.538   0.576 -0.8485 -0.6538 -0.5247
 6362TIP3    H240578   4.973   3.567   0.687 -1.2964 -0.1134 -0.2672
 6363TIP3   OH240579   4.724   6.041  14.100 -0.5337 -0.0205  0.1214
 6363TIP3    H140580   4.686   5.960  14.066  1.3001 -0.6348 -0.6005
 6363TIP3    H240581   4.810   6.046  14.059  0.0747  1.4224  1.4700
 6364TIP3   OH240582   2.269   4.391  12.983 -0.0815  0.5270  0.2593
 6364TIP3    H140583   2.306   4.325  13.042 -0.0638 -0.0585 -0.3951
 6364TIP3    H240584   2.302   4.367  12.896 -1.2583  0.5249 -0.2016
 6365TIP3   OH240585   0.774   6.391  13.137  0.6615 -0.0885 -0.1549
 6365TIP3    H140586   0.701   6.410  13.195 -0.6782 -1.9202 -1.1293
 6365TIP3    H240587   0.847   6.370  13.195 -0.1722 -0.2505  0.8543
 6366TIP3   OH240588   6.259   1.546   6.471 -0.2199 -0.1419  0.1671
 6366TIP3    H140589   6.317   1.494   6.528 -0.3566  0.6168  1.0291
 6366TIP3    H240590   6.176   1.547   6.518  0.1201  1.8558  0.7939
 6367TIP3   OH240591   5.946   6.150   5.011  0.3614  0.2349 -0.0576
 6367TIP3    H140592   6.000   6.088   5.060  0.8534 -0.3169 -1.2486
 6367TIP3    H240593   5.885   6.095   4.962  1.0814  0.6223 -1.4530
 6368TIP3   OH240594   2.017   1.816   2.579 -0.3976  0.2185 -0.0586
 6368TIP3    H140595   1.991   1.756   2.508 -2.0584 -0.4626  1.0706
 6368TIP3    H240596   1.971   1.783   2.656  2.3329  0.1850  1.6788
 6369TIP3   OH240597   1.072   5.689  16.474 -0.5140  0.5604 -0.7187
 6369TIP3    H140598   1.001   5.662  16.532 -0.1440 -0.0697 -0.5457
 6369TIP3    H240599   1.057   5.783  16.459  0.1614  1.1024  1.5340
 6370TIP3   OH240600   3.993   4.225  16.707  0.1887  0.3398  0.5528
 6370TIP3    H140601   3.988   4.212  16.612  2.1750 -2.1020  0.6756
 6370TIP3    H240602   3.903   4.214  16.737 -0.2872 -0.1299 -0.9409
 6371TIP3   OH240603   6.508   3.226   1.605 -0.0388 -0.0919 -0.0702
 6371TIP3    H140604   6.451   3.156   1.637  0.4918  0.0376  1.1998
 6371TIP3    H240605   6.452   3.304   1.601 -1.0431 -0.8191 -2.9220
 6372TIP3   OH240606   3.496   1.946  15.062  0.3829 -0.2012  0.2420
 6372TIP3    H140607   3.511   2.040  15.054 -0.3824 -0.0282  0.7339
 6372TIP3    H240608   3.582   1.907  15.047  0.2623  0.3823 -2.6372
 6373TIP3   OH240609   3.387   1.624  15.761  0.1398 -0.4364 -0.0746
 6373TIP3    H140610   3.469   1.659  15.794  0.8181 -1.3628 -0.7354
 6373TIP3    H240611   3.374   1.670  15.677  0.9563 -1.6204 -0.8722
 6374TIP3   OH240612   5.918   3.427  16.753 -0.4298  0.6474  0.2876
 6374TIP3    H140613   5.926   3.503  16.812 -0.5302 -0.2634  1.5102
 6374TIP3    H240614   5.859   3.368  16.798  3.0161 -2.1639  1.6233
 6375TIP3   OH240615   6.801   1.374  14.252  0.1686  0.2308 -0.6099
 6375TIP3    H140616   6.804   1.467  14.276 -2.3457  0.0604  0.6156
 6375TIP3    H240617   6.759   1.373  14.166  0.0383  0.2133 -0.5458
 6376TIP3   OH240618   5.115   4.363   2.066  0.2543 -0.1219 -0.1344
 6376TIP3    H140619   5.023   4.379   2.045  0.2047 -0.0817  0.1104
 6376TIP3    H240620   5.163   4.427   2.014  0.3339 -1.8560 -2.3674
 6377TIP3   OH240621   2.632   1.810   4.537 -0.1275  0.4400  0.2750
 6377TIP3    H140622   2.605   1.773   4.621 -0.9593  0.1352 -0.1211
 6377TIP3    H240623   2.710   1.861   4.558  0.5729 -0.8513  0.9873
 6378TIP3   OH240624   0.456   3.395   0.349  0.5377  0.5468  0.2427
 6378TIP3    H140625   0.528   3.341   0.380 -0.4659 -1.0880 -0.1209
 6378TIP3    H240626   0.420   3.436   0.428  1.4783  0.8989  0.4920
 6379TIP3   OH240627   0.084   6.609   4.978  0.4495  0.3751 -0.1584
 6379TIP3    H140628   0.115   6.693   4.945  1.9751 -0.8706 -2.1695
 6379TIP3    H240629   0.096   6.548   4.904 -0.9979 -1.5281  1.0622
 6380TIP3   OH240630   4.065   4.166  13.686  0.2679  0.0582 -0.0987
 6380TIP3    H140631   4.073   4.191  13.594  0.4005  0.2313 -0.0412
 6380TIP3    H240632   4.092   4.244  13.735 -2.2468  0.8738  0.1336
 6381TIP3   OH240633   0.550   2.071   3.793  0.2689 -0.6869 -0.4644
 6381TIP3    H140634   0.622   2.103   3.739  0.7141  0.1802  0.6123
 6381TIP3    H240635   0.471   2.093   3.743  0.7354 -2.4700 -2.0899
 6382TIP3   OH240636   0.179   0.953   4.583  0.1286  0.1292 -0.0980
 6382TIP3    H140637   0.236   1.030   4.585 -0.1949  0.3720  1.6233
 6382TIP3    H240638   0.092   0.987   4.606 -0.4966 -0.4096 -1.5797
 6383TIP3   OH240639   1.070   0.918  13.831  0.2012 -0.0938  0.0777
 6383TIP3    H140640   0.985   0.908  13.874  1.1527  0.4946  2.2571
 6383TIP3    H240641   1.128   0.858  13.877  1.3230  0.6759 -0.2748
 6384TIP3   OH240642   4.230   5.759   4.168  0.3513 -0.5302 -0.1566
 6384TIP3    H140643   4.221   5.731   4.077 -1.8197 -0.6578  0.0425
 6384TIP3    H240644   4.202   5.851   4.168  0.7716 -0.3950  0.3150
 6385TIP3   OH240645   1.030   3.730   1.694 -0.1239  0.1870 -0.3898
 6385TIP3    H140646   1.087   3.740   1.771  0.7220 -0.9742 -0.8479
 6385TIP3    H240647   0.973   3.656   1.715  1.5123 -1.5266 -1.6624
 6386TIP3   OH240648   0.167   5.743  12.843  0.3889  0.7138  0.0857
 6386TIP3    H140649   0.162   5.825  12.794  0.6713  0.4101 -0.4549
 6386TIP3    H240650   0.174   5.675  12.776 -0.9127  0.1511  0.4754
 6387TIP3   OH240651   1.477   4.686  14.195  0.3724 -0.3890 -1.0779
 6387TIP3    H140652   1.558   4.674  14.245  0.3964  0.5584 -0.8702
 6387TIP3    H240653   1.409   4.646  14.249  0.7223 -1.3383 -1.3331
 6388TIP3   OH240654   0.154   2.484   0.516  0.2744  0.2948  0.3645
 6388TIP3    H140655   0.089   2.535   0.467  0.0311 -0.0412  0.3384
 6388TIP3    H240656   0.152   2.521   0.604 -0.2733 -0.0065  0.4820
 6389TIP3   OH240657   0.618   5.377   5.391 -0.4968 -0.0446  0.0421
 6389TIP3    H140658   0.638   5.408   5.302 -1.4226 -2.2579 -1.0322
 6389TIP3    H240659   0.523   5.387   5.399 -0.7707 -1.9555 -0.1860
 6390TIP3   OH240660   0.509   3.914  11.770 -0.3355 -0.5881 -0.1153
 6390TIP3    H140661   0.527   3.962  11.689 -1.1370 -1.0803 -0.5908
 6390TIP3    H240662   0.555   3.965  11.837  0.7340 -0.4352 -0.9275
 6391TIP3   OH240663   4.236   2.660  13.830  0.0321  0.8014  0.0121
 6391TIP3    H140664   4.235   2.687  13.922  0.7767 -2.2849  1.0577
 6391TIP3    H240665   4.299   2.719  13.788 -0.9297  2.7919  1.2472
 6392TIP3   OH240666   1.287   0.977  16.254 -0.8498  0.3935 -0.4190
 6392TIP3    H140667   1.245   0.905  16.206  1.9457 -1.8358  0.2267
 6392TIP3    H240668   1.357   1.007  16.196  0.9027 -0.5860  1.0649
 6393TIP3   OH240669   5.623   0.533  11.779  0.2226 -0.3844 -0.3976
 6393TIP3    H140670   5.603   0.557  11.688 -0.8627 -0.1603 -0.1138
 6393TIP3    H240671   5.709   0.491  11.774 -0.2893 -1.3523 -1.6847
 6394TIP3   OH240672   1.890   1.117  15.502  0.1872  0.1872  0.1697
 6394TIP3    H140673   1.931   1.154  15.423 -0.3975 -0.7897 -0.6194
 6394TIP3    H240674   1.961   1.071  15.546  0.6022  1.0473  0.4300
 6395TIP3   OH240675   2.877   0.657   3.752  0.0977  0.3199  0.7096
 6395TIP3    H140676   2.921   0.739   3.776  0.6763 -0.3485  2.0524
 6395TIP3    H240677   2.847   0.671   3.663  1.1497  1.5975  0.5269
 6396TIP3   OH240678   2.717   0.441  15.560  0.1866 -0.0234  0.0411
 6396TIP3    H140679   2.643   0.501  15.570 -2.3332 -2.6748 -1.2002
 6396TIP3    H240680   2.737   0.443  15.466  0.0856 -1.0236 -0.0150
 6397TIP3   OH240681   0.345   6.080   0.378 -0.0315  0.2829  0.3808
 6397TIP3    H140682   0.350   6.058   0.285  1.0682 -1.5023  0.8219
 6397TIP3    H240683   0.351   5.996   0.423  1.7727  1.2644  2.1386
 6398TIP3   OH240684   2.800   5.824  14.258 -0.4870  0.1501 -0.1405
 6398TIP3    H140685   2.757   5.875  14.327 -1.2676 -0.4268 -0.1760
 6398TIP3    H240686   2.844   5.888  14.203 -1.4893  0.7905 -0.2140
 6399TIP3   OH240687   0.422   3.839  13.422 -0.3381 -0.3888  0.0155
 6399TIP3    H140688   0.518   3.840  13.420 -0.3549 -0.0126 -0.6546
 6399TIP3    H240689   0.400   3.750  13.451  0.2119 -0.4583  0.2347
 6400TIP3   OH240690   1.399   4.611   0.110 -0.1872 -0.1680  0.4028
 6400TIP3    H140691   1.465   4.549   0.078 -1.3787 -0.5856 -1.3382
 6400TIP3    H240692   1.338   4.558   0.160 -0.0634 -0.0335  0.7014
 6401TIP3   OH240693   2.397   5.062   6.300  0.3463 -0.0024 -0.0141
 6401TIP3    H140694   2.378   4.978   6.343 -0.5198 -0.1572 -0.6552
 6401TIP3    H240695   2.326   5.120   6.327  0.4158  0.2344 -0.3230
 6402TIP3   OH240696   6.229   0.733   0.005 -0.1472 -0.0378 -0.6616
 6402TIP3    H140697   6.218   0.819  -0.035 -0.2002  0.3310  0.1343
 6402TIP3    H240698   6.140   0.701   0.020 -0.1295 -0.3868 -1.2762
 6403TIP3   OH240699   5.355   0.090  14.584 -0.5017 -0.0762 -0.6763
 6403TIP3    H140700   5.263   0.112  14.568 -0.8673 -0.6473  0.5161
 6403TIP3    H240701   5.352   0.012  14.640  0.7181 -0.5052 -1.1716
 6404TIP3   OH240702   3.619   5.751  15.352  0.0582  0.7313  0.2091
 6404TIP3    H140703   3.571   5.832  15.372  1.9709  1.9795  0.0549
 6404TIP3    H240704   3.711   5.777  15.355  0.7661 -1.5745  0.6118
 6405TIP3   OH240705   0.575   2.530  14.948 -0.1388  0.2207  0.0277
 6405TIP3    H140706   0.612   2.448  14.917 -1.5829 -0.4317 -0.0859
 6405TIP3    H240707   0.642   2.567  15.006  1.4724  0.1056 -1.6804
 6406TIP3   OH240708   1.298   3.245   2.831  0.4792  0.3547  0.5827
 6406TIP3    H140709   1.331   3.278   2.748 -1.5992 -0.4713 -0.6469
 6406TIP3    H240710   1.376   3.213   2.877  1.6098  0.3644 -1.2602
 6407TIP3   OH240711   5.100   1.871  14.510 -0.4364  0.2116 -0.4648
 6407TIP3    H140712   5.135   1.943  14.457 -1.5502  0.7158 -0.5399
 6407TIP3    H240713   5.157   1.797  14.490 -0.5302  0.5160 -1.9876
 6408TIP3   OH240714   5.835   0.323  10.811  0.3000  0.9126 -0.2510
 6408TIP3    H140715   5.870   0.395  10.758 -0.4634  1.1361 -0.4572
 6408TIP3    H240716   5.759   0.292  10.762  0.5692  0.0255 -0.1135
 6409TIP3   OH240717   4.162   2.239   0.586  0.0889  0.2071  0.1216
 6409TIP3    H140718   4.083   2.194   0.556  0.2401  0.7106 -1.0896
 6409TIP3    H240719   4.137   2.276   0.671 -1.3857  1.3700 -0.7633
 6410TIP3   OH240720   3.451   5.049  13.749  0.0976  0.3298  0.1326
 6410TIP3    H140721   3.459   4.960  13.717 -0.0105  0.1520  0.5988
 6410TIP3    H240722   3.537   5.088  13.734  0.8656 -0.5428  2.0137
 6411TIP3   OH240723   0.812   6.435   1.023  0.0547  0.6648 -0.4532
 6411TIP3    H140724   0.727   6.471   1.048 -1.0039 -1.2479 -1.0839
 6411TIP3    H240725   0.791   6.355   0.975  2.1094  1.7073 -3.3865
 6412TIP3   OH240726   5.892   0.558  15.360 -0.0096 -0.3040  0.5592
 6412TIP3    H140727   5.824   0.522  15.416  0.7634 -1.3191  0.8794
 6412TIP3    H240728   5.883   0.512  15.277 -2.3514  2.4907 -0.9145
 6413TIP3   OH240729   5.030   3.845   3.843 -0.1448 -0.0113 -0.0139
 6413TIP3    H140730   5.084   3.769   3.823 -0.9751 -0.7608  0.4774
 6413TIP3    H240731   5.073   3.885   3.919  1.1068  0.8827 -1.1461
 6414TIP3   OH240732   4.096   1.720  11.478  0.5290 -0.0052  0.0440
 6414TIP3    H140733   4.152   1.717  11.556 -0.3765 -0.1241  0.6983
 6414TIP3    H240734   4.116   1.639  11.431  0.3446 -0.4167  0.6726
 6415TIP3   OH240735   2.782   5.309   4.986  0.0734  0.7111  0.3754
 6415TIP3    H140736   2.863   5.298   4.936  0.1107  0.5350  0.4733
 6415TIP3    H240737   2.789   5.397   5.023  1.1829 -0.0434  2.0889
 6416TIP3   OH240738   0.400   1.506   3.500 -0.3837  0.4449  0.7776
 6416TIP3    H140739   0.432   1.593   3.522 -1.1579  1.1788 -0.7825
 6416TIP3    H240740   0.321   1.495   3.554 -0.5856  0.9474  0.5919
 6417TIP3   OH240741   2.860   4.781   4.511 -0.5001 -0.3990  0.0803
 6417TIP3    H140742   2.939   4.770   4.564 -0.8572  0.6053  0.8493
 6417TIP3    H240743   2.812   4.699   4.521  0.3551 -0.9597 -0.2658
 6418TIP3   OH240744   4.340   5.112   0.591  0.0989  0.2685  0.2746
 6418TIP3    H140745   4.316   5.062   0.514  0.5549 -1.4321  1.1893
 6418TIP3    H240746   4.432   5.135   0.577  0.5509 -1.1215  0.8418
 6419TIP3   OH240747   6.105   5.073  15.178  0.6777 -0.4183  0.6078
 6419TIP3    H140748   6.015   5.055  15.205  0.2772 -0.0693 -0.4664
 6419TIP3    H240749   6.133   5.146  15.235 -0.2017  0.3996  0.0238
 6420TIP3   OH240750   6.114   2.040   2.385  0.6464 -0.0440  0.1046
 6420TIP3    H140751   6.035   2.000   2.422 -0.7755  2.8349  0.5121
 6420TIP3    H240752   6.096   2.134   2.388  3.0163  0.6034 -2.3446
 6421TIP3   OH240753   2.764   3.671  11.350  0.2602 -0.6773  0.0003
 6421TIP3    H140754   2.858   3.657  11.340  0.3815  0.1910 -0.1757
 6421TIP3    H240755   2.725   3.627  11.274  0.5944 -0.3732 -0.3552
 6422TIP3   OH240756   1.503   6.550  16.194  0.0513 -0.2648  0.4726
 6422TIP3    H140757   1.419   6.564  16.150  0.4884  0.7649 -0.0763
 6422TIP3    H240758   1.501   6.458  16.220 -0.8277 -0.5241 -0.4293
 6423TIP3   OH240759   3.998   3.479  10.351  0.3870 -0.1499  0.2347
 6423TIP3    H140760   3.972   3.390  10.375  2.5036 -0.5998  1.1070
 6423TIP3    H240761   3.916   3.528  10.348 -0.7624 -1.9866  0.3543
 6424TIP3   OH240762   6.205   0.540   3.800  0.5977  0.7597 -0.0310
 6424TIP3    H140763   6.192   0.532   3.895 -0.4249  2.2759 -0.0001
 6424TIP3    H240764   6.222   0.451   3.770  0.5663  0.1965  1.5184
 6425TIP3   OH240765   3.508   4.601   3.661 -0.0717 -0.0782  0.3109
 6425TIP3    H140766   3.460   4.570   3.584  1.0384  0.4877 -0.6578
 6425TIP3    H240767   3.488   4.695   3.665  0.9246  0.1747 -0.1289
 6426TIP3   OH240768   0.535   5.771  13.270 -0.1879 -0.3995  0.4365
 6426TIP3    H140769   0.456   5.720  13.286  0.3582 -0.9156  1.5748
 6426TIP3    H240770   0.528   5.845  13.331 -1.2258  1.2483 -1.5378
 6427TIP3   OH240771   2.001   1.447   4.938 -0.2082 -0.0601 -0.3259
 6427TIP3    H140772   1.998   1.523   4.997 -2.0308 -0.7795  0.5910
 6427TIP3    H240773   1.927   1.459   4.879 -0.7978 -1.3119  0.1144
 6428TIP3   OH240774   6.834   6.476  14.487 -0.7661  0.0592  0.2731
 6428TIP3    H140775   6.891   6.430  14.548  0.3254 -0.2700 -0.9394
 6428TIP3    H240776   6.891   6.540  14.444 -1.5553  0.4508 -0.2284
 6429TIP3   OH240777   2.915   3.549   5.522  0.4200  0.3070 -0.2499
 6429TIP3    H140778   2.925   3.516   5.433  1.4712 -0.0855 -0.0004
 6429TIP3    H240779   2.982   3.503   5.573  0.6746  1.4386  0.4863
 6430TIP3   OH240780   3.821   1.541  16.057  0.8143 -0.3834  0.2006
 6430TIP3    H140781   3.868   1.470  16.100 -1.0751 -1.2465  0.9431
 6430TIP3    H240782   3.729   1.516  16.063  0.2503  1.0190 -1.5694
 6431TIP3   OH240783   5.586   4.148  12.535  0.7507  0.6094  0.3384
 6431TIP3    H140784   5.663   4.124  12.587  0.9719  0.3023 -0.1251
 6431TIP3    H240785   5.569   4.072  12.480  0.7268  1.0631 -0.2874
 6432TIP3   OH240786   1.018   3.527   4.434 -0.0054 -0.1695 -0.1703
 6432TIP3    H140787   0.963   3.462   4.390  0.2834 -0.6795  0.2106
 6432TIP3    H240788   1.011   3.605   4.379 -0.2926 -0.5439 -0.6769
 6433TIP3   OH240789   4.118   6.311   4.064  0.2269 -0.1447  0.4076
 6433TIP3    H140790   4.055   6.367   4.019  0.6375 -0.2785 -0.3464
 6433TIP3    H240791   4.159   6.368   4.129  2.6247  1.2774 -2.1551
 6434TIP3   OH240792   1.200   3.885  16.978 -0.6906 -0.3454  0.3238
 6434TIP3    H140793   1.115   3.897  17.021 -0.5313  0.4715  0.4264
 6434TIP3    H240794   1.263   3.926  17.037 -0.3563 -0.0032 -0.2612
 6435TIP3   OH240795   3.946   6.287  15.997  1.2398 -0.2191  0.1005
 6435TIP3    H140796   3.884   6.251  15.934  0.5098  1.5102 -0.2019
 6435TIP3    H240797   4.007   6.214  16.013  0.6302 -1.1564 -1.5111
 6436TIP3   OH240798   6.593   1.926  13.043 -0.4841 -0.6644  0.1108
 6436TIP3    H140799   6.540   1.970  13.110  0.6044  0.9522 -0.0300
 6436TIP3    H240800   6.677   1.908  13.087 -0.2971 -0.9746 -0.3682
 6437TIP3   OH240801   6.023   1.053  15.191  0.3087 -0.2649 -0.3679
 6437TIP3    H140802   6.020   0.967  15.150  1.0875  0.4980 -2.1263
 6437TIP3    H240803   6.089   1.101  15.141  0.8762  0.9394  1.4324
 6438TIP3   OH240804   2.552   1.991  16.265  0.1859  0.3864  0.1023
 6438TIP3    H140805   2.618   2.058  16.246  0.0650  0.0094 -1.9168
 6438TIP3    H240806   2.602   1.912  16.282  0.3140  0.8317  2.0619
 6439TIP3   OH240807   1.003   0.127  14.074  0.4151  0.0526 -0.1497
 6439TIP3    H140808   1.020   0.044  14.118  1.7289  0.9463  1.1454
 6439TIP3    H240809   1.089   0.157  14.045  0.2133  1.6219  0.7149
 6440TIP3   OH240810   5.805   2.028  15.486  0.0341 -0.6498  0.5685
 6440TIP3    H140811   5.745   2.062  15.420 -0.8517 -0.4478  1.4556
 6440TIP3    H240812   5.751   1.973  15.542  0.2583  0.8772  2.4017
 6441TIP3   OH240813   2.436   0.022   4.491  0.1158 -0.6868 -0.6856
 6441TIP3    H140814   2.465  -0.069   4.483 -1.3412 -1.4820  2.0047
 6441TIP3    H240815   2.475   0.066   4.415  1.7397 -3.2950 -1.4964
 6442TIP3   OH240816   5.552   0.300  11.405 -0.2306  0.0312 -0.0707
 6442TIP3    H140817   5.514   0.297  11.493 -1.7802  0.3663 -0.7040
 6442TIP3    H240818   5.582   0.391  11.396 -1.8021  0.5379 -0.5545
 6443TIP3   OH240819   3.990   6.692  12.051 -0.1818  0.1873  0.8935
 6443TIP3    H140820   4.033   6.609  12.031 -1.2013 -0.2521  0.4377
 6443TIP3    H240821   3.897   6.669  12.057 -0.3686  1.1326  1.7045
 6444TIP3   OH240822   2.404   5.572  12.861  0.1416  0.0426 -0.4430
 6444TIP3    H140823   2.484   5.523  12.844  0.2501 -0.2370  0.7782
 6444TIP3    H240824   2.373   5.539  12.946 -1.4691 -0.1208 -1.0496
 6445TIP3   OH240825   3.335   1.731   0.793  0.4926 -0.1499 -0.0894
 6445TIP3    H140826   3.243   1.743   0.814  0.2059 -1.8609 -0.2405
 6445TIP3    H240827   3.375   1.816   0.812 -0.8266  0.1752  1.4484
 6446TIP3   OH240828   3.195   5.082  13.886  0.6715 -0.3056 -0.3794
 6446TIP3    H140829   3.263   5.087  13.819  2.5566 -0.6671  1.3756
 6446TIP3    H240830   3.206   4.995  13.925 -1.0639 -0.5105 -0.2749
 6447TIP3   OH240831   5.601   1.661  17.032 -0.3177  0.2273  0.3698
 6447TIP3    H140832   5.657   1.693  16.961  1.0541 -0.0955  1.2732
 6447TIP3    H240833   5.560   1.582  16.996 -1.2689  1.1938 -0.7672
 6448TIP3   OH240834   5.790   5.150  14.908  0.0409  0.2448 -0.8236
 6448TIP3    H140835   5.753   5.217  14.967  0.5139  0.3958 -0.6929
 6448TIP3    H240836   5.716   5.123  14.853 -0.3061  0.4142 -0.4494
 6449TIP3   OH240837   5.947   5.504   0.211 -0.1252 -0.0990  0.3263
 6449TIP3    H140838   5.950   5.502   0.115  1.2534 -0.6838  0.3546
 6449TIP3    H240839   5.905   5.422   0.235 -0.2645 -0.0566  0.2291
 6450TIP3   OH240840   2.712   2.959   6.054 -0.2514  0.0097 -0.1462
 6450TIP3    H140841   2.767   2.933   5.980 -0.3006  0.0067 -0.1817
 6450TIP3    H240842   2.689   2.876   6.097  0.2603  0.0465  0.2180
 6451TIP3   OH240843   4.254   1.102   0.068  0.3570 -0.1288 -0.1408
 6451TIP3    H140844   4.300   1.030   0.112  0.9337  0.5178  0.3328
 6451TIP3    H240845   4.315   1.176   0.073  0.8249 -0.2341 -2.7877
 6452TIP3   OH240846   1.691   0.546  12.386 -0.3457  0.5007 -0.5285
 6452TIP3    H140847   1.721   0.628  12.348  0.5300 -0.6081 -2.3619
 6452TIP3    H240848   1.627   0.513  12.323  0.8589 -1.2039 -0.9350
 6453TIP3   OH240849   2.383   5.188  12.121 -1.0363  0.0678  0.0003
 6453TIP3    H140850   2.380   5.128  12.047 -0.3433  0.1724 -0.1159
 6453TIP3    H240851   2.354   5.135  12.196 -1.4997 -0.1010 -0.2947
 6454TIP3   OH240852   6.464   0.563  16.551  0.4363  0.0462 -0.1243
 6454TIP3    H140853   6.516   0.587  16.628 -0.0819  0.2929  0.1520
 6454TIP3    H240854   6.390   0.623  16.552 -0.0523 -0.5412 -0.3081
 6455TIP3   OH240855   2.562   1.575  12.039 -0.3094  0.0559 -0.0449
 6455TIP3    H140856   2.562   1.480  12.026  1.9794  0.2090 -1.9557
 6455TIP3    H240857   2.530   1.610  11.956  1.9934  0.9308 -0.6470
 6456TIP3   OH240858   4.951   4.943   0.682 -0.2127 -0.4376 -0.3184
 6456TIP3    H140859   4.909   4.887   0.748  0.9253 -1.8076 -0.7132
 6456TIP3    H240860   5.000   5.008   0.733 -0.5246 -0.5746  0.1598
 6457TIP3   OH240861   0.592   2.917  16.318 -0.2118  0.3412 -0.0740
 6457TIP3    H140862   0.635   2.849  16.266  0.1478  1.2697 -1.0225
 6457TIP3    H240863   0.515   2.873  16.355 -1.0213 -0.1339 -2.1596
 6458TIP3   OH240864   5.243   2.694   2.661  0.2812 -0.0029 -0.4776
 6458TIP3    H140865   5.158   2.728   2.690  0.9157  0.6155  0.7434
 6458TIP3    H240866   5.231   2.599   2.659  0.7200 -0.3997  4.1363
 6459TIP3   OH240867   2.828   6.148   2.549  0.1531  0.6696 -0.5419
 6459TIP3    H140868   2.916   6.113   2.532 -0.6009 -0.8508 -1.4971
 6459TIP3    H240869   2.830   6.172   2.642  1.5013  0.4387 -0.4929
 6460TIP3   OH240870   0.074   5.346  13.674 -0.3188 -0.1755 -0.6892
 6460TIP3    H140871   0.103   5.355  13.583 -1.5849 -0.5305 -1.1447
 6460TIP3    H240872   0.003   5.410  13.683  0.5172  0.6478  0.3920
 6461TIP3   OH240873   5.802   3.651  16.558  0.6774 -0.3242  0.3509
 6461TIP3    H140874   5.804   3.664  16.463  0.7947  1.0886  0.5331
 6461TIP3    H240875   5.753   3.569  16.569 -0.1635 -0.0181 -0.8871
 6462TIP3   OH240876   1.430   2.720  11.897  0.3486  0.2489 -0.0705
 6462TIP3    H140877   1.449   2.716  11.803  1.8471 -0.8437  0.2438
 6462TIP3    H240878   1.335   2.725  11.902  0.2444  0.2706 -1.6517
 6463TIP3   OH240879   3.313   1.283  12.515  0.3207  0.0940  0.2213
 6463TIP3    H140880   3.245   1.348  12.531 -0.9865 -1.3414  0.7807
 6463TIP3    H240881   3.336   1.294  12.423 -1.4848 -0.1119 -0.2876
 6464TIP3   OH240882   4.185   0.294  15.396 -0.0072  0.0091  0.0210
 6464TIP3    H140883   4.124   0.264  15.328 -0.3227 -0.0534  0.3293
 6464TIP3    H240884   4.231   0.368  15.356 -0.7983  0.5217  0.0331
 6465TIP3   OH240885   1.680   1.034  12.029  0.4357  0.4638 -0.3986
 6465TIP3    H140886   1.665   1.126  12.007  0.1845  0.2187 -1.3310
 6465TIP3    H240887   1.770   1.016  12.000  0.9561  0.7349  0.9671
 6466TIP3   OH240888   6.518   3.411   0.510  0.0882  0.3050  0.0745
 6466TIP3    H140889   6.525   3.392   0.603  0.2628  0.0029  0.0021
 6466TIP3    H240890   6.487   3.330   0.471  0.6197  0.2315 -0.2107
 6467TIP3   OH240891   4.274   5.424   5.051 -0.0867  0.0108 -0.4285
 6467TIP3    H140892   4.361   5.402   5.083  0.3745  1.4242 -0.6362
 6467TIP3    H240893   4.248   5.349   4.998 -0.5228 -2.0448  2.4621
 6468TIP3   OH240894   0.483   2.871  14.367 -0.7113  0.0699  0.2586
 6468TIP3    H140895   0.407   2.890  14.422 -1.2019 -1.2264  0.0587
 6468TIP3    H240896   0.552   2.846  14.429 -0.6357  0.6338  0.4031
 6469TIP3   OH240897   5.130   1.405   0.165  0.2044 -0.2525 -0.5425
 6469TIP3    H140898   5.160   1.337   0.225  0.6923 -0.6330 -1.1989
 6469TIP3    H240899   5.126   1.361   0.079  0.8855  0.6262 -1.0399
 6470TIP3   OH240900   0.837   3.587  16.744 -0.5288 -0.3163 -0.5915
 6470TIP3    H140901   0.766   3.600  16.808 -0.4532 -0.7974 -0.4066
 6470TIP3    H240902   0.850   3.674  16.706 -0.9937 -0.1515 -0.3907
 6471TIP3   OH240903   1.386   2.391   1.238  0.0520 -0.2291 -0.0552
 6471TIP3    H140904   1.395   2.342   1.321 -0.4861 -0.7580 -0.3028
 6471TIP3    H240905   1.426   2.333   1.173  0.6997  0.2977 -0.1364
 6472TIP3   OH240906   2.855   5.960  11.052  0.5177 -0.3660 -1.1559
 6472TIP3    H140907   2.897   6.022  11.113  0.6332 -0.6933 -0.8997
 6472TIP3    H240908   2.920   5.946  10.983  1.9794 -2.9074  0.5591
 6473TIP3   OH240909   0.414   2.507  14.363  0.3851  0.6067 -0.4300
 6473TIP3    H140910   0.398   2.433  14.304 -0.6859  1.4389 -1.2073
 6473TIP3    H240911   0.426   2.582  14.305  0.7427  1.1894  0.3827
 6474TIP3   OH240912   5.850   2.210   1.014 -0.5648  0.4549  0.5092
 6474TIP3    H140913   5.861   2.155   0.937 -0.8875 -1.3199  1.6647
 6474TIP3    H240914   5.920   2.182   1.073  1.0746  3.2906  0.1124
 6475TIP3   OH240915   5.045   5.605   5.403  0.5078 -0.3874 -0.7187
 6475TIP3    H140916   5.091   5.616   5.486 -1.2761  3.9149 -0.0685
 6475TIP3    H240917   4.961   5.565   5.428 -0.4830  1.9029 -0.1483
 6476TIP3   OH240918   0.106   5.853   3.984 -0.4096  0.1073 -0.6568
 6476TIP3    H140919   0.068   5.854   4.072 -0.3153 -0.8508 -0.5906
 6476TIP3    H240920   0.033   5.871   3.926 -1.0345 -1.8410 -0.5384
 6477TIP3   OH240921   2.816   3.850  12.737  0.4120  0.0914  0.2289
 6477TIP3    H140922   2.759   3.845  12.813  0.2156  2.3564  0.3153
 6477TIP3    H240923   2.784   3.781  12.678 -0.9094 -0.1966  1.2315
 6478TIP3   OH240924   5.606   6.812  10.993  0.4772 -0.4052  0.1765
 6478TIP3    H140925   5.603   6.717  11.004  1.6234 -0.4241  0.4053
 6478TIP3    H240926   5.573   6.847  11.075 -0.2264 -0.5992 -0.0159
 6479TIP3   OH240927   4.458   1.191   1.627 -1.0752 -0.0778 -0.1742
 6479TIP3    H140928   4.476   1.284   1.613 -0.6727 -0.3213 -1.4134
 6479TIP3    H240929   4.446   1.155   1.539  0.1718 -1.4712  0.1743
 6480TIP3   OH240930   5.722   3.412   0.567 -0.2420  0.5014 -0.2489
 6480TIP3    H140931   5.793   3.438   0.625  0.1605  1.2944 -1.0543
 6480TIP3    H240932   5.674   3.345   0.615  0.5283  0.5855  0.6672
 6481TIP3   OH240933   3.649   3.715   1.566 -0.6283 -0.2939 -0.2159
 6481TIP3    H140934   3.560   3.737   1.595 -0.3512  1.2601 -0.4663
 6481TIP3    H240935   3.678   3.792   1.517  1.7932  0.3140  1.9292
 6482TIP3   OH240936   6.759   6.803  14.379  0.1828  0.4217  0.0720
 6482TIP3    H140937   6.690   6.749  14.417  0.5141 -0.3641 -0.4175
 6482TIP3    H240938   6.837   6.747  14.380  0.2971  0.5101 -1.3771
 6483TIP3   OH240939   1.997   6.495  14.142  0.4349  0.0835 -0.1040
 6483TIP3    H140940   1.963   6.515  14.229 -0.3525  0.7707 -0.5569
 6483TIP3    H240941   2.072   6.554  14.132 -0.0120  0.6391 -0.2280
 6484TIP3   OH240942   3.757   6.523  14.512  0.1876 -0.1328 -0.3083
 6484TIP3    H140943   3.769   6.618  14.516 -1.9906  0.1673  3.2599
 6484TIP3    H240944   3.819   6.489  14.577  0.1856 -1.0666 -0.7846
 6485TIP3   OH240945   4.616   6.342   2.270  0.6918  0.4432 -0.5074
 6485TIP3    H140946   4.620   6.389   2.354  0.2800  0.8339 -0.7067
 6485TIP3    H240947   4.567   6.400   2.212  2.0572  0.7728 -1.4026
 6486TIP3   OH240948   3.652   5.875   2.458  0.6031  0.1511  0.0388
 6486TIP3    H140949   3.676   5.786   2.481 -0.3019 -0.2105 -0.3620
 6486TIP3    H240950   3.704   5.895   2.380  0.0537 -0.4169 -0.4883
 6487TIP3   OH240951   1.697   2.302  14.911  0.2163 -0.5915 -0.2470
 6487TIP3    H140952   1.756   2.252  14.968  0.3928 -0.4847 -0.3352
 6487TIP3    H240953   1.748   2.380  14.887 -0.9476  0.9934  2.0241
 6488TIP3   OH240954   2.553   3.334  13.019  0.1881 -0.1825 -0.1581
 6488TIP3    H140955   2.564   3.335  13.114 -2.1308  0.5353  0.1887
 6488TIP3    H240956   2.612   3.266  12.987 -0.3766 -1.7811  2.0218
 6489TIP3   OH240957   5.858   1.599  16.821 -0.2336 -0.4615  0.3949
 6489TIP3    H140958   5.813   1.683  16.818 -0.1361 -0.3754  1.0691
 6489TIP3    H240959   5.911   1.603  16.901  0.7920 -0.6538 -0.2600
 6490TIP3   OH240960   1.714   2.448   2.520  0.5709 -0.3229  0.2125
 6490TIP3    H140961   1.645   2.411   2.575 -0.6240 -1.3501 -1.8774
 6490TIP3    H240962   1.761   2.372   2.486  2.3012  0.3492  0.9942
 6491TIP3   OH240963   1.919   0.310   3.468  0.1273 -0.4764 -0.3488
 6491TIP3    H140964   1.863   0.298   3.391  0.5053 -0.8566 -0.5689
 6491TIP3    H240965   2.004   0.337   3.432  0.3843 -0.9193 -0.0894
 6492TIP3   OH240966   5.845   0.882   0.116  0.0808 -0.0764  0.1118
 6492TIP3    H140967   5.817   0.869   0.206  0.8866 -0.9379  0.2521
 6492TIP3    H240968   5.877   0.972   0.113 -0.9007  0.3030  0.4080
 6493TIP3   OH240969   3.058   3.054   2.974  0.7402 -0.1185  0.1916
 6493TIP3    H140970   3.119   3.036   3.045  1.2204 -1.2423 -0.4683
 6493TIP3    H240971   3.000   2.978   2.972 -0.6630  0.8804  0.7405
 6494TIP3   OH240972   5.648   5.437   0.313 -0.5482 -0.3268  0.1970
 6494TIP3    H140973   5.686   5.351   0.298  1.2432  0.2019  1.3621
 6494TIP3    H240974   5.577   5.421   0.375 -1.9681 -1.2626 -1.5783
 6495TIP3   OH240975   4.215   5.133  14.401  0.3314 -0.0781 -0.1185
 6495TIP3    H140976   4.173   5.048  14.416  0.7884 -0.3548 -0.3724
 6495TIP3    H240977   4.282   5.115  14.335 -0.4107  0.7297 -1.1321
 6496TIP3   OH240978   5.712   2.657   2.342 -0.0208 -0.1441 -0.4808
 6496TIP3    H140979   5.668   2.725   2.291 -2.5043 -1.2529 -0.0162
 6496TIP3    H240980   5.726   2.696   2.428  0.4806  0.4360 -0.8233
 6497TIP3   OH240981   0.562   1.821   5.897  0.0140  0.4745 -0.2673
 6497TIP3    H140982   0.554   1.728   5.920 -1.5189  0.7412  0.3947
 6497TIP3    H240983   0.657   1.837   5.895  0.2895 -0.7976  0.8976
 6498TIP3   OH240984   0.834   0.092   0.250  0.1795  0.2221 -0.3359
 6498TIP3    H140985   0.750   0.052   0.272  0.5115  0.4929  1.5589
 6498TIP3    H240986   0.829   0.181   0.286  1.2718  0.2453 -0.2132
 6499TIP3   OH240987   3.685   2.943  16.889  0.6475  0.6721  0.0439
 6499TIP3    H140988   3.653   3.029  16.860  0.7969  0.4941 -0.6562
 6499TIP3    H240989   3.627   2.880  16.846  2.5893  0.2838 -2.1872
 6500TIP3   OH240990   2.362   0.100  12.154 -0.2152  0.1974 -0.0934
 6500TIP3    H140991   2.387   0.101  12.061  1.5195  0.7218  0.3396
 6500TIP3    H240992   2.387   0.186  12.187 -0.8912  0.0469  0.8519
 6501TIP3   OH240993   0.096   1.372   0.033 -0.1492 -0.0026  0.1948
 6501TIP3    H140994   0.188   1.363   0.010 -0.4677 -2.1594 -0.4408
 6501TIP3    H240995   0.055   1.410  -0.045  0.0597  0.1816  0.1759
 6502TIP3   OH240996   6.571   0.181  13.679  0.8690 -0.2621 -0.0305
 6502TIP3    H140997   6.558   0.087  13.691  1.2814 -0.4845 -1.1547
 6502TIP3    H240998   6.493   0.211  13.633 -0.0403  0.2924  1.8082
 6503TIP3   OH240999   5.029   3.712   5.631  0.0477  0.3469 -0.2570
 6503TIP3    H141000   5.047   3.768   5.556 -0.5076  0.8309 -0.0409
 6503TIP3    H241001   4.947   3.667   5.608 -0.2227  0.6336  0.1211
 6504TIP3   OH241002   0.610   4.033  12.152 -1.0201 -0.5737 -0.0168
 6504TIP3    H141003   0.547   4.048  12.223 -1.3190 -1.6643 -0.0311
 6504TIP3    H241004   0.587   4.098  12.085  0.7443  2.0763  1.7734
 6505TIP3   OH241005   4.806   4.346   2.153  0.1653 -0.0053 -0.4804
 6505TIP3    H141006   4.752   4.379   2.225  0.8515 -1.4439  0.7457
 6505TIP3    H241007   4.775   4.394   2.076 -0.8312  1.3231  0.6979
 6506TIP3   OH241008   0.648   4.143  13.321  0.2380 -0.1674 -0.0342
 6506TIP3    H141009   0.713   4.213  13.315  0.2209 -0.1892 -0.5548
 6506TIP3    H241010   0.609   4.154  13.407  0.5511  0.1846  0.0670
 6507TIP3   OH241011   5.520   3.968  13.835  0.1444  0.1069  0.4101
 6507TIP3    H141012   5.432   3.993  13.863  0.4027  0.9968  0.4803
 6507TIP3    H241013   5.558   3.924  13.911 -0.2997 -0.4273  0.3207
 6508TIP3   OH241014   2.086   6.507  16.644 -0.1992 -0.3439  0.3128
 6508TIP3    H141015   2.025   6.455  16.695  0.8148 -0.7608  1.1343
 6508TIP3    H241016   2.169   6.459  16.648  0.2751  0.3628 -0.5049
 6509TIP3   OH241017   5.230   0.429   3.319 -0.1071  0.4210  0.7781
 6509TIP3    H141018   5.262   0.349   3.360  0.2575  0.1025 -0.1150
 6509TIP3    H241019   5.176   0.470   3.387  1.7431  0.7199  2.1504
 6510TIP3   OH241020   4.206   1.081   0.622 -0.0425 -0.1485 -0.2212
 6510TIP3    H141021   4.210   0.999   0.673  0.6809  0.7323  1.2292
 6510TIP3    H241022   4.178   1.054   0.535 -1.9261 -1.6877  0.7725
 6511TIP3   OH241023   2.276   6.792   3.610  0.1628  0.4444  0.0247
 6511TIP3    H141024   2.339   6.854   3.646 -0.4001  0.2254  1.4767
 6511TIP3    H241025   2.198   6.845   3.592  0.7254  0.7132 -1.7525
 6512TIP3   OH241026   0.819   6.275  16.506 -0.2020 -0.2899  0.7162
 6512TIP3    H141027   0.912   6.268  16.484  0.5218  1.8746  2.7456
 6512TIP3    H241028   0.792   6.360  16.470 -0.9874 -0.2147  1.4609
 6513TIP3   OH241029   0.850   2.517  11.167  0.5272  0.5064 -0.4352
 6513TIP3    H141030   0.822   2.596  11.121 -0.7811 -0.4502 -1.3485
 6513TIP3    H241031   0.927   2.486  11.118 -0.3143 -0.0094 -1.4598
 6514TIP3   OH241032   3.067   3.933  13.613  0.6922 -0.2504 -0.4377
 6514TIP3    H141033   3.049   3.891  13.528  0.0650  1.9763 -1.4783
 6514TIP3    H241034   2.991   3.989  13.628  1.3782  0.3300  0.9937
 6515TIP3   OH241035   4.821   2.901   2.250 -0.3251 -0.6964  0.0453
 6515TIP3    H141036   4.781   2.919   2.165 -1.6766 -0.8739  0.6157
 6515TIP3    H241037   4.747   2.898   2.311  0.6085 -0.6331  1.2193
 6516TIP3   OH241038   1.449   1.788   0.973  0.2045  0.1491 -0.4649
 6516TIP3    H141039   1.388   1.715   0.985  1.7852 -1.1610  0.0406
 6516TIP3    H241040   1.520   1.770   1.035  0.6591  2.1330 -0.3487
 6517TIP3   OH241041   0.017   0.843   1.881  0.0873 -0.2820 -0.5162
 6517TIP3    H141042   0.068   0.924   1.874  0.2893 -0.2961  0.6317
 6517TIP3    H241043   0.068   0.778   1.832  1.0462 -0.2309  0.3944
 6518TIP3   OH241044   2.212   6.045  13.984  0.3025 -0.0556  0.3992
 6518TIP3    H141045   2.198   5.955  14.011  0.2777  0.0342  0.6869
 6518TIP3    H241046   2.291   6.072  14.029  2.7175 -1.2059 -2.7535
 6519TIP3   OH241047   3.045   1.521  13.067 -0.1716 -0.4402 -0.5653
 6519TIP3    H141048   2.973   1.527  13.131  0.5645  0.4183  0.2148
 6519TIP3    H241049   3.032   1.436  13.025 -0.2359 -1.4063  1.2827
 6520TIP3   OH241050   5.381   2.091  16.581 -0.0925  0.0669 -0.0672
 6520TIP3    H141051   5.317   2.029  16.615 -0.1676  0.4446  0.5062
 6520TIP3    H241052   5.330   2.149  16.523 -0.6212  1.3206  1.5659
 6521TIP3   OH241053   2.519   0.643   1.535  0.2104 -0.3580  0.0896
 6521TIP3    H141054   2.492   0.705   1.603 -1.2257 -0.5182 -0.3121
 6521TIP3    H241055   2.439   0.621   1.488  1.2908  0.6632 -2.4512
 6522TIP3   OH241056   0.850   0.604  12.164 -0.3123 -0.1182  0.4502
 6522TIP3    H141057   0.896   0.661  12.226 -1.3855 -2.7891  4.0899
 6522TIP3    H241058   0.910   0.531  12.150 -0.6252 -0.1713 -0.6823
 6523TIP3   OH241059   3.890   2.900  11.571 -0.3530  0.3886 -0.0193
 6523TIP3    H141060   3.845   2.858  11.498 -0.2019 -1.2554  0.7786
 6523TIP3    H241061   3.962   2.841  11.592  0.3938  1.4889  0.6277
 6524TIP3   OH241062   6.443   4.864  15.827  0.6469 -0.5640  0.1493
 6524TIP3    H141063   6.380   4.916  15.777  0.9625  0.0667  0.3966
 6524TIP3    H241064   6.525   4.872  15.778  0.7095 -0.7866  0.2169
 6525TIP3   OH241065   2.067   2.935   0.185  0.1068  0.9681  0.0697
 6525TIP3    H141066   2.122   2.871   0.142 -0.4529  0.0429  0.6957
 6525TIP3    H241067   1.979   2.920   0.149 -0.5825 -0.5068  2.1744
 6526TIP3   OH241068   5.625   2.137  12.392 -0.0143 -0.1257 -0.2942
 6526TIP3    H141069   5.537   2.153  12.425  0.1613  0.5908 -0.1576
 6526TIP3    H241070   5.615   2.065  12.329 -0.7347  0.1199 -0.4658
 6527TIP3   OH241071   4.188   6.514   2.626  0.3629  0.5849  0.3402
 6527TIP3    H141072   4.173   6.607   2.613 -0.9573  0.2943 -0.3450
 6527TIP3    H241073   4.117   6.485   2.684  2.6156  0.6009  3.3833
 6528TIP3   OH241074   1.685   1.859   5.652  0.2247  0.3624  0.3249
 6528TIP3    H141075   1.610   1.846   5.710 -0.4803 -0.8711 -0.7989
 6528TIP3    H241076   1.662   1.935   5.599 -0.4946 -0.3196 -0.3696
 6529TIP3   OH241077   4.536   5.397  15.136  0.2529 -0.2203 -0.1208
 6529TIP3    H141078   4.583   5.423  15.215  0.3845 -2.4405  0.6050
 6529TIP3    H241079   4.563   5.307  15.120 -0.3961 -0.1009 -2.2635
 6530TIP3   OH241080   3.883   2.523   3.031  0.3507 -0.3257  0.1448
 6530TIP3    H141081   3.848   2.504   3.118  0.2506 -2.1768 -0.2476
 6530TIP3    H241082   3.836   2.601   3.002  0.5242  0.4318  1.8032
 6531TIP3   OH241083   2.511   3.077   4.199 -0.2373 -0.3187  0.5636
 6531TIP3    H141084   2.434   3.080   4.257 -0.7795 -0.3411 -0.1431
 6531TIP3    H241085   2.559   3.157   4.220 -1.7691  1.0034 -0.7458
 6532TIP3   OH241086   2.593   0.020   5.441 -0.5455  0.0835  0.1038
 6532TIP3    H141087   2.630   0.096   5.395  2.0749 -1.0803  0.0959
 6532TIP3    H241088   2.607   0.040   5.534 -0.4493 -0.1150  0.1314
 6533TIP3   OH241089   4.794   2.315   5.996 -0.0539 -0.3839 -0.1178
 6533TIP3    H141090   4.782   2.402   5.956  0.3640 -0.2691 -0.0035
 6533TIP3    H241091   4.832   2.334   6.082 -1.0301 -0.6278  0.3698
 6534TIP3   OH241092   5.036   6.173  16.748  0.6365  0.0272 -0.1942
 6534TIP3    H141093   5.029   6.135  16.660 -0.4860 -0.1944 -0.0255
 6534TIP3    H241094   5.021   6.266  16.734  0.3802 -0.0183 -0.2313
 6535TIP3   OH241095   2.356   5.757  11.324  0.0153 -0.2076  0.0552
 6535TIP3    H141096   2.426   5.787  11.267 -0.4765 -0.3036 -0.6087
 6535TIP3    H241097   2.381   5.668  11.349  0.3926 -0.0464  0.2650
 6536TIP3   OH241098   1.409   5.685   4.393  0.4128 -0.3442  0.2704
 6536TIP3    H141099   1.421   5.624   4.465  1.3088 -0.8896 -0.3307
 6536TIP3    H241100   1.497   5.720   4.376  0.2207 -0.2622 -0.5922
 6537TIP3   OH241101   5.452   5.712  12.541 -0.0354 -0.0165  0.0510
 6537TIP3    H141102   5.358   5.699  12.525 -0.0435 -0.1687  0.2174
 6537TIP3    H241103   5.459   5.721  12.636 -0.0616  1.4745 -0.0626
 6538TIP3   OH241104   5.058   1.759   1.993 -0.2858 -0.0562 -0.2629
 6538TIP3    H141105   5.095   1.712   1.918  0.8406 -0.1644  0.3439
 6538TIP3    H241106   5.082   1.851   1.978  1.2200 -0.2660  0.6675
 6539TIP3   OH241107   2.082   2.422  12.925  0.0921  0.5383  0.1234
 6539TIP3    H141108   2.124   2.372  12.855  1.4565  1.1341  0.4719
 6539TIP3    H241109   2.130   2.398  13.004  0.2386  1.7553  0.4252
 6540TIP3   OH241110   6.548   2.120   4.594  0.0820  0.6698 -0.6752
 6540TIP3    H141111   6.463   2.131   4.550 -0.2349  1.3933  0.1005
 6540TIP3    H241112   6.536   2.043   4.650  0.0649  0.5413 -0.8538
 6541TIP3   OH241113   1.227   5.308   3.066 -0.3503 -0.1608  0.4919
 6541TIP3    H141114   1.184   5.341   3.144 -3.5854 -1.2962 -0.6352
 6541TIP3    H241115   1.247   5.216   3.087 -0.5795 -0.2711  0.2338
 6542TIP3   OH241116   4.956   0.007   6.047  0.2335  0.2923  0.4677
 6542TIP3    H141117   4.930   0.078   6.106  3.1444  1.9970 -0.1054
 6542TIP3    H241118   4.949  -0.072   6.100 -1.8569  1.1154  1.5355
 6543TIP3   OH241119   3.907   0.655   3.518 -0.0407  0.7032 -0.1177
 6543TIP3    H141120   3.886   0.734   3.468 -1.6723 -0.7702 -1.8712
 6543TIP3    H241121   3.837   0.648   3.582 -1.5054 -0.7338 -1.7722
 6544TIP3   OH241122   5.919   4.539   0.792  0.4325 -0.8372 -0.2179
 6544TIP3    H141123   5.963   4.611   0.837 -0.3947 -1.2400  1.3402
 6544TIP3    H241124   5.985   4.502   0.735  0.9508  0.9739 -0.8541
 6545TIP3   OH241125   6.570   1.561   6.353  0.4492  0.3442 -0.5894
 6545TIP3    H141126   6.638   1.537   6.415  0.5055  1.6218 -0.1190
 6545TIP3    H241127   6.568   1.657   6.356  0.5006  0.4587 -2.5994
 6546TIP3   OH241128   6.500   3.399   4.988 -0.2374  0.4649 -0.8002
 6546TIP3    H141129   6.548   3.364   4.914 -0.0734  0.0912 -0.5187
 6546TIP3    H241130   6.481   3.323   5.043  1.4342  0.9790  0.5705
 6547TIP3   OH241131   1.716   2.322  12.461  0.2407  0.0533  0.6957
 6547TIP3    H141132   1.762   2.242  12.487 -2.0476 -1.4567  0.3970
 6547TIP3    H241133   1.766   2.393  12.501  2.5145 -1.4818  0.7357
 6548TIP3   OH241134   3.862   5.911  15.861 -0.1949 -0.0792 -0.0406
 6548TIP3    H141135   3.867   5.871  15.774  0.0369 -0.9547  0.3765
 6548TIP3    H241136   3.882   5.841  15.922 -2.6667 -0.0912  0.8763
 6549TIP3   OH241137   5.898   0.569  13.281  0.1936 -0.2077  0.1766
 6549TIP3    H141138   5.916   0.574  13.187 -2.1560 -1.7120 -0.4486
 6549TIP3    H241139   5.855   0.653  13.301  1.0850  0.2941  0.0269
 6550TIP3   OH241140   0.085   5.115   3.357 -0.2899  0.1046  0.0596
 6550TIP3    H141141   0.009   5.097   3.302 -0.5329  1.1084  0.0492
 6550TIP3    H241142   0.110   5.205   3.336  2.2362 -0.8729 -1.5127
 6551TIP3   OH241143   0.972   4.094   0.158  0.3638  0.0230  0.7934
 6551TIP3    H141144   0.958   4.107   0.251 -0.1229 -0.5962  0.8109
 6551TIP3    H241145   0.900   4.141   0.116  0.2465 -0.1998  0.7481
 6552TIP3   OH241146   4.935   1.080   3.856  0.0671 -0.3781  0.0445
 6552TIP3    H141147   4.865   1.016   3.848 -0.6363  0.5612 -2.0957
 6552TIP3    H241148   5.011   1.038   3.814 -0.0805 -0.2588 -0.3497
 6553TIP3   OH241149   0.922   1.767  13.659 -0.2318 -0.3242 -0.4122
 6553TIP3    H141150   1.017   1.767  13.649  0.1397  2.8669  1.6494
 6553TIP3    H241151   0.903   1.685  13.703  1.6776 -0.6405 -0.0738
 6554TIP3   OH241152   1.621   2.732   2.463 -0.0987  0.5302 -0.0512
 6554TIP3    H141153   1.654   2.642   2.464 -2.0746 -0.2907 -1.7450
 6554TIP3    H241154   1.544   2.729   2.520  0.4850  1.4896  0.8333
 6555TIP3   OH241155   1.867   5.228   5.384 -0.0293 -0.1598 -0.1272
 6555TIP3    H141156   1.872   5.264   5.472 -0.2565 -2.8013  1.0396
 6555TIP3    H241157   1.774   5.228   5.363 -0.1357 -1.1086  0.3370
 6556TIP3   OH241158   1.597   4.727   1.434  0.3167  0.5268 -0.2684
 6556TIP3    H141159   1.681   4.761   1.463 -0.0864  0.3456  1.1687
 6556TIP3    H241160   1.545   4.717   1.514 -1.1782  0.8995 -1.1467
 6557TIP3   OH241161   3.452   1.898  15.638 -0.4967  0.7897 -0.0089
 6557TIP3    H141162   3.494   1.895  15.552  0.7507 -0.8861  0.5861
 6557TIP3    H241163   3.492   1.973  15.682 -0.9823  1.5253 -0.7941
 6558TIP3   OH241164   0.679   0.805   4.976  0.0590 -0.7966 -0.2808
 6558TIP3    H141165   0.599   0.816   5.028 -0.4765  1.1054 -1.4283
 6558TIP3    H241166   0.665   0.723   4.928 -1.5466 -0.1740 -0.9711
 6559TIP3   OH241167   3.855   4.505   3.345 -0.7383  1.1000 -0.0978
 6559TIP3    H141168   3.908   4.470   3.416  1.0020 -0.3399 -2.0093
 6559TIP3    H241169   3.774   4.454   3.347 -0.2445  0.3199  0.1772
 6560TIP3   OH241170   1.508   1.623  13.864  0.1384 -0.0926 -0.2906
 6560TIP3    H141171   1.603   1.634  13.868  0.2215 -0.3815 -1.2457
 6560TIP3    H241172   1.493   1.568  13.787 -0.8312  0.3015 -0.4029
 6561TIP3   OH241173   5.563   5.841   0.849  0.4194 -0.2230  0.5782
 6561TIP3    H141174   5.523   5.851   0.935 -1.0972  0.0641 -0.1353
 6561TIP3    H241175   5.527   5.760   0.815  1.1763 -0.4455  0.2888
 6562TIP3   OH241176   1.292   5.978  15.557  0.4445  0.1795 -0.6558
 6562TIP3    H141177   1.209   5.999  15.598  0.6906  0.8737 -0.5142
 6562TIP3    H241178   1.321   6.059  15.516  0.0664 -0.5384 -2.4666
 6563TIP3   OH241179   2.790   3.192   0.863 -0.4484  0.4243  0.3221
 6563TIP3    H141180   2.705   3.160   0.832  0.0771 -0.6716 -0.0580
 6563TIP3    H241181   2.824   3.120   0.917  1.2042 -0.1220 -1.3374
 6564TIP3   OH241182   3.118   4.507   5.527 -0.1133 -0.1526 -0.2103
 6564TIP3    H141183   3.099   4.600   5.537 -1.3233 -0.4208  0.1309
 6564TIP3    H241184   3.186   4.490   5.593  0.6720  0.6350 -0.7979
 6565TIP3   OH241185   4.704   6.371   1.119 -0.5352 -0.0753  0.3453
 6565TIP3    H141186   4.681   6.382   1.211 -0.2017 -0.5029  0.4841
 6565TIP3    H241187   4.623   6.345   1.077 -0.7178  0.2429  0.4933
 6566TIP3   OH241188   5.407   4.871   1.245  0.0128 -0.0669 -0.1831
 6566TIP3    H141189   5.407   4.956   1.202 -0.0328 -0.1421 -0.3328
 6566TIP3    H241190   5.496   4.838   1.232  0.2026  0.2104  0.3787
 6567TIP3   OH241191   0.746   1.676   0.739 -0.1036 -0.5490  1.2200
 6567TIP3    H141192   0.692   1.597   0.741 -0.0208 -0.9601 -2.9007
 6567TIP3    H241193   0.682   1.748   0.738 -0.6762 -0.9638 -1.7877
 6568TIP3   OH241194   5.770   0.350   5.473 -0.1291  0.1610  0.1195
 6568TIP3    H141195   5.732   0.429   5.510 -2.9691 -1.3502  0.7343
 6568TIP3    H241196   5.810   0.305   5.548  0.1387  0.2682  0.0448
 6569TIP3   OH241197   1.508   3.020  11.885  0.1588 -0.5965 -0.3116
 6569TIP3    H141198   1.572   2.967  11.933  0.6474 -1.2783 -1.6695
 6569TIP3    H241199   1.550   3.038  11.801 -0.6105  0.7095 -0.4424
 6570TIP3   OH241200   2.716   2.456   5.778  0.1147 -0.4370  0.0820
 6570TIP3    H141201   2.794   2.506   5.751 -0.6829  0.0148 -1.4835
 6570TIP3    H241202   2.701   2.484   5.868  2.2705 -1.1969  0.7516
 6571TIP3   OH241203   6.335   3.057   2.506  0.1695 -0.5915  0.1553
 6571TIP3    H141204   6.335   2.998   2.581  0.3976 -0.1664  0.4990
 6571TIP3    H241205   6.244   3.083   2.495  0.2266 -0.1105  0.7341
 6572TIP3   OH241206   6.342   4.196  14.782  0.0367 -0.5432 -0.8692
 6572TIP3    H141207   6.314   4.158  14.699 -1.4508  0.5355 -0.9092
 6572TIP3    H241208   6.274   4.260  14.803  1.3458  0.5546  0.2428
 6573TIP3   OH241209   4.923   4.327  12.887 -0.4961  0.7442 -1.0711
 6573TIP3    H141210   4.831   4.308  12.866 -0.5507  1.0249 -1.0887
 6573TIP3    H241211   4.925   4.421  12.906 -0.1853  0.7702 -1.2209
 6574TIP3   OH241212   4.041   5.574   1.278 -0.4186  0.4800  0.3453
 6574TIP3    H141213   4.093   5.619   1.212  0.0084  1.7079  1.4536
 6574TIP3    H241214   4.105   5.537   1.339 -0.7970 -0.7689  0.0158
 6575TIP3   OH241215   6.807   4.534  11.611  0.3004 -0.4828 -0.1542
 6575TIP3    H141216   6.793   4.497  11.524  1.5909  0.4599 -0.7843
 6575TIP3    H241217   6.719   4.537  11.650 -0.5576  0.5798 -2.0292
 6576TIP3   OH241218   5.324   5.016   4.446 -0.3276  0.2935  0.3216
 6576TIP3    H141219   5.338   4.959   4.370  0.1414 -0.2395  0.7884
 6576TIP3    H241220   5.411   5.028   4.483 -0.7747 -1.3197  2.0637
 6577TIP3   OH241221   0.290   2.770  12.228 -0.9090  0.6890 -0.2478
 6577TIP3    H141222   0.352   2.797  12.159  0.5725  1.1068  1.1852
 6577TIP3    H241223   0.228   2.842  12.233 -0.0755  1.4145 -0.0604
 6578TIP3   OH241224   3.627   5.592  14.181  0.2398  0.1567  0.4300
 6578TIP3    H141225   3.720   5.611  14.193 -0.2333  1.5332  2.3579
 6578TIP3    H241226   3.605   5.634  14.098  1.4948 -1.0316 -0.5712
 6579TIP3   OH241227   3.443   5.935   0.688  0.0994 -0.6898 -0.1794
 6579TIP3    H141228   3.399   6.004   0.738  0.5219 -0.1287 -0.5680
 6579TIP3    H241229   3.384   5.917   0.615 -0.0842 -0.8505  0.0083
 6580TIP3   OH241230   1.042   5.428  13.827  0.6983  0.5611  0.3552
 6580TIP3    H141231   1.032   5.486  13.752  0.1702 -0.5823 -0.5014
 6580TIP3    H241232   1.134   5.433  13.851  0.8029  1.1692 -0.1614
 6581TIP3   OH241233   5.061   4.234  11.779 -0.1287  0.6600  0.4389
 6581TIP3    H141234   5.039   4.164  11.718  1.2779  1.0708 -0.6038
 6581TIP3    H241235   5.094   4.190  11.857  1.1840  0.1345 -0.3826
 6582TIP3   OH241236   1.966   1.466  13.106 -0.9872  0.2014  0.6171
 6582TIP3    H141237   1.936   1.385  13.066  1.4610 -0.5618  0.1761
 6582TIP3    H241238   2.012   1.438  13.185 -1.4636  1.3122  1.3126
 6583TIP3   OH241239   0.376   5.906  16.612  0.2186 -0.1231  0.0204
 6583TIP3    H141240   0.382   5.817  16.647 -1.7600 -1.1424 -1.9780
 6583TIP3    H241241   0.386   5.895  16.518  0.2706  1.8327 -0.2424
 6584TIP3   OH241242   4.795   5.119   2.445  0.3086  0.2163  0.3709
 6584TIP3    H141243   4.794   5.065   2.366  3.6417  0.6550 -0.1385
 6584TIP3    H241244   4.786   5.057   2.517 -0.2292 -0.4892 -0.2954
 6585TIP3   OH241245   0.957   2.895  15.388 -0.0397 -0.3394 -0.2887
 6585TIP3    H141246   0.974   2.801  15.380 -1.2161 -0.4910 -1.2466
 6585TIP3    H241247   1.015   2.936  15.324  0.5271 -0.3895  0.1814
 6586TIP3   OH241248   2.162   1.473  16.894 -0.3961  0.8950  0.5808
 6586TIP3    H141249   2.113   1.394  16.916  0.2240 -0.2384 -1.7273
 6586TIP3    H241250   2.245   1.441  16.860  0.1512  2.5796  0.2290
 6587TIP3   OH241251   0.475   2.435   2.393  0.0978 -0.4240 -0.3868
 6587TIP3    H141252   0.515   2.442   2.306 -1.8127  0.0038 -1.2909
 6587TIP3    H241253   0.387   2.401   2.376  0.0097 -1.2736  1.4990
 6588TIP3   OH241254   6.695   2.975   3.665 -0.3721 -1.2315 -0.5412
 6588TIP3    H141255   6.752   2.909   3.704 -1.5455 -2.1124 -0.2624
 6588TIP3    H241256   6.737   3.059   3.686  0.0339 -1.7792  0.9475
 6589TIP3   OH241257   3.826   5.169  16.054 -0.8958 -0.3103 -0.0758
 6589TIP3    H141258   3.798   5.188  16.144 -0.8580  1.5451 -0.4183
 6589TIP3    H241259   3.811   5.075  16.044  0.3697 -0.8629  2.3163
 6590TIP3   OH241260   4.054   6.530   5.080 -0.3779  0.1896  0.5503
 6590TIP3    H141261   4.127   6.535   5.018 -1.0939  4.6521 -0.3106
 6590TIP3    H241262   4.091   6.485   5.156  2.4636 -0.0484 -0.8239
 6591TIP3   OH241263   4.163   6.744   2.278  0.2447  0.0746  0.1801
 6591TIP3    H141264   4.070   6.730   2.293  0.2784 -3.1449 -1.7123
 6591TIP3    H241265   4.206   6.696   2.349  0.4390  0.1315  0.1027
 6592TIP3   OH241266   2.249   1.568   0.992 -0.0827  0.0394  0.5194
 6592TIP3    H141267   2.265   1.474   0.992  1.8935  0.3164 -0.8118
 6592TIP3    H241268   2.169   1.579   1.043  0.5241 -2.2041  2.1148
 6593TIP3   OH241269   3.338   2.477   3.011 -0.5166  0.5562 -0.8430
 6593TIP3    H141270   3.420   2.439   2.981 -0.4669  0.5852 -0.7439
 6593TIP3    H241271   3.280   2.402   3.023 -0.6219  0.5642 -1.2657
 6594TIP3   OH241272   0.168   3.054   5.479 -0.1412  0.0685 -0.2420
 6594TIP3    H141273   0.132   2.966   5.472 -0.2142  0.0024  0.7739
 6594TIP3    H241274   0.247   3.043   5.532 -0.3174  0.6488  0.1540
 6595TIP3   OH241275   1.368   5.608  14.751  0.0516 -0.3324  0.4394
 6595TIP3    H141276   1.449   5.568  14.717  0.1162  0.5631 -0.5194
 6595TIP3    H241277   1.398   5.684  14.801 -0.1580 -0.4365  0.7234
 6596TIP3   OH241278   4.231   1.230  13.666 -0.4490 -0.0103 -0.4716
 6596TIP3    H141279   4.259   1.286  13.594 -0.1856  0.8973  0.3031
 6596TIP3    H241280   4.153   1.274  13.702 -1.6826 -1.4124 -1.3109
 6597TIP3   OH241281   4.082   4.285  15.999 -0.0690 -0.0071 -0.6047
 6597TIP3    H141282   4.131   4.358  16.037  0.4404 -0.0085 -1.2371
 6597TIP3    H241283   3.999   4.286  16.046  1.1079 -1.0154  1.6653
 6598TIP3   OH241284   6.501   6.318  15.376  0.2026 -0.2160  0.1200
 6598TIP3    H141285   6.420   6.292  15.420  0.5643  0.0192  0.9559
 6598TIP3    H241286   6.543   6.378  15.438  1.9545 -1.8237  0.5649
 6599TIP3   OH241287   3.078   6.546  11.436 -0.1039  0.3714 -0.2319
 6599TIP3    H141288   3.073   6.481  11.505  0.2099  0.3568 -0.2231
 6599TIP3    H241289   3.099   6.628  11.480  0.2744  0.3270 -0.3303
 6600TIP3   OH241290   4.369   4.078  11.257  0.1130  0.2786 -0.1188
 6600TIP3    H141291   4.437   4.104  11.196 -0.7882  1.6400 -0.5979
 6600TIP3    H241292   4.414   4.025  11.323  1.8388  1.9982  0.1592
 6601TIP3   OH241293   3.410   3.161  16.694 -0.0635 -0.3019  0.6321
 6601TIP3    H141294   3.329   3.130  16.652 -0.3508  0.2911  0.7439
 6601TIP3    H241295   3.386   3.174  16.786  0.6365 -1.8708  1.0788
 6602TIP3   OH241296   1.931   3.220   4.520 -0.8314 -0.6000 -0.1304
 6602TIP3    H141297   1.861   3.176   4.472 -2.6170  1.8603  0.0814
 6602TIP3    H241298   1.888   3.258   4.596  0.8377  0.5674  0.2774
 6603TIP3   OH241299   5.622   0.139   0.960 -0.3035  0.1067 -0.1472
 6603TIP3    H141300   5.555   0.099   1.016  0.3476 -2.4225 -1.0267
 6603TIP3    H241301   5.574   0.173   0.885 -0.7672 -0.6081 -0.1881
 6604TIP3   OH241302   1.539   1.087   6.220 -0.0243 -0.4507 -0.0889
 6604TIP3    H141303   1.630   1.104   6.197 -0.3791  0.1182 -1.1395
 6604TIP3    H241304   1.490   1.163   6.187 -0.7486 -0.1862  1.4899
 6605TIP3   OH241305   2.786   6.637  14.376  0.5402  0.1297  0.0988
 6605TIP3    H141306   2.782   6.689  14.295  0.5093 -2.1489 -1.4557
 6605TIP3    H241307   2.879   6.628  14.394  0.5535  0.4668  0.2090
 6606TIP3   OH241308   5.958   5.767  11.310 -0.2267  0.2210 -0.6027
 6606TIP3    H141309   5.910   5.713  11.374  1.7201 -0.4900  0.3666
 6606TIP3    H241310   5.937   5.728  11.225 -1.0338 -0.3041 -0.1767
 6607TIP3   OH241311   3.962   0.999  15.676 -0.3486  0.0960 -0.1872
 6607TIP3    H141312   3.889   1.061  15.668 -1.2987 -0.6790  1.8178
 6607TIP3    H241313   3.941   0.928  15.616 -0.5934  0.4682 -0.5444
 6608TIP3   OH241314   6.420   5.638  13.881 -0.3944  0.2311  0.8160
 6608TIP3    H141315   6.358   5.700  13.918 -1.5310 -0.0384 -0.5770
 6608TIP3    H241316   6.470   5.688  13.817  0.6347  0.3639  1.6909
 6609TIP3   OH241317   6.159   4.239   1.355  0.3905  0.2040  0.1752
 6609TIP3    H141318   6.095   4.276   1.415  0.2761 -1.0860  0.8812
 6609TIP3    H241319   6.209   4.314   1.324  0.2445  0.9379  1.6408
 6610TIP3   OH241320   0.739   5.080  11.530 -0.0376  0.2042  0.2056
 6610TIP3    H141321   0.646   5.059  11.536 -0.1481  0.8094  0.7467
 6610TIP3    H241322   0.782   4.996  11.515 -0.5704 -0.2346  1.0838
 6611TIP3   OH241323   4.814   6.221   4.952 -0.4220 -0.3629 -0.1587
 6611TIP3    H141324   4.860   6.301   4.979 -0.2340 -0.1601 -1.0483
 6611TIP3    H241325   4.732   6.223   5.003 -0.8336  0.8757 -0.8271
 6612TIP3   OH241326   5.559   5.228   0.716 -0.7046 -0.0211 -0.2732
 6612TIP3    H141327   5.621   5.288   0.758  0.2775 -1.5558  0.5921
 6612TIP3    H241328   5.475   5.249   0.755 -0.6996  1.7790 -1.1068
 6613TIP3   OH241329   6.541   1.333   5.365  0.4822 -0.3903  0.5102
 6613TIP3    H141330   6.549   1.249   5.410  1.2489 -0.5820  0.0450
 6613TIP3    H241331   6.606   1.389   5.408 -0.2249  0.0551  1.0083
 6614TIP3   OH241332   6.838   0.699   2.646 -0.4930 -0.4762  0.5403
 6614TIP3    H141333   6.746   0.683   2.666 -0.8402  2.0747  1.2905
 6614TIP3    H241334   6.885   0.676   2.726 -0.9364  1.7071  1.4789
 6615TIP3   OH241335   6.548   5.611   0.755  0.4018  0.0549  0.6120
 6615TIP3    H141336   6.479   5.647   0.811  0.4041  1.9820 -0.5582
 6615TIP3    H241337   6.503   5.549   0.698 -0.2716  0.8118  0.3057
 6616TIP3   OH241338   6.638   0.655  11.484  0.2976  0.2085 -0.7717
 6616TIP3    H141339   6.585   0.731  11.459  1.1490  0.7157 -1.0524
 6616TIP3    H241340   6.663   0.615  11.401 -0.5055 -0.6484 -0.6180
 6617TIP3   OH241341   5.388   2.910   2.619  0.0758 -0.3005 -0.8869
 6617TIP3    H141342   5.355   2.972   2.554  0.7622  0.0859 -0.8842
 6617TIP3    H241343   5.324   2.840   2.621 -1.5361  1.1085  0.1670
 6618TIP3   OH241344   0.148   2.198  15.520  0.3754  0.1989  0.1886
 6618TIP3    H141345   0.105   2.141  15.456  0.0386  2.6921 -1.9744
 6618TIP3    H241346   0.085   2.203  15.593 -0.7617 -0.1247 -0.7396
 6619TIP3   OH241347   1.677   4.972   5.873 -0.6901  0.0346  0.8310
 6619TIP3    H141348   1.769   4.959   5.853 -0.9523 -1.8383  0.6132
 6619TIP3    H241349   1.659   5.062   5.847  0.4564 -0.3754 -1.6636
 6620TIP3   OH241350   0.498   2.969   3.871 -0.0408 -0.1242  0.2849
 6620TIP3    H141351   0.448   2.892   3.897 -1.7499  0.8160 -0.0801
 6620TIP3    H241352   0.556   2.937   3.801 -0.5109 -1.1327  0.3429
 6621TIP3   OH241353   0.038   5.318  12.479 -0.0248 -0.0751  0.1331
 6621TIP3    H141354  -0.052   5.317  12.513 -0.5457 -0.3222 -1.2054
 6621TIP3    H241355   0.031   5.360  12.394  1.2099  0.2533  0.1789
 6622TIP3   OH241356   4.492   6.698  10.333  0.7687 -0.0283  0.1367
 6622TIP3    H141357   4.445   6.735  10.408  0.3891  0.3196 -0.2726
 6622TIP3    H241358   4.577   6.742  10.333  0.2718  0.9501 -0.4265
 6623TIP3   OH241359   4.474   2.595  12.918  0.4294  0.2478  0.7907
 6623TIP3    H141360   4.478   2.631  13.007  0.8542 -1.4960  1.5021
 6623TIP3    H241361   4.566   2.583  12.893  0.3119  0.7205  0.0930
 6624TIP3   OH241362   6.326   5.675   0.929  0.2893  0.2141  0.0288
 6624TIP3    H141363   6.321   5.620   1.007 -0.6859  0.8684  0.4475
 6624TIP3    H241364   6.249   5.650   0.877  0.8398 -0.1023 -0.6572
 6625TIP3   OH241365   6.461   4.014  14.299 -0.1373  0.2802  0.4109
 6625TIP3    H141366   6.375   4.030  14.260  0.3330  0.3810 -0.6034
 6625TIP3    H241367   6.513   4.090  14.276  0.3482  0.0334  0.6719
 6626TIP3   OH241368   1.188   5.377   4.370 -0.0007  0.1056 -0.0509
 6626TIP3    H141369   1.238   5.339   4.442 -1.1942 -2.3673 -0.4116
 6626TIP3    H241370   1.129   5.440   4.411 -1.3583 -1.9591  1.3504
 6627TIP3   OH241371   5.549   3.037  11.418 -0.5437 -0.3591  0.3840
 6627TIP3    H141372   5.495   3.080  11.352 -2.4679 -0.1496  1.9892
 6627TIP3    H241373   5.635   3.076  11.408 -1.7877  2.7100  0.6405
 6628TIP3   OH241374   5.808   6.064  13.148 -0.2659  0.4890 -0.1612
 6628TIP3    H141375   5.713   6.058  13.146 -0.2914  0.3975  0.7990
 6628TIP3    H241376   5.833   6.018  13.228  0.5143  1.3117  0.0825
 6629TIP3   OH241377   5.663   0.390  13.073 -0.0554  0.0695  0.2041
 6629TIP3    H141378   5.649   0.313  13.017  1.6885 -0.4492  0.4180
 6629TIP3    H241379   5.747   0.373  13.116 -0.0200  1.7471  0.8614
 6630TIP3   OH241380   0.670   0.782   1.128  0.1668  0.2048  0.2570
 6630TIP3    H141381   0.691   0.875   1.135 -0.3240  0.3041  0.4271
 6630TIP3    H241382   0.723   0.752   1.054 -1.3282  1.1277 -1.2825
 6631TIP3   OH241383   2.475   2.989   0.399 -0.2841  0.0791 -0.4212
 6631TIP3    H141384   2.514   2.914   0.355  0.5193  0.2645 -0.0349
 6631TIP3    H241385   2.477   3.059   0.333 -0.8907 -0.1876 -0.7292
 6632TIP3   OH241386   5.342   1.985   5.503 -0.2258 -0.4458  0.0507
 6632TIP3    H141387   5.438   1.985   5.501 -0.1984 -0.3493  1.0814
 6632TIP3    H241388   5.318   2.078   5.503 -0.3759 -0.4555 -1.7159
 6633TIP3   OH241389   4.704   2.337  16.978  0.6180  0.2919 -0.1990
 6633TIP3    H141390   4.683   2.258  16.928  1.8941 -1.7270  2.2276
 6633TIP3    H241391   4.620   2.365  17.015  0.3796 -0.8980  0.1976
 6634TIP3   OH241392   1.463   0.965  13.605  0.2524  0.1105  0.7931
 6634TIP3    H141393   1.552   0.962  13.569  0.5674 -1.4258  1.6001
 6634TIP3    H241394   1.442   0.873  13.624 -1.6658  0.4066  0.2632
 6635TIP3   OH241395   5.885   2.143  12.480 -0.0514  0.2899 -0.0870
 6635TIP3    H141396   5.793   2.165  12.464 -0.1569  0.9399  1.3329
 6635TIP3    H241397   5.927   2.155  12.395 -0.7471  2.7683 -0.1553
 6636TIP3   OH241398   2.803   5.280  15.578 -0.2112  0.4244  0.4179
 6636TIP3    H141399   2.762   5.229  15.508 -0.4256  0.4124  0.5487
 6636TIP3    H241400   2.894   5.289  15.552  0.1042 -1.0007  0.9527
 6637TIP3   OH241401   2.407   1.627   5.187  0.0331 -0.1274  0.2982
 6637TIP3    H141402   2.350   1.554   5.163  0.2328 -1.3168  3.1177
 6637TIP3    H241403   2.458   1.644   5.108 -1.7480 -1.3541 -1.2000
 6638TIP3   OH241404   4.849   3.156   4.682 -0.7187  0.1754  0.1640
 6638TIP3    H141405   4.923   3.189   4.733  0.0772 -0.6627 -0.4056
 6638TIP3    H241406   4.800   3.234   4.656 -0.9427  0.6370  1.8905
 6639TIP3   OH241407   0.157   3.898  13.702  0.8323 -0.1434 -0.3225
 6639TIP3    H141408   0.220   3.945  13.756 -0.2871  0.3680  0.5856
 6639TIP3    H241409   0.110   3.841  13.763  0.5573 -0.6636 -1.0115
 6640TIP3   OH241410   5.423   1.747  12.432 -1.0313 -0.2204  0.6072
 6640TIP3    H141411   5.405   1.760  12.525 -1.0874  0.4986  0.4981
 6640TIP3    H241412   5.422   1.652  12.421 -1.2622 -0.3034  1.2914
 6641TIP3   OH241413   2.337   0.745  14.300  0.8143 -0.0781  0.7097
 6641TIP3    H141414   2.285   0.811  14.255  0.9314 -0.3823  0.1170
 6641TIP3    H241415   2.400   0.715  14.235 -0.1432 -1.7852  0.5042
 6642TIP3   OH241416   2.481   2.816  14.265 -0.1038  0.4475  0.7694
 6642TIP3    H141417   2.538   2.874  14.215 -2.0632 -1.0763 -3.7579
 6642TIP3    H241418   2.396   2.861  14.266 -0.4889 -0.2614  1.3688
 6643TIP3   OH241419   4.345   5.987   3.964 -0.3186  0.9221 -0.0001
 6643TIP3    H141420   4.371   6.058   4.023  0.4029  0.3536  0.3971
 6643TIP3    H241421   4.251   5.998   3.952 -0.6523  0.5651  1.9619
 6644TIP3   OH241422   5.475   2.116  12.993 -0.1600 -0.1283 -0.4367
 6644TIP3    H141423   5.536   2.070  12.936  1.4683  0.5914  0.6645
 6644TIP3    H241424   5.422   2.046  13.032  1.2952 -0.9689  0.1055
 6645TIP3   OH241425   3.656   5.413   2.969 -0.3147 -0.0954 -0.1937
 6645TIP3    H141426   3.594   5.462   2.915 -2.9392 -2.0165  0.8224
 6645TIP3    H241427   3.663   5.328   2.927  0.3831 -0.4360  0.5845
 6646TIP3   OH241428   3.163   3.212   6.135 -0.2583  0.1488 -0.4149
 6646TIP3    H141429   3.161   3.289   6.192 -0.1233  0.3546 -0.6835
 6646TIP3    H241430   3.219   3.150   6.181 -2.3461 -0.7921  1.0505
 6647TIP3   OH241431   5.430   0.261  15.236 -0.2404  0.3274  0.1304
 6647TIP3    H141432   5.362   0.224  15.292  0.3326 -0.1194  0.5467
 6647TIP3    H241433   5.428   0.208  15.157  1.4065 -1.4589  1.2129
 6648TIP3   OH241434   5.338   6.677   3.983 -0.2619  0.1272  0.7306
 6648TIP3    H141435   5.298   6.640   3.903  0.1655  2.7496 -0.7995
 6648TIP3    H241436   5.265   6.684   4.044 -1.2266  0.6539 -0.4366
 6649TIP3   OH241437   4.671   5.213   0.772 -0.5323  0.4985 -0.1696
 6649TIP3    H141438   4.739   5.209   0.705  0.1834 -0.5307  0.5851
 6649TIP3    H241439   4.617   5.136   0.757  0.1654 -0.2435  0.9551
 6650TIP3   OH241440   5.299   0.052  13.651  0.3846 -0.0033  0.7021
 6650TIP3    H141441   5.305   0.094  13.737 -0.8715 -0.7537  1.1860
 6650TIP3    H241442   5.364  -0.019  13.654  2.9396  2.1219 -0.3296
 6651TIP3   OH241443   5.137   4.701  14.728  0.6086 -0.1930  0.9783
 6651TIP3    H141444   5.084   4.639  14.678 -1.4957  1.0609  1.5676
 6651TIP3    H241445   5.184   4.751  14.661 -1.9822  1.3003  0.1249
 6652TIP3   OH241446   6.564   5.211  11.183  0.6360  0.1193 -0.8810
 6652TIP3    H141447   6.600   5.273  11.246  1.1187  0.6155 -1.6304
 6652TIP3    H241448   6.624   5.214  11.108  0.3216 -0.7863 -1.1867
 6653TIP3   OH241449   6.305   1.489  16.421 -0.2079  0.1535  0.1315
 6653TIP3    H141450   6.275   1.551  16.355  0.7483  1.4331  0.8516
 6653TIP3    H241451   6.340   1.415  16.371 -0.2047  0.7501 -0.7679
 6654TIP3   OH241452   2.177   3.235  15.675  0.1431 -0.1950 -0.3286
 6654TIP3    H141453   2.263   3.268  15.700 -0.5894  2.0174 -0.4861
 6654TIP3    H241454   2.119   3.311  15.687 -1.4554 -1.1033 -1.9836
 6655TIP3   OH241455   2.533   0.261  14.719  0.0115 -0.2276 -0.0404
 6655TIP3    H141456   2.509   0.207  14.643 -0.2879 -0.2570  0.0737
 6655TIP3    H241457   2.520   0.203  14.794 -0.7019  0.1303  0.1158
 6656TIP3   OH241458   1.995   4.672   5.627  0.1172 -0.3717 -0.1999
 6656TIP3    H141459   2.085   4.658   5.655  0.3207  0.6940 -0.2707
 6656TIP3    H241460   1.942   4.623   5.690  0.6216  1.0242  1.3684
 6657TIP3   OH241461   0.410   0.799   2.430 -0.2282 -0.2563 -0.0440
 6657TIP3    H141462   0.324   0.771   2.399 -0.3865  1.0063 -0.8137
 6657TIP3    H241463   0.411   0.894   2.417  1.1236 -0.1910  0.3462
 6658TIP3   OH241464   4.069   6.378  14.202  0.1245 -0.6044 -0.9526
 6658TIP3    H141465   4.132   6.318  14.241 -0.1027 -0.1105  0.2103
 6658TIP3    H241466   3.984   6.350  14.235 -0.0189  0.1372 -0.6590
 6659TIP3   OH241467   3.759   0.843  10.431 -0.3263 -0.3210  0.4107
 6659TIP3    H141468   3.777   0.812  10.342 -2.3886 -1.4103  0.3190
 6659TIP3    H241469   3.845   0.843  10.474  0.8154  0.7631 -1.6904
 6660TIP3   OH241470   5.215   0.166   3.752  0.2548 -0.0240 -0.4137
 6660TIP3    H141471   5.291   0.117   3.783  0.3893 -0.0526 -0.7787
 6660TIP3    H241472   5.223   0.164   3.656 -0.8496 -1.0581 -0.5093
 6661TIP3   OH241473   2.040   5.635   4.740 -0.2695 -0.1039  0.2572
 6661TIP3    H141474   2.012   5.601   4.825  0.4270  0.6420  0.8025
 6661TIP3    H241475   2.057   5.728   4.756  3.4356 -0.6590  0.2473
 6662TIP3   OH241476   6.137   4.937  15.964  0.4649  0.1280  0.6850
 6662TIP3    H141477   6.071   4.959  15.899  0.9566 -1.5391 -0.4375
 6662TIP3    H241478   6.099   4.865  16.014 -0.2931  1.9654  2.9442
 6663TIP3   OH241479   1.486   6.816  13.972 -0.3850  0.2365 -0.1890
 6663TIP3    H141480   1.565   6.772  14.004  1.3921  4.2765  1.7256
 6663TIP3    H241481   1.518   6.876  13.905 -2.3839 -0.1801 -1.5826
 6664TIP3   OH241482   0.571   1.109  14.709  0.6046  0.1323  0.0883
 6664TIP3    H141483   0.523   1.184  14.673 -1.9112 -2.0548 -1.4946
 6664TIP3    H241484   0.627   1.079  14.638 -0.3931 -0.9828 -0.2838
 6665TIP3   OH241485   3.944   3.149  11.442  0.0695  0.1885 -0.3034
 6665TIP3    H141486   3.927   3.059  11.472 -1.0780  0.6549  0.5384
 6665TIP3    H241487   4.001   3.186  11.509  1.8082 -0.3572 -1.4367
 6666TIP3   OH241488   3.886   2.931   5.511  0.6273 -0.5009  0.2380
 6666TIP3    H141489   3.848   2.994   5.572  1.0798  0.5824 -0.5526
 6666TIP3    H241490   3.905   2.982   5.432  1.5564 -1.5009 -0.2263
 6667TIP3   OH241491   2.837   0.876  13.859  0.1537 -0.0971  0.3406
 6667TIP3    H141492   2.836   0.952  13.801  2.7970  0.0009  0.3139
 6667TIP3    H241493   2.876   0.806  13.807 -1.2733 -1.2317  0.7151
 6668TIP3   OH241494   6.072   4.055   1.169  0.4533  0.0273  0.2248
 6668TIP3    H141495   6.083   4.113   1.245 -0.7166  1.6546 -0.7531
 6668TIP3    H241496   6.100   4.108   1.094  0.2286 -1.0100 -0.6219
 6669TIP3   OH241497   5.988   4.501   3.936  0.7375  0.0378  0.0125
 6669TIP3    H141498   6.026   4.524   3.851 -2.0398  1.9539 -0.8537
 6669TIP3    H241499   6.056   4.525   3.999  2.1590  0.3303 -1.5390
 6670TIP3   OH241500   1.746   2.172  11.890  0.5969  0.1871 -0.0469
 6670TIP3    H141501   1.705   2.195  11.807  1.3885 -1.4759 -0.9630
 6670TIP3    H241502   1.825   2.226  11.894  0.6822  0.1027 -0.5113
 6671TIP3   OH241503   4.498   0.189  14.240  0.2720 -0.2583  0.1324
 6671TIP3    H141504   4.487   0.114  14.182 -0.0174  0.6015 -0.9492
 6671TIP3    H241505   4.588   0.219  14.223 -0.6006  1.4668 -1.7055
 6672TIP3   OH241506   2.831   6.045  11.734 -0.3698 -0.3895  0.1068
 6672TIP3    H141507   2.843   6.004  11.820 -1.5651  0.5989  0.7825
 6672TIP3    H241508   2.737   6.034  11.715 -0.5451  1.1762 -0.0965
 6673TIP3   OH241509   0.059   4.321   5.233  0.3245  0.6935 -0.1923
 6673TIP3    H141510   0.014   4.295   5.153 -0.9118  1.3792  0.2463
 6673TIP3    H241511   0.151   4.332   5.207  0.2629 -0.7244 -1.1168
 6674TIP3   OH241512   2.352   0.281   3.526 -0.2814 -0.4437 -0.3539
 6674TIP3    H141513   2.391   0.332   3.455 -0.2797 -0.4568 -0.3624
 6674TIP3    H241514   2.418   0.280   3.595 -1.0717  1.3790  0.5098
 6675TIP3   OH241515   2.023   3.226   1.056  0.1446  0.1107 -0.1934
 6675TIP3    H141516   1.953   3.254   0.997 -0.8939 -1.2942  0.3085
 6675TIP3    H241517   2.029   3.131   1.044  0.3786 -0.1188  1.4311
 6676TIP3   OH241518   4.975   6.714   5.788 -0.2103 -0.5388 -0.3211
 6676TIP3    H141519   4.928   6.634   5.811  0.3711 -0.5082  1.0571
 6676TIP3    H241520   4.980   6.764   5.870  0.1539  0.5413 -0.9725
 6677TIP3   OH241521   3.228   2.319   0.561  0.0641  0.3086 -0.5208
 6677TIP3    H141522   3.250   2.252   0.624  1.3458  0.4253 -0.8189
 6677TIP3    H241523   3.196   2.393   0.614 -0.3095 -0.1289 -0.1293
 6678TIP3   OH241524   0.811   2.463  12.540 -0.5966 -0.1208  0.5469
 6678TIP3    H141525   0.776   2.464  12.629 -1.5587  1.8619  0.2070
 6678TIP3    H241526   0.825   2.555  12.518  0.9675 -0.6329 -0.8629
 6679TIP3   OH241527   2.792   1.277   1.061 -0.4012 -0.1745 -0.2513
 6679TIP3    H141528   2.864   1.249   1.117 -1.7594  0.8186  2.1783
 6679TIP3    H241529   2.794   1.373   1.064 -2.1994 -0.1082  0.5212
 6680TIP3   OH241530   5.296   0.125   5.818 -0.7984 -0.2015  0.0075
 6680TIP3    H141531   5.291   0.220   5.825  0.0588 -0.0831 -0.7180
 6680TIP3    H241532   5.232   0.102   5.751  0.2974  0.0883 -1.1826
 6681TIP3   OH241533   5.917   3.768   0.367 -0.2725  0.5719 -0.1960
 6681TIP3    H141534   5.873   3.769   0.453  1.5402  0.8599  0.7762
 6681TIP3    H241535   5.881   3.691   0.323 -0.5975 -0.0913  1.1712
 6682TIP3   OH241536   1.319   2.513   1.832  0.6570 -0.0519 -0.1156
 6682TIP3    H141537   1.277   2.439   1.877 -1.6347  0.6409 -0.9861
 6682TIP3    H241538   1.263   2.588   1.853  0.9009  0.7421 -2.1308
 6683TIP3   OH241539   0.204   3.943  13.120 -0.1217  0.1441 -0.3971
 6683TIP3    H141540   0.298   3.956  13.131 -0.0036 -0.6954 -0.3427
 6683TIP3    H241541   0.188   3.957  13.027  0.3942 -1.5501 -0.7809
 6684TIP3   OH241542   5.667   3.100   5.306  0.1481  1.0572 -0.6593
 6684TIP3    H141543   5.646   3.061   5.221  0.3442 -0.7841  0.0899
 6684TIP3    H241544   5.583   3.105   5.352 -0.1435  3.0729 -1.3070
 6685TIP3   OH241545   3.823   1.717   1.327 -0.0954 -0.7078  0.7152
 6685TIP3    H141546   3.896   1.684   1.275  0.0859  1.9316 -0.8676
 6685TIP3    H241547   3.813   1.653   1.397  3.7112 -1.2366  0.9943
 6686TIP3   OH241548   4.009   1.649   1.141 -0.0778  0.0350 -0.0433
 6686TIP3    H141549   4.047   1.736   1.154  3.3752 -1.0198 -1.6204
 6686TIP3    H241550   4.000   1.641   1.047 -2.9654 -0.4575  0.1821
 6687TIP3   OH241551   2.672   3.719  13.272  0.7237  0.1524 -0.3628
 6687TIP3    H141552   2.687   3.806  13.235 -1.2018  0.0453 -1.4987
 6687TIP3    H241553   2.587   3.691  13.237 -0.4995 -0.6647  2.8294
 6688TIP3   OH241554   5.262   0.483   3.781 -0.0432  0.0806  0.4414
 6688TIP3    H141555   5.188   0.512   3.835 -0.7505  1.1265 -0.9899
 6688TIP3    H241556   5.246   0.390   3.766 -1.3814  0.3884 -0.2363
 6689TIP3   OH241557   3.773   5.892   4.501 -0.1220  0.3137  0.1321
 6689TIP3    H141558   3.774   5.801   4.531 -2.0900  0.3306  0.3939
 6689TIP3    H241559   3.705   5.934   4.553  0.2585  1.7767 -0.4836
 6690TIP3   OH241560   2.620   0.778  16.661  0.4750 -0.5241 -0.0776
 6690TIP3    H141561   2.611   0.712  16.592 -1.3489 -0.7183  0.3089
 6690TIP3    H241562   2.685   0.840  16.626  0.0843 -0.9721 -1.6933
 6691TIP3   OH241563   5.546   6.380  13.236 -0.1196 -0.5568  0.5717
 6691TIP3    H141564   5.623   6.356  13.185 -0.8019 -2.5485  0.3946
 6691TIP3    H241565   5.489   6.424  13.173  0.1242 -0.6856  0.2574
 6692TIP3   OH241566   3.224   4.033  14.893  0.1541  0.4156 -0.3195
 6692TIP3    H141567   3.196   4.071  14.809 -4.2455 -0.2536  0.6306
 6692TIP3    H241568   3.189   4.092  14.959  1.9259 -0.0762  1.1493
 6693TIP3   OH241569   3.125   0.381  13.428 -0.8304  0.1812  0.3006
 6693TIP3    H141570   3.216   0.371  13.456 -0.7765 -1.2984 -0.3074
 6693TIP3    H241571   3.124   0.464  13.379 -0.2437  1.1744  1.8916
 6694TIP3   OH241572   2.552   1.087  13.829 -0.4725  0.4064  0.4082
 6694TIP3    H141573   2.466   1.128  13.816 -0.6999  0.5646  2.2100
 6694TIP3    H241574   2.533   1.005  13.874  0.4035  1.2440  2.4252
 6695TIP3   OH241575   6.710   2.180   5.033  0.0165 -0.1771 -0.3281
 6695TIP3    H141576   6.718   2.182   5.128 -1.1823 -0.2447 -0.2193
 6695TIP3    H241577   6.686   2.270   5.009 -3.4329 -0.9483 -0.1791
 6696TIP3   OH241578   2.616   6.750   0.280  0.3700  0.3735 -0.1755
 6696TIP3    H141579   2.702   6.718   0.305  0.6076  1.4741  0.4777
 6696TIP3    H241580   2.579   6.787   0.360 -1.3113 -1.3002 -0.0908
 6697TIP3   OH241581   1.900   2.439   4.814  0.0489 -0.8096  0.6066
 6697TIP3    H141582   1.899   2.343   4.807  0.1542 -0.7207 -1.3122
 6697TIP3    H241583   1.840   2.468   4.746  1.1999  0.5133  0.1184
 6698TIP3   OH241584   0.536   5.861  16.116 -0.0176 -0.2192  0.6059
 6698TIP3    H141585   0.627   5.845  16.139  0.4237 -0.1176 -0.9823
 6698TIP3    H241586   0.528   5.831  16.025 -1.6508 -0.5440  0.8216
 6699TIP3   OH241587   3.858   5.506   1.085  0.2851 -0.7258  0.4382
 6699TIP3    H141588   3.907   5.532   1.162  0.0453  0.3341  0.2382
 6699TIP3    H241589   3.767   5.506   1.113  0.1186  0.4964 -0.0620
 6700TIP3   OH241590   1.620   4.512  10.850 -0.0886  0.0195  0.3978
 6700TIP3    H141591   1.663   4.519  10.764 -0.2905 -0.3876  0.2594
 6700TIP3    H241592   1.548   4.451  10.835 -0.4396  0.3505  0.7366
 6701TIP3   OH241593   3.054   1.394   5.091 -0.9269 -0.0934  0.2535
 6701TIP3    H141594   3.085   1.408   5.002 -0.1848 -1.8750  0.1997
 6701TIP3    H241595   2.980   1.334   5.082 -0.3631 -0.9019  0.8759
 6702TIP3   OH241596   0.995   1.119  14.432 -0.4859 -0.5262  0.1511
 6702TIP3    H141597   1.036   1.059  14.371  0.0616  0.1282 -0.1408
 6702TIP3    H241598   0.901   1.103  14.423 -0.4114 -0.3760 -0.9235
 6703TIP3   OH241599   4.027   2.605  13.052  0.4747  0.2161 -0.0926
 6703TIP3    H141600   4.083   2.642  12.983  0.3948  1.0622  0.2793
 6703TIP3    H241601   4.073   2.528  13.082  0.3194 -0.4003 -1.3718
 6704TIP3   OH241602   4.668   0.948  10.602  0.0126  0.0155 -0.4864
 6704TIP3    H141603   4.763   0.958  10.603 -0.0230  0.3451 -0.4302
 6704TIP3    H241604   4.652   0.883  10.533  0.2625  0.1549 -0.6796
 6705TIP3   OH241605   3.218   3.100   1.875  0.4905 -0.2375 -0.4212
 6705TIP3    H141606   3.137   3.109   1.825 -0.8703  0.7647  1.8337
 6705TIP3    H241607   3.212   3.015   1.917  0.0299  0.2959  0.6371
 6706TIP3   OH241608   2.275   3.414   0.738  0.0612 -0.1213 -0.0599
 6706TIP3    H141609   2.368   3.437   0.745  0.4584 -1.9987  1.8751
 6706TIP3    H241610   2.229   3.488   0.779  0.6424  0.8652 -1.1095
 6707TIP3   OH241611   0.421   1.333  10.917  0.5695  0.3546  0.4235
 6707TIP3    H141612   0.406   1.256  10.971 -0.4337 -0.0767 -0.4250
 6707TIP3    H241613   0.335   1.376  10.913  0.4411  0.0085 -1.3522
 6708TIP3   OH241614   0.305   1.823   0.417  0.2647  0.1032  0.1038
 6708TIP3    H141615   0.321   1.740   0.372  1.9757  0.3539  0.1718
 6708TIP3    H241616   0.294   1.887   0.347  1.4632  0.2328  0.0062
 6709TIP3   OH241617   0.180   5.583  11.235 -0.2558  0.2196  0.1322
 6709TIP3    H141618   0.118   5.643  11.278  0.0416  0.3977  0.3180
 6709TIP3    H241619   0.252   5.639  11.207  1.1984 -0.3268  2.4354
 6710TIP3   OH241620   1.212   6.209   1.046 -0.3440  0.2843  0.1540
 6710TIP3    H141621   1.253   6.124   1.059 -0.9556 -0.1353 -0.6134
 6710TIP3    H241622   1.283   6.265   1.014 -0.3111 -0.3847 -0.9830
 6711TIP3   OH241623   0.187   5.838   1.724  0.6143  0.2614  0.1034
 6711TIP3    H141624   0.142   5.765   1.682  0.2051  0.7394 -0.3089
 6711TIP3    H241625   0.116   5.895   1.756  0.8758  1.6531 -1.6470
 6712TIP3   OH241626   4.674   2.975  15.677  0.0863 -0.4340 -0.0526
 6712TIP3    H141627   4.631   3.046  15.724  0.3992 -0.1947 -0.1247
 6712TIP3    H241628   4.648   2.896  15.724  0.7857 -0.1534  0.8147
 6713TIP3   OH241629   5.867   4.552   1.570  0.9832  0.0949 -0.5194
 6713TIP3    H141630   5.825   4.630   1.606 -0.5605 -1.1979  0.6546
 6713TIP3    H241631   5.821   4.535   1.488  1.7678  0.7676 -1.1109
 6714TIP3   OH241632   1.638   5.679  13.273 -0.0770 -0.7441 -0.4492
 6714TIP3    H141633   1.597   5.628  13.204 -1.1779 -0.4792 -0.0159
 6714TIP3    H241634   1.571   5.687  13.341  0.1075  1.1045 -0.4214
 6715TIP3   OH241635   5.906   5.050   5.766  0.3164 -0.1037  0.8682
 6715TIP3    H141636   5.840   5.055   5.697  0.4922 -0.7996  0.6358
 6715TIP3    H241637   5.858   5.066   5.847 -0.1472 -0.6473  0.7052
 6716TIP3   OH241638   1.269   4.007   0.162 -0.0092  0.4130  0.0318
 6716TIP3    H141639   1.201   4.072   0.143 -1.0277 -0.6641 -0.1508
 6716TIP3    H241640   1.349   4.045   0.126 -0.2588  2.2503  1.3150
 6717TIP3   OH241641   0.079   1.584  15.308 -0.4117  0.4229  0.1964
 6717TIP3    H141642   0.005   1.576  15.248 -0.4174  0.7057  0.1659
 6717TIP3    H241643   0.124   1.499  15.301 -1.3105 -0.1396  0.9841
 6718TIP3   OH241644   1.019   2.905  14.107  0.6599 -0.2830 -0.3386
 6718TIP3    H141645   1.096   2.949  14.072  1.2447 -1.6557 -0.8750
 6718TIP3    H241646   0.955   2.909  14.036  0.3085  0.6405  0.0175
 6719TIP3   OH241647   4.221   2.670   2.356  0.1968 -0.4485  0.1971
 6719TIP3    H141648   4.139   2.660   2.309  0.3726 -1.5413  0.1091
 6719TIP3    H241649   4.265   2.586   2.347  0.5883 -0.4325  1.6475
 6720TIP3   OH241650   3.016   3.310   3.336  0.5920  0.0227 -0.3053
 6720TIP3    H141651   2.953   3.239   3.344  1.2384 -0.4311  1.0717
 6720TIP3    H241652   3.096   3.276   3.376  0.9366  1.4936  0.3325
 6721TIP3   OH241653   6.709   3.753  17.088 -0.4649 -0.5325  0.3727
 6721TIP3    H141654   6.678   3.830  17.136 -2.1881 -1.1807  0.3693
 6721TIP3    H241655   6.654   3.751  17.009  1.8450  0.1228 -1.3673
 6722TIP3   OH241656   5.984   3.715   4.150 -0.6842  1.1731 -0.4766
 6722TIP3    H141657   5.979   3.797   4.198  1.9434  1.1934 -0.1092
 6722TIP3    H241658   6.018   3.739   4.064 -1.9548  0.6863 -1.1466
 6723TIP3   OH241659   4.491   6.741   0.683  0.0615 -1.4094 -0.3077
 6723TIP3    H141660   4.454   6.740   0.772  0.3599 -1.9534 -0.1828
 6723TIP3    H241661   4.584   6.723   0.697  0.3688 -0.1620 -0.6242
 6724TIP3   OH241662   0.416   0.168  13.211  0.3623  0.1286  0.1247
 6724TIP3    H141663   0.339   0.154  13.267  0.1440  1.0824  0.0873
 6724TIP3    H241664   0.435   0.261  13.221 -2.4183  1.5780 -4.7916
 6725TIP3   OH241665   6.700   1.647  16.326 -0.0531 -0.1133 -0.1911
 6725TIP3    H141666   6.711   1.556  16.353  3.0865  0.2303  0.0896
 6725TIP3    H241667   6.720   1.698  16.404 -0.7804  0.8237 -0.6033
 6726TIP3   OH241668   6.690   2.209   2.386 -0.5725 -0.2295 -0.0702
 6726TIP3    H141669   6.743   2.151   2.331  0.0316 -0.4655  0.7384
 6726TIP3    H241670   6.739   2.291   2.388 -0.4996 -0.2800  0.2563
 6727TIP3   OH241671   3.363   4.127  13.237 -0.4969  0.0816 -0.0101
 6727TIP3    H141672   3.317   4.135  13.320  2.7185 -2.0312  2.2039
 6727TIP3    H241673   3.367   4.217  13.204 -0.1180  1.4088  3.2316
 6728TIP3   OH241674   1.648   2.477  13.639 -0.3643  0.0587 -0.5885
 6728TIP3    H141675   1.670   2.570  13.643 -0.1791  0.0124 -0.5244
 6728TIP3    H241676   1.684   2.448  13.555  2.3933 -0.6726  0.7592
 6729TIP3   OH241677   0.478   2.119   1.181 -0.5078  0.2549 -0.4704
 6729TIP3    H141678   0.532   2.077   1.115  0.4951  0.7672  0.0033
 6729TIP3    H241679   0.393   2.130   1.139  0.0401  0.3424 -1.5885
 6730TIP3   OH241680   6.363   0.955   2.674  1.1062  0.2728 -0.1125
 6730TIP3    H141681   6.386   0.907   2.595 -1.5551 -0.8356 -0.3139
 6730TIP3    H241682   6.426   0.925   2.740  3.2369  1.0755 -1.6863
 6731TIP3   OH241683   4.487   0.490   3.452  0.1157  0.1770  0.1481
 6731TIP3    H141684   4.554   0.547   3.414  0.2041 -0.9582 -1.4940
 6731TIP3    H241685   4.406   0.514   3.407 -0.4905  1.1300  1.6949
 6732TIP3   OH241686   3.647   6.263  13.699 -0.0621 -0.6140 -0.4192
 6732TIP3    H141687   3.589   6.297  13.630 -0.6124  2.5137  1.3782
 6732TIP3    H241688   3.587   6.238  13.770  0.6180  0.2226  0.4820
 6733TIP3   OH241689   5.491   5.567  14.231  0.0563  0.3982 -0.0855
 6733TIP3    H141690   5.537   5.564  14.148 -0.0044  0.9526 -0.1437
 6733TIP3    H241691   5.559   5.556  14.297  0.0084 -0.8184 -0.2211
 6734TIP3   OH241692   0.893   6.499  14.726  0.1305  0.2869 -0.5144
 6734TIP3    H141693   0.927   6.425  14.675 -0.3568  1.5602 -2.8266
 6734TIP3    H241694   0.924   6.576  14.679 -1.1363  1.5328  0.6225
 6735TIP3   OH241695   1.120   1.005  14.204  0.6252  0.2257  0.5610
 6735TIP3    H141696   1.174   1.069  14.156  1.4157 -0.6789  0.2080
 6735TIP3    H241697   1.146   0.920  14.168 -0.6407 -0.2816  0.7927
 6736TIP3   OH241698   4.629   5.766  10.959 -0.1467 -0.5300  0.2900
 6736TIP3    H141699   4.644   5.732  10.872 -1.2912 -0.1206 -0.0881
 6736TIP3    H241700   4.566   5.705  10.999  1.4591 -1.5472  1.3900
 6737TIP3   OH241701   6.447   0.531   3.009  0.3127 -0.6693  0.0705
 6737TIP3    H141702   6.355   0.549   2.987 -0.4997 -1.5696  2.4381
 6737TIP3    H241703   6.470   0.458   2.952 -0.5896 -0.7589 -0.2107
 6738TIP3   OH241704   3.790   0.547   5.978  0.4446  0.1226  0.4006
 6738TIP3    H141705   3.712   0.549   6.034  1.1302  1.5023  1.3716
 6738TIP3    H241706   3.858   0.591   6.030  1.2044  1.1676 -1.3911
 6739TIP3   OH241707   2.737   4.059  15.927 -0.2939  0.0152  1.1960
 6739TIP3    H141708   2.748   4.147  15.962 -0.1291 -0.4625  2.3891
 6739TIP3    H241709   2.726   4.004  16.004  0.0058 -1.0718  0.4819
 6740TIP3   OH241710   0.244   2.337  11.411 -0.1770 -0.0327 -0.9135
 6740TIP3    H141711   0.248   2.284  11.491  0.1740  0.4601 -0.5990
 6740TIP3    H241712   0.316   2.305  11.357  1.2833  1.4180  0.0981
 6741TIP3   OH241713   0.947   2.651  14.700  0.2931  0.0749  0.2259
 6741TIP3    H141714   1.023   2.704  14.725 -0.3454 -0.0447  2.6802
 6741TIP3    H241715   0.912   2.619  14.783 -2.2519 -0.1458 -0.8406
 6742TIP3   OH241716   0.624   0.869   2.720  0.0052  0.0505 -0.0137
 6742TIP3    H141717   0.679   0.822   2.784 -0.1993 -1.3051 -0.7923
 6742TIP3    H241718   0.535   0.840   2.741 -0.2767  1.1244  0.3194
 6743TIP3   OH241719   5.993   1.565   5.635 -1.0591  0.0376  0.1044
 6743TIP3    H141720   6.087   1.580   5.626 -1.0571 -0.3461 -0.6227
 6743TIP3    H241721   5.985   1.470   5.646 -1.4044 -0.0228 -0.6115
 6744TIP3   OH241722   3.080   4.929  11.490 -0.1180 -0.1510  0.6329
 6744TIP3    H141723   3.046   4.937  11.401  0.0149  1.5905  0.6954
 6744TIP3    H241724   3.088   4.835  11.504 -3.5273 -0.6481  0.1317
 6745TIP3   OH241725   0.023   1.163   4.656 -0.2340 -0.1979  0.6149
 6745TIP3    H141726   0.061   1.220   4.723  0.9959  0.0826 -0.2787
 6745TIP3    H241727  -0.025   1.223   4.598 -0.2427 -0.2746  0.5426
 6746TIP3   OH241728   4.908   6.078  15.935 -0.3746  0.3333 -0.3557
 6746TIP3    H141729   4.962   6.022  15.879  0.2034 -1.4813  1.8950
 6746TIP3    H241730   4.820   6.071  15.898  0.2264  0.4475 -1.9148
 6747TIP3   OH241731   0.614   5.422  13.992 -0.5529 -0.4632 -0.0565
 6747TIP3    H141732   0.580   5.337  13.964 -1.5197 -0.1913  0.2387
 6747TIP3    H241733   0.636   5.410  14.084  0.7874 -0.8149 -0.4039
 6748TIP3   OH241734   5.737   4.373   0.235 -0.2392  0.3627 -0.7013
 6748TIP3    H141735   5.690   4.443   0.190 -0.8736  0.1843 -0.3397
 6748TIP3    H241736   5.722   4.296   0.179 -1.9232 -0.0996  0.3051
 6749TIP3   OH241737   5.859   3.462   1.096  0.2772  0.3580 -0.4589
 6749TIP3    H141738   5.815   3.478   1.013  1.7725  2.1761 -0.9851
 6749TIP3    H241739   5.821   3.527   1.156  0.5328  0.3177 -0.2495
 6750TIP3   OH241740   0.414   5.551  16.177  0.0310 -0.6329  1.1096
 6750TIP3    H141741   0.380   5.499  16.104 -0.1809  0.3238  0.5072
 6750TIP3    H241742   0.495   5.507  16.202  0.5123 -0.5534 -0.2233
 6751TIP3   OH241743   1.114   5.360  12.009  0.6658  0.3489  0.0483
 6751TIP3    H141744   1.198   5.404  12.000  0.1697  1.4130  0.5635
 6751TIP3    H241745   1.120   5.286  11.948  1.4564  1.2035 -0.9613
 6752TIP3   OH241746   6.591   4.443  14.015  0.0121  0.9152 -0.7073
 6752TIP3    H141747   6.615   4.499  14.089 -0.5670  0.6131 -0.2897
 6752TIP3    H241748   6.503   4.471  13.991  0.4610  1.4909 -1.7415
 6753TIP3   OH241749   0.341   6.334   5.078  0.2880 -0.2248  0.2633
 6753TIP3    H141750   0.334   6.326   4.983  1.1114 -0.8622  0.2421
 6753TIP3    H241751   0.251   6.327   5.109  0.1190 -1.2703 -0.3913
 6754TIP3   OH241752   1.666   4.947   0.955 -0.0224 -0.1599 -0.5009
 6754TIP3    H141753   1.689   4.967   0.865 -2.0772  1.9168 -0.6581
 6754TIP3    H241754   1.574   4.922   0.952 -0.4406  0.9594  1.0779
 6755TIP3   OH241755   5.065   6.570   4.509  0.0176  0.0239  0.0253
 6755TIP3    H141756   5.009   6.643   4.481 -0.8979 -0.7995 -0.3284
 6755TIP3    H241757   5.064   6.576   4.605 -0.6396  0.0475  0.0236
 6756TIP3   OH241758   0.250   1.362  14.159 -0.5614  0.2291 -0.0329
 6756TIP3    H141759   0.242   1.315  14.242  0.7215  0.7082  0.3826
 6756TIP3    H241760   0.175   1.332  14.108 -1.9102  0.5718  1.6097
 6757TIP3   OH241761   3.800   4.903   1.200 -0.2747  0.3818 -0.6155
 6757TIP3    H141762   3.785   4.997   1.208 -2.4513  0.0723 -0.2263
 6757TIP3    H241763   3.781   4.883   1.108 -2.4562 -0.0021 -0.1414
 6758TIP3   OH241764   2.573   0.075  15.540 -0.3397  0.7719  0.1969
 6758TIP3    H141765   2.562   0.167  15.516 -1.2018  0.3743 -1.0216
 6758TIP3    H241766   2.668   0.062  15.541 -0.1854  1.8159  1.0353
 6759TIP3   OH241767   4.168   6.629  16.325 -0.1062 -1.0482  0.3537
 6759TIP3    H141768   4.150   6.706  16.378 -0.7039 -1.2054  0.3867
 6759TIP3    H241769   4.262   6.615  16.334 -0.1850 -1.0088  1.2830
 6760TIP3   OH241770   4.326   0.890  15.591  0.1746 -0.6718  0.3692
 6760TIP3    H141771   4.272   0.937  15.655 -1.9241 -1.0737 -1.0074
 6760TIP3    H241772   4.380   0.958  15.551 -1.8740  0.4530 -0.6664
 6761TIP3   OH241773   6.109   5.693   3.778  0.3971 -0.0417 -0.7419
 6761TIP3    H141774   6.178   5.738   3.729  1.9358  0.1693  1.4430
 6761TIP3    H241775   6.068   5.762   3.830 -0.9313 -0.3080 -1.4168
 6762TIP3   OH241776   3.601   0.603   0.677  0.0658  0.0738  0.4142
 6762TIP3    H141777   3.506   0.602   0.671  0.1158  1.5523 -1.8422
 6762TIP3    H241778   3.621   0.687   0.718  0.4020 -0.4604  1.3610
 6763TIP3   OH241779   5.312   5.064  13.009 -0.2833  0.0018  0.4915
 6763TIP3    H141780   5.243   5.004  12.978 -1.2902  0.7027  1.3111
 6763TIP3    H241781   5.343   5.107  12.930 -2.0435  0.9595  0.2610
 6764TIP3   OH241782   1.732   0.624  16.855  0.1855  0.0863 -0.1105
 6764TIP3    H141783   1.685   0.702  16.884 -0.5600  1.1750 -3.6991
 6764TIP3    H241784   1.811   0.658  16.812  1.2330 -1.3726  0.5499
 6765TIP3   OH241785   6.795   3.598   1.145  0.0487 -0.5273  0.0503
 6765TIP3    H141786   6.813   3.691   1.131  1.0519 -0.7185  0.0143
 6765TIP3    H241787   6.743   3.572   1.069 -1.1700  0.2464  0.5931
 6766TIP3   OH241788   2.629   5.350  12.123 -0.1765  0.4108 -0.1536
 6766TIP3    H141789   2.536   5.344  12.099 -0.7898 -0.3830  2.1442
 6766TIP3    H241790   2.662   5.261  12.114 -0.3756  0.1283  1.5685
 6767TIP3   OH241791   5.397   6.535  15.045 -0.1167 -0.0867 -0.3236
 6767TIP3    H141792   5.352   6.592  15.108 -0.9018 -0.9666 -0.0741
 6767TIP3    H241793   5.433   6.464  15.097 -0.8595 -0.8788 -0.8697
 6768TIP3   OH241794   0.765   3.903  11.926  0.2804 -0.2689  0.1693
 6768TIP3    H141795   0.735   3.979  11.977  1.8767 -0.3793  1.3701
 6768TIP3    H241796   0.757   3.829  11.986 -0.3518 -0.8950 -0.6716
 6769TIP3   OH241797   2.603   6.469   0.754  0.0464  0.5553  0.3877
 6769TIP3    H141798   2.690   6.458   0.714 -0.3226 -0.7004 -0.1384
 6769TIP3    H241799   2.607   6.554   0.797  1.1238  1.0919 -0.6901
 6770TIP3   OH241800   1.398   6.071  14.225 -0.1112  0.1415  0.2557
 6770TIP3    H141801   1.488   6.089  14.198 -0.3922 -0.1589 -0.9331
 6770TIP3    H241802   1.346   6.138  14.182 -0.5377 -0.1032  0.3840
 6771TIP3   OH241803   4.889   0.225   3.275 -0.2462 -0.5159 -0.3562
 6771TIP3    H141804   4.920   0.264   3.194  0.9888  0.9022  0.7524
 6771TIP3    H241805   4.964   0.177   3.310 -0.4725 -0.3498  0.3920
 6772TIP3   OH241806   3.752   2.828   4.876  0.0462 -0.2176 -0.2777
 6772TIP3    H141807   3.668   2.829   4.829 -0.3449 -2.7134  0.2256
 6772TIP3    H241808   3.751   2.745   4.925  2.3618  0.1993  0.5913
 6773TIP3   OH241809   6.450   6.456  15.030  0.4043 -0.5771 -0.1877
 6773TIP3    H141810   6.391   6.417  14.965  0.0285  0.5780 -0.5599
 6773TIP3    H241811   6.537   6.425  15.004  0.2595 -0.1370 -1.2511
 6774TIP3   OH241812   2.145   4.988  12.012 -0.0032  0.3763  0.2682
 6774TIP3    H141813   2.082   4.977  11.941 -0.1508  0.1596  0.4333
 6774TIP3    H241814   2.128   5.076  12.047 -0.6356  0.0767  0.7255
 6775TIP3   OH241815   4.437   2.635  13.182  0.3896  0.3384  0.2946
 6775TIP3    H141816   4.520   2.614  13.225 -0.3281  0.0607  1.6062
 6775TIP3    H241817   4.380   2.561  13.202  0.1176  0.0498 -1.4610
 6776TIP3   OH241818   0.699   3.564   1.449  0.0355  0.8299  0.1020
 6776TIP3    H141819   0.662   3.555   1.361  1.7406  0.4297 -0.6086
 6776TIP3    H241820   0.624   3.586   1.504 -0.8920  2.3677 -1.6581
 6777TIP3   OH241821   3.464   6.659  15.189 -0.0999 -0.0425  0.4368
 6777TIP3    H141822   3.498   6.684  15.275 -0.1348  0.0166  0.4332
 6777TIP3    H241823   3.507   6.719  15.128  0.8046 -0.8029  0.2861
 6778TIP3   OH241824   6.432   4.622   4.833  0.2075  0.3039 -0.1671
 6778TIP3    H141825   6.468   4.575   4.758  1.5030  0.2672  0.4538
 6778TIP3    H241826   6.500   4.685   4.857 -0.8983  1.5086 -0.0743
 6779TIP3   OH241827   4.617   4.266  11.995 -0.3046 -0.4240 -0.1031
 6779TIP3    H141828   4.651   4.261  11.906 -0.5725 -1.9880 -0.1466
 6779TIP3    H241829   4.658   4.344  12.033  0.2450 -0.0634 -1.4062
 6780TIP3   OH241830   4.887   0.107  11.267 -0.2072 -0.0052 -0.0328
 6780TIP3    H141831   4.881   0.110  11.171 -1.3165  0.6089  0.0415
 6780TIP3    H241832   4.807   0.149  11.297 -0.5540 -1.4236  1.1664
 6781TIP3   OH241833   2.998   0.732  15.682  0.1635 -0.3458  0.2208
 6781TIP3    H141834   3.001   0.766  15.772 -1.8060 -2.7335  1.3089
 6781TIP3    H241835   2.911   0.755  15.651  0.7913  0.3606 -1.1207
 6782TIP3   OH241836   0.534   5.294  12.024 -0.5498 -0.3310 -0.1176
 6782TIP3    H141837   0.531   5.362  11.957  2.3441 -0.7510 -0.8159
 6782TIP3    H241838   0.618   5.307  12.068  0.3337 -3.5669 -0.5479
 6783TIP3   OH241839   5.686   5.290  10.953 -0.0592 -0.2079 -0.4270
 6783TIP3    H141840   5.640   5.320  10.875  2.0688  1.7509 -1.0634
 6783TIP3    H241841   5.752   5.229  10.921  0.4576  0.1756 -0.1199
 6784TIP3   OH241842   5.325   3.670   4.079  0.0803 -0.1919 -0.2509
 6784TIP3    H141843   5.321   3.589   4.129  0.6387  0.0795  0.2433
 6784TIP3    H241844   5.340   3.738   4.144  2.2467  0.0068 -0.8900
 6785TIP3   OH241845   6.136   3.030   5.061 -0.5322  0.0359 -0.4092
 6785TIP3    H141846   6.079   3.102   5.087  0.7614  0.4379  1.5139
 6785TIP3    H241847   6.107   2.955   5.113  0.4445  0.1658  0.3561
 6786TIP3   OH241848   1.512   1.461  12.532 -0.8038 -0.2047 -0.1131
 6786TIP3    H141849   1.431   1.450  12.582 -0.9574 -1.1602 -0.5507
 6786TIP3    H241850   1.484   1.458  12.440 -0.4802  1.1502 -0.2823
 6787TIP3   OH241851   3.349   2.803   4.298 -0.1756 -0.0131 -0.4596
 6787TIP3    H141852   3.352   2.892   4.333 -2.3200  0.5534 -1.5453
 6787TIP3    H241853   3.290   2.756   4.356  0.5968 -0.6214 -0.1559
 6788TIP3   OH241854   5.997   1.186   3.438  0.4010  1.0115  0.2240
 6788TIP3    H141855   6.036   1.128   3.372 -0.1478 -1.7221  2.1268
 6788TIP3    H241856   6.046   1.267   3.430  2.4814 -0.2897 -1.4075
 6789TIP3   OH241857   3.859   0.276   2.604  0.1355  0.2393  0.1835
 6789TIP3    H141858   3.765   0.287   2.619  0.3172  1.0620  0.8281
 6789TIP3    H241859   3.894   0.365   2.608  0.9365 -0.0530 -0.1173
 6790TIP3   OH241860   5.301   4.305  14.317  0.0657 -0.0172  0.2116
 6790TIP3    H141861   5.260   4.319  14.232  1.8001  0.5946 -0.5803
 6790TIP3    H241862   5.391   4.281  14.296  0.2594 -0.8494  1.8699
 6791TIP3   OH241863   1.092   1.416   0.427 -0.5041 -0.0579  0.2853
 6791TIP3    H141864   1.026   1.355   0.393 -1.0114  0.2273  0.7392
 6791TIP3    H241865   1.132   1.454   0.348  0.5731 -1.7357 -0.0374
 6792TIP3   OH241866   4.306   1.010  14.814  0.4061  0.5455  0.3847
 6792TIP3    H141867   4.320   1.090  14.763  0.6610  1.1441  1.3637
 6792TIP3    H241868   4.213   1.011  14.835  0.5301  0.9311  0.9398
 6793TIP3   OH241869   5.469   2.132  14.875 -0.4302 -0.0516 -0.3029
 6793TIP3    H141870   5.530   2.138  14.801 -0.2788 -1.2872 -0.2891
 6793TIP3    H241871   5.499   2.200  14.935 -0.9024  1.3789 -1.6117
 6794TIP3   OH241872   1.628   1.751   4.811  0.5584  0.1613  0.0533
 6794TIP3    H141873   1.716   1.788   4.814  0.7577 -0.2932 -0.0991
 6794TIP3    H241874   1.575   1.809   4.865  0.6630  1.2059 -0.9349
 6795TIP3   OH241875   4.593   5.861   0.913  0.0121 -0.0198 -0.3103
 6795TIP3    H141876   4.622   5.941   0.956  0.9005 -0.8549  0.7084
 6795TIP3    H241877   4.674   5.816   0.888 -0.4551  0.4551 -3.0059
 6796TIP3   OH241878   4.444   5.323  15.896  0.1398 -0.1461  0.3783
 6796TIP3    H141879   4.464   5.337  15.804  0.2746  1.6044  0.6470
 6796TIP3    H241880   4.373   5.259  15.896 -0.5473  0.5878 -0.9782
 6797TIP3   OH241881   0.482   5.773   2.858 -0.9065  0.0081  0.7082
 6797TIP3    H141882   0.466   5.867   2.847  0.4042  0.3107  1.1260
 6797TIP3    H241883   0.577   5.765   2.851 -1.1192 -1.5551 -1.0707
 6798TIP3   OH241884   6.408   5.009  11.156 -0.5130 -0.4490  0.1820
 6798TIP3    H141885   6.447   4.969  11.078 -2.1490 -0.7386 -0.5368
 6798TIP3    H241886   6.478   5.063  11.193 -0.0572  0.7707 -2.2455
 6799TIP3   OH241887   2.252   6.030  13.030 -0.3393 -0.0994  0.3911
 6799TIP3    H141888   2.218   5.944  13.004 -1.3252  0.1760  0.7337
 6799TIP3    H241889   2.175   6.086  13.034  0.2601  0.7361  0.4521
 6800TIP3   OH241890   1.407   4.899   0.908 -0.2108  0.0504 -0.3491
 6800TIP3    H141891   1.354   4.824   0.879 -0.6236  0.1511  0.1250
 6800TIP3    H241892   1.406   4.893   1.003 -2.3242  2.0503 -0.1723
 6801TIP3   OH241893   3.849   2.568  11.157  0.1049  0.6383  0.3107
 6801TIP3    H141894   3.754   2.559  11.165 -0.1782  3.3256  1.1267
 6801TIP3    H241895   3.863   2.596  11.066  0.4605 -2.2085 -0.6117
 6802TIP3   OH241896   1.730   2.222  15.711 -0.2643  0.6553  0.0914
 6802TIP3    H141897   1.660   2.174  15.755  0.6163 -2.5271 -1.7164
 6802TIP3    H241898   1.690   2.257  15.632 -0.1285 -0.1386 -0.3385
 6803TIP3   OH241899   4.663   3.203   5.272 -0.2598  0.2085 -0.3324
 6803TIP3    H141900   4.633   3.223   5.183 -2.1197  0.8494  0.3816
 6803TIP3    H241901   4.614   3.263   5.328  1.6063  0.5068  1.0783
 6804TIP3   OH241902   1.870   1.133   0.299 -0.6578 -0.1072  0.0944
 6804TIP3    H141903   1.792   1.140   0.355  0.0279 -1.5591  1.3167
 6804TIP3    H241904   1.907   1.222   0.298 -1.3009  0.1897  1.0592
 6805TIP3   OH241905   1.656   3.070  12.941  0.0778  0.2603  1.2114
 6805TIP3    H141906   1.572   3.097  12.904 -0.3631 -0.2305  1.8249
 6805TIP3    H241907   1.712   3.148  12.933 -0.8076  0.9993  1.8886
 6806TIP3   OH241908   0.591   3.900  16.390  0.8020  0.3414  0.1387
 6806TIP3    H141909   0.594   3.995  16.385 -1.6094  0.4962  0.5566
 6806TIP3    H241910   0.517   3.874  16.336 -0.3859 -1.0332  2.2734
 6807TIP3   OH241911   0.572   5.976  10.986 -0.6971  0.2334 -0.0442
 6807TIP3    H141912   0.500   6.004  11.042 -0.5376 -1.0018  0.8262
 6807TIP3    H241913   0.642   5.952  11.047  0.0108  0.2468 -0.8281
 6808TIP3   OH241914   4.547   5.553   5.461 -0.5627 -0.3938  0.1174
 6808TIP3    H141915   4.532   5.577   5.552 -5.1746 -0.7236 -0.3041
 6808TIP3    H241916   4.535   5.634   5.412  0.7952 -0.4295 -0.3181
 6809TIP3   OH241917   1.947   3.834   1.605  0.2094 -0.7590  0.4325
 6809TIP3    H141918   1.987   3.804   1.687 -0.6703 -2.0424  0.4251
 6809TIP3    H241919   1.853   3.821   1.618 -0.0891  0.6805 -0.1483
 6810TIP3   OH241920   6.780   0.646   0.617 -0.0142 -0.7019  0.3213
 6810TIP3    H141921   6.724   0.718   0.589  0.1786 -0.7941 -0.3391
 6810TIP3    H241922   6.864   0.664   0.575  0.8125  0.0465  2.2034
 6811TIP3   OH241923   1.804   4.849  13.171  0.5095  0.3284  0.0431
 6811TIP3    H141924   1.764   4.893  13.247 -1.2976  2.4018 -1.9312
 6811TIP3    H241925   1.898   4.853  13.188  0.1486 -0.1616  2.5790
 6812TIP3   OH241926   3.485   1.646   5.190 -0.4102 -0.1391 -0.0039
 6812TIP3    H141927   3.511   1.731   5.226 -0.1006 -0.7391  1.2243
 6812TIP3    H241928   3.438   1.668   5.109  0.2467  1.1626 -0.0601
 6813TIP3   OH241929   0.659   3.371   4.007 -0.2896  0.3033 -0.4691
 6813TIP3    H141930   0.677   3.296   3.951 -0.9314 -0.3732  0.2241
 6813TIP3    H241931   0.693   3.347   4.093 -2.8773 -0.3391  0.4608
 6814TIP3   OH241932   2.185   5.496   5.718  0.2758 -0.0534  0.8294
 6814TIP3    H141933   2.207   5.403   5.726 -1.0115 -0.4898 -0.3906
 6814TIP3    H241934   2.247   5.529   5.652  0.5511 -0.1110  1.0587
 6815TIP3   OH241935   3.511   0.353   4.262 -0.3465 -0.4473  0.6148
 6815TIP3    H141936   3.534   0.445   4.267 -0.3065 -0.4480  0.4113
 6815TIP3    H241937   3.594   0.306   4.267 -0.3422 -0.4634  0.3854
 6816TIP3   OH241938   2.449   3.231  16.390  0.3993  0.1160 -0.3395
 6816TIP3    H141939   2.520   3.294  16.401 -0.6099  0.8882  3.4504
 6816TIP3    H241940   2.371   3.285  16.374  0.0510 -0.3773 -0.3505
 6817TIP3   OH241941   3.740   2.522   0.334 -0.6257 -0.0308  0.3638
 6817TIP3    H141942   3.742   2.426   0.337 -3.3267 -0.1893 -0.1267
 6817TIP3    H241943   3.738   2.548   0.426 -5.0380 -0.8251  0.7028
 6818TIP3   OH241944   2.190   2.805  16.538 -0.3396 -0.4378  0.3027
 6818TIP3    H141945   2.155   2.878  16.486 -1.4446 -1.6132 -0.6670
 6818TIP3    H241946   2.145   2.728  16.503  1.4829 -1.7079  0.6765
 6819TIP3   OH241947   5.446   5.474  16.745 -0.2189 -0.4688 -0.2013
 6819TIP3    H141948   5.464   5.543  16.681  0.3848  0.8212  1.2937
 6819TIP3    H241949   5.528   5.426  16.754 -0.6986 -1.5784 -1.4040
 6820TIP3   OH241950   2.489   5.838   2.138  0.1176  0.5588 -0.1852
 6820TIP3    H141951   2.523   5.783   2.209 -2.6376  0.3067  1.0968
 6820TIP3    H241952   2.433   5.902   2.183  0.2752  2.0118 -1.9658
 6821TIP3   OH241953   4.628   1.558  14.294 -0.3927 -0.2044 -0.1548
 6821TIP3    H141954   4.539   1.552  14.260 -1.4398  1.0113  2.1165
 6821TIP3    H241955   4.619   1.536  14.387  1.2319  2.2102  0.6656
 6822TIP3   OH241956   2.147   5.399   3.840 -0.0493 -0.4501 -0.0338
 6822TIP3    H141957   2.058   5.434   3.832 -0.3645 -1.3937 -0.7526
 6822TIP3    H241958   2.198   5.450   3.777 -0.0675  0.0822  0.3687
 6823TIP3   OH241959   5.867   5.696   6.756 -0.1261 -0.9633  0.2941
 6823TIP3    H141960   5.922   5.708   6.679  0.5561 -1.5821  0.6726
 6823TIP3    H241961   5.913   5.743   6.826 -0.9068 -0.1313  0.2667
 6824TIP3   OH241962   0.037   2.706  15.738  0.2474 -0.6176  0.1082
 6824TIP3    H141963   0.029   2.695  15.644 -1.2167  2.7985 -0.3499
 6824TIP3    H241964   0.127   2.734  15.752  0.3737 -0.8113 -0.3165
 6825TIP3   OH241965   5.689   2.627  17.126 -0.1265  0.5325 -0.2173
 6825TIP3    H141966   5.678   2.552  17.184  0.1998  0.8465  0.2570
 6825TIP3    H241967   5.613   2.682  17.144 -0.4758  0.2297 -0.7145
 6826TIP3   OH241968   1.445   5.292   1.404  0.2949  0.4828  0.4577
 6826TIP3    H141969   1.425   5.241   1.325  1.5153  1.2869 -0.4114
 6826TIP3    H241970   1.534   5.324   1.390  0.1660  1.4761  1.7238
 6827TIP3   OH241971   4.327   3.723   2.595  0.1309  0.5151 -0.6450
 6827TIP3    H141972   4.250   3.701   2.646 -0.3948  0.6796 -1.3604
 6827TIP3    H241973   4.399   3.722   2.659 -0.4288  0.2124 -0.0074
 6828TIP3   OH241974   6.680   3.567   6.056  0.1705 -0.2380 -0.6113
 6828TIP3    H141975   6.725   3.599   5.978  0.1624  0.2192 -0.4325
 6828TIP3    H241976   6.654   3.647   6.103  0.6398 -0.5110  0.1295
 6829TIP3   OH241977   0.620   1.282   0.359  0.4139 -0.0694 -0.2642
 6829TIP3    H141978   0.532   1.245   0.371  0.5340 -0.9283 -1.7856
 6829TIP3    H241979   0.652   1.296   0.448 -0.4281 -1.8179  0.3618
 6830TIP3   OH241980   6.036   2.102  14.220  0.1560  0.1713 -0.0122
 6830TIP3    H141981   5.979   2.146  14.283 -0.0208  1.5535 -1.0967
 6830TIP3    H241982   6.093   2.046  14.274 -0.9956  0.1493  1.2227
 6831TIP3   OH241983   2.564   2.833  13.281  0.3761 -0.3111  0.2416
 6831TIP3    H141984   2.529   2.747  13.305 -0.2061  0.0757  0.8250
 6831TIP3    H241985   2.509   2.862  13.208 -0.6215  0.3355  1.2166
 6832TIP3   OH241986   3.314   5.383  11.298 -0.2471  0.0956 -0.1218
 6832TIP3    H141987   3.253   5.418  11.362  0.8698 -0.0390  1.0686
 6832TIP3    H241988   3.355   5.460  11.258 -0.9784  0.1802 -0.7261
 6833TIP3   OH241989   1.715   6.719  14.080 -0.5704 -0.1984  0.0207
 6833TIP3    H141990   1.733   6.787  14.146  0.1567 -0.1208 -0.2576
 6833TIP3    H241991   1.775   6.739  14.008 -0.1417 -1.3083  0.0558
 6834TIP3   OH241992   1.639   3.676  16.461 -0.1063  0.3097  0.6605
 6834TIP3    H141993   1.597   3.608  16.514  2.2623 -1.0037  1.0210
 6834TIP3    H241994   1.695   3.627  16.400 -0.1094  1.9050 -0.6983
 6835TIP3   OH241995   2.363   2.411  16.555 -0.4688 -0.8307  0.3556
 6835TIP3    H141996   2.336   2.380  16.642  0.8345 -1.1785  0.6566
 6835TIP3    H241997   2.292   2.385  16.497 -1.9639  0.4909  1.4958
 6836TIP3   OH241998   5.775   1.466   1.747  0.2918 -0.9001  0.1006
 6836TIP3    H141999   5.699   1.515   1.715  1.9971  1.9692  0.0696
 6836TIP3    H242000   5.755   1.445   1.838 -0.4776 -0.0469  0.1327
 6837TIP3   OH242001   1.037   4.997  11.059  0.3654 -0.8649  0.7722
 6837TIP3    H142002   1.000   4.983  10.972  0.0950 -0.4677  0.8224
 6837TIP3    H242003   0.962   5.021  11.114  0.6282 -0.4868  0.9718
 6838TIP3   OH242004   4.904   6.491   1.938 -0.5548  0.1960 -0.3631
 6838TIP3    H142005   4.963   6.560   1.968 -0.0584 -0.8306  1.1318
 6838TIP3    H242006   4.822   6.506   1.986 -0.6706  0.1261 -0.5351
 6839TIP3   OH242007   2.630   4.187   1.553  0.3158  0.2238  0.2358
 6839TIP3    H142008   2.579   4.259   1.592  0.8135  1.3117 -1.0389
 6839TIP3    H242009   2.653   4.131   1.627 -1.8854  0.2050  0.9937
 6840TIP3   OH242010   6.613   3.774   1.827 -0.0197 -0.1147 -0.0615
 6840TIP3    H142011   6.654   3.738   1.748  0.7003  1.3397 -0.3929
 6840TIP3    H242012   6.526   3.802   1.797  0.1005  0.0690 -0.2416
 6841TIP3   OH242013   6.415   1.422   0.557  0.0572  0.3541  0.2501
 6841TIP3    H142014   6.348   1.393   0.495  0.4474  0.8338 -0.4047
 6841TIP3    H242015   6.433   1.512   0.531  0.4172  0.4702  0.8998
 6842TIP3   OH242016   0.228   0.120   4.590  0.2497 -0.1407 -0.4292
 6842TIP3    H142017   0.249   0.118   4.496 -1.3115  1.2369 -0.8652
 6842TIP3    H242018   0.136   0.096   4.595  0.4115 -0.5724  0.8071
 6843TIP3   OH242019   4.803   4.419  14.251  0.4404 -0.2542  0.1503
 6843TIP3    H142020   4.714   4.404  14.222  0.9656  0.5433 -2.0645
 6843TIP3    H242021   4.820   4.511  14.230  2.2334 -0.7605 -0.8632
 6844TIP3   OH242022   5.051   4.446   1.022  0.5892 -0.2938 -0.2669
 6844TIP3    H142023   5.118   4.396   0.974  0.2501 -0.3789 -0.6567
 6844TIP3    H242024   5.093   4.467   1.106  0.8260 -1.0320 -0.1848
 6845TIP3   OH242025   5.974   4.069  16.263  0.0520  0.7534 -0.4238
 6845TIP3    H142026   5.928   4.153  16.265  0.9679  1.2634  0.7314
 6845TIP3    H242027   5.953   4.029  16.347 -2.0679 -1.1777 -1.7658
 6846TIP3   OH242028   3.308   3.130  13.960 -0.2437 -0.2922  0.1917
 6846TIP3    H142029   3.362   3.209  13.968 -2.2549  1.4371 -1.9974
 6846TIP3    H242030   3.366   3.065  13.921  0.7440  0.9446 -0.4740
 6847TIP3   OH242031   5.338   4.628  13.362  0.0734 -0.7737  0.0469
 6847TIP3    H142032   5.404   4.598  13.424 -0.6138 -1.7494  0.3211
 6847TIP3    H242033   5.324   4.553  13.304  0.2871 -0.0667 -0.9394
 6848TIP3   OH242034   3.466   6.057   3.479  0.0413 -0.0761 -0.2291
 6848TIP3    H142035   3.469   6.058   3.575  0.9074  0.6609 -0.2536
 6848TIP3    H242036   3.450   5.965   3.457 -1.0779 -0.1012  0.6364
 6849TIP3   OH242037   1.315   6.262  15.005  0.0111 -0.2290  0.1001
 6849TIP3    H142038   1.297   6.237  15.095  0.4098 -3.1151 -0.5088
 6849TIP3    H242039   1.241   6.226  14.955 -0.6001  1.9752 -0.7048
 6850TIP3   OH242040   2.701   3.082  11.007  0.2133  0.4294  0.4334
 6850TIP3    H142041   2.750   3.095  11.088  0.9816 -3.5341  0.7824
 6850TIP3    H242042   2.612   3.064  11.036  0.2822 -0.0702  0.3354
 6851TIP3   OH242043   0.519   5.212   1.200 -0.4158 -0.2792  0.2726
 6851TIP3    H142044   0.563   5.291   1.167 -0.7888  0.0448  0.5490
 6851TIP3    H242045   0.570   5.140   1.163 -0.5629  0.0794 -0.6656
 6852TIP3   OH242046   3.388   1.245  12.250 -0.2207  0.3710 -0.0307
 6852TIP3    H142047   3.477   1.210  12.251 -0.7876 -1.1472  0.5239
 6852TIP3    H242048   3.332   1.168  12.259 -1.5461  1.4352  1.3701
 6853TIP3   OH242049   5.960   6.587   2.333  0.1516 -0.2303  0.7058
 6853TIP3    H142050   5.945   6.624   2.246  1.6713  1.2623  1.0261
 6853TIP3    H242051   5.883   6.532   2.349 -0.5656  0.1174 -1.2182
 6854TIP3   OH242052   4.002   5.363  14.405 -0.4751 -0.6935  0.4057
 6854TIP3    H142053   3.984   5.381  14.312 -0.6125 -0.7188  0.4271
 6854TIP3    H242054   4.032   5.272  14.407 -0.8159 -0.8055  0.4311
 6855TIP3   OH242055   0.971   0.650  13.710 -0.1955  0.3619  0.5861
 6855TIP3    H142056   0.898   0.687  13.761  1.5944  1.2740  2.6447
 6855TIP3    H242057   1.040   0.716  13.716 -0.2829  1.3040 -4.4745
 6856TIP3   OH242058   3.798   0.417   3.270 -0.3417  0.4513  0.0591
 6856TIP3    H142059   3.835   0.335   3.301  1.0134  0.7494 -0.6910
 6856TIP3    H242060   3.874   0.476   3.260 -0.9403  0.9723 -1.8572
 6857TIP3   OH242061   3.341   4.709   3.371 -0.0607  0.1860 -0.4987
 6857TIP3    H142062   3.306   4.750   3.292  0.7102  0.6107 -0.6390
 6857TIP3    H242063   3.404   4.773   3.404  0.3018 -0.3905 -0.0594
 6858TIP3   OH242064   5.814   4.636  15.420 -0.0451 -0.6588  0.4122
 6858TIP3    H142065   5.794   4.729  15.431  1.8887 -0.3794  2.0620
 6858TIP3    H242066   5.754   4.591  15.479 -0.9820 -0.4828 -0.3867
 6859TIP3   OH242067   4.849   3.463   2.800 -0.5244  0.5193 -0.2036
 6859TIP3    H142068   4.832   3.506   2.884  0.6408  0.6827 -0.0386
 6859TIP3    H242069   4.784   3.392   2.797 -0.9920  0.8971  0.5387
 6860TIP3   OH242070   0.943   2.160   0.289  0.2090 -0.0373 -0.4036
 6860TIP3    H142071   0.895   2.078   0.298  0.9559 -0.3556  0.9890
 6860TIP3    H242072   1.016   2.153   0.350  0.4640  1.5564 -0.4558
 6861TIP3   OH242073   0.069   4.715  12.647 -0.0094 -0.4729  0.2578
 6861TIP3    H142074   0.066   4.768  12.727  0.3502 -1.8412  1.2111
 6861TIP3    H242075   0.043   4.627  12.675 -0.8664 -0.7755 -1.3346
 6862TIP3   OH242076   5.821   4.574  11.172  0.3813  0.1283 -0.1203
 6862TIP3    H142077   5.794   4.628  11.098 -0.0745  0.7247  0.4572
 6862TIP3    H242078   5.895   4.621  11.210  1.1759 -0.6333 -0.7078
 6863TIP3   OH242079   1.088   5.173   5.828 -0.5222  0.2655  0.1760
 6863TIP3    H142080   1.045   5.258   5.817 -0.0558  0.4237 -0.4595
 6863TIP3    H242081   1.109   5.169   5.921 -1.2640  0.4947  0.3630
 6864TIP3   OH242082   1.145   1.323   1.364  0.1483  0.8595 -0.0379
 6864TIP3    H142083   1.078   1.261   1.394 -0.4530  2.0735  1.2293
 6864TIP3    H242084   1.099   1.406   1.358  1.1137  1.3320 -1.0293
 6865TIP3   OH242085   5.251   5.256   3.778 -0.2799  0.6881 -0.1217
 6865TIP3    H142086   5.236   5.195   3.851 -1.2659 -0.1673 -0.9938
 6865TIP3    H242087   5.184   5.324   3.790 -1.0487  0.0585 -0.7063
 6866TIP3   OH242088   4.118   4.864  14.468  0.3621  0.0450  0.4840
 6866TIP3    H142089   4.112   4.794  14.403 -1.2301 -0.4118  1.0864
 6866TIP3    H242090   4.078   4.828  14.547 -0.4560  1.6091  0.8287
 6867TIP3   OH242091   2.688   6.185   0.103  0.2320  0.6378  0.2654
 6867TIP3    H142092   2.746   6.217   0.172  1.6562  0.8052 -0.9678
 6867TIP3    H242093   2.728   6.103   0.074 -0.8716  0.0803  0.2634
 6868TIP3   OH242094   0.411   0.020   0.662 -0.0160  0.0773  0.3794
 6868TIP3    H142095   0.431   0.076   0.587 -1.9961 -0.1711 -0.3800
 6868TIP3    H242096   0.460   0.058   0.734  0.7587  1.2027 -0.7117
 6869TIP3   OH242097   1.364   0.179   1.274  0.0661 -0.4175 -0.5008
 6869TIP3    H142098   1.393   0.256   1.324  0.9581 -1.9899  1.5599
 6869TIP3    H242099   1.445   0.133   1.253 -0.4932 -1.1072 -1.1932
 6870TIP3   OH242100   5.130   0.843  12.111 -0.9774 -0.4390  0.3900
 6870TIP3    H142101   5.142   0.821  12.018  0.2105  1.5338  0.0215
 6870TIP3    H242102   5.089   0.930  12.109  2.6740  1.4954  1.5992
 6871TIP3   OH242103   2.192   0.381   2.705 -0.8644  0.1854 -0.1009
 6871TIP3    H142104   2.211   0.374   2.611  0.2499 -1.2642  0.1950
 6871TIP3    H242105   2.179   0.474   2.720 -0.2465  0.5394 -1.5464
 6872TIP3   OH242106   4.024   6.061  16.109 -0.3601 -0.0824  0.3174
 6872TIP3    H142107   3.942   6.013  16.120 -0.2137 -0.3451  0.2534
 6872TIP3    H242108   4.081   6.002  16.060 -0.2987  0.2851 -0.0660
 6873TIP3   OH242109   0.456   4.389  12.807  0.6765  0.3815 -1.0432
 6873TIP3    H142110   0.534   4.440  12.784  1.7242 -1.2805 -1.2764
 6873TIP3    H242111   0.476   4.300  12.779 -0.6571 -0.4076  0.3804
 6874TIP3   OH242112   5.912   2.513   4.127 -0.1747  0.1073 -0.7850
 6874TIP3    H142113   5.841   2.501   4.064 -1.6173 -2.1181  1.0987
 6874TIP3    H242114   5.971   2.441   4.111  0.4609  0.6283 -0.8207
 6875TIP3   OH242115   3.580   2.808  15.240  0.5404 -0.4880  0.7414
 6875TIP3    H142116   3.578   2.758  15.159 -0.1931 -3.8283  2.6462
 6875TIP3    H242117   3.499   2.785  15.285  1.4402  0.3119  2.9284
 6876TIP3   OH242118   6.368   3.248   5.385  0.5136 -0.3481  0.2819
 6876TIP3    H142119   6.275   3.253   5.406  0.4971  1.1652 -0.0694
 6876TIP3    H242120   6.371   3.220   5.294  0.3750  0.0203  0.1600
 6877TIP3   OH242121   5.624   6.217  13.883 -0.9639  0.4049  0.0084
 6877TIP3    H142122   5.608   6.300  13.926  0.2331  0.1297  1.0341
 6877TIP3    H242123   5.719   6.210  13.879 -1.0460 -0.9175 -0.0429
 6878TIP3   OH242124   1.222   2.256   4.777  0.3696 -0.1201  0.2270
 6878TIP3    H142125   1.263   2.308   4.707 -2.7795  2.6714  0.2079
 6878TIP3    H242126   1.198   2.174   4.735 -0.0805  0.8993 -1.6292
 6879TIP3   OH242127   3.347   6.658  16.587  0.1514  0.6104  0.1640
 6879TIP3    H142128   3.328   6.723  16.655 -2.1820 -0.1595  0.3491
 6879TIP3    H242129   3.311   6.576  16.621 -1.0268  0.1847 -1.9240
 6880TIP3   OH242130   2.547   6.136   0.815 -0.4921  0.2410  0.0909
 6880TIP3    H142131   2.566   6.222   0.855  2.4894  0.1584 -0.9094
 6880TIP3    H242132   2.585   6.073   0.876 -2.3671 -0.4541  0.6395
 6881TIP3   OH242133   2.768   5.326   4.331  0.1533  0.7403  0.4046
 6881TIP3    H142134   2.811   5.240   4.326  1.4566  1.4058 -0.5823
 6881TIP3    H242135   2.679   5.310   4.301  0.3610 -0.2901  0.2880
 6882TIP3   OH242136   5.241   3.316  12.328  0.4367 -0.7352  0.3662
 6882TIP3    H142137   5.189   3.379  12.379  0.0742  0.1904 -1.0925
 6882TIP3    H242138   5.177   3.263  12.281  0.7424  0.3594 -1.3793
 6883TIP3   OH242139   5.547   1.372  15.066 -0.2904  0.1694  0.5040
 6883TIP3    H142140   5.501   1.449  15.033 -1.2906  0.1586  1.7722
 6883TIP3    H242141   5.479   1.305  15.073  0.7183 -1.1606 -1.4204
 6884TIP3   OH242142   3.454   3.007   4.787  0.2084 -0.0654  0.2015
 6884TIP3    H142143   3.524   3.056   4.831 -1.8628  0.4440  3.2622
 6884TIP3    H242144   3.432   3.060   4.711  1.1722  1.2988  0.8307
 6885TIP3   OH242145   3.844   5.223  12.013 -0.8589  0.3368  0.6990
 6885TIP3    H142146   3.767   5.179  11.977  0.9761 -2.1384 -0.5362
 6885TIP3    H242147   3.883   5.268  11.939  0.0131 -0.2402  0.7878
 6886TIP3   OH242148   4.871   4.135  12.591  0.6578 -0.1169 -0.6787
 6886TIP3    H142149   4.897   4.212  12.540 -0.5517  0.8375  0.0719
 6886TIP3    H242150   4.796   4.165  12.643  2.7925 -0.4788  2.9620
 6887TIP3   OH242151   0.497   4.212   4.030 -0.1311  0.1561 -0.9143
 6887TIP3    H142152   0.565   4.279   4.035 -0.1048  0.3776 -3.2718
 6887TIP3    H242153   0.543   4.132   4.002 -0.6910  0.0675 -1.6027
 6888TIP3   OH242154   3.720   0.399   3.716  0.5196  0.3795  0.0810
 6888TIP3    H142155   3.672   0.479   3.696 -0.1281  1.0342  3.6281
 6888TIP3    H242156   3.653   0.330   3.715  0.4681  0.4291  0.1189
 6889TIP3   OH242157   1.098   5.092  13.060  0.0609  0.1118 -0.4007
 6889TIP3    H142158   1.168   5.085  12.995 -0.9785 -1.2320 -1.4325
 6889TIP3    H242159   1.143   5.116  13.141  1.6419 -0.1412 -1.1646
 6890TIP3   OH242160   3.515   3.906  12.543 -0.5316  0.5515  0.8348
 6890TIP3    H142161   3.604   3.906  12.577 -0.8512  0.4375  1.6833
 6890TIP3    H242162   3.524   3.934  12.452  0.4729 -0.2914  0.6565
 6891TIP3   OH242163   0.121   3.289   6.099 -0.5792  0.3246 -0.2338
 6891TIP3    H142164   0.157   3.364   6.144  1.7357 -0.9247  0.1492
 6891TIP3    H242165   0.035   3.275   6.139  1.1851 -0.5383  3.7203
 6892TIP3   OH242166   2.143   0.896  17.013 -0.1105 -0.3051 -0.4039
 6892TIP3    H142167   2.182   0.822  16.966 -1.2691 -1.4220  0.3118
 6892TIP3    H242168   2.188   0.973  16.979  2.0172 -1.4230 -0.3118
 6893TIP3   OH242169   4.745   5.510   4.754 -0.5809  0.4297 -1.0000
 6893TIP3    H142170   4.783   5.565   4.823  0.4752  0.6382 -1.7215
 6893TIP3    H242171   4.654   5.537   4.750 -1.0161 -0.4782  1.1691
 6894TIP3   OH242172   0.349   0.869   1.845  0.4773 -0.1954  0.5454
 6894TIP3    H142173   0.424   0.903   1.893  0.0778  2.8880 -0.8264
 6894TIP3    H242174   0.276   0.925   1.870 -0.6309 -1.0178 -0.6632
 6895TIP3   OH242175   3.166   2.290   3.543  0.5124 -0.3306 -0.3678
 6895TIP3    H142176   3.222   2.213   3.538  1.0390  0.1069 -1.4699
 6895TIP3    H242177   3.119   2.292   3.460 -0.5747 -0.2477  0.2229
 6896TIP3   OH242178   5.348   4.472  15.288 -0.2670  0.4591 -0.6060
 6896TIP3    H142179   5.295   4.451  15.211  0.5454  0.5594 -1.2053
 6896TIP3    H242180   5.434   4.494  15.252  0.3835 -0.3937  0.4121
 6897TIP3   OH242181   5.631   0.773  15.887  0.7417  0.2380 -0.2254
 6897TIP3    H142182   5.704   0.801  15.942  0.5492 -0.7389  0.5714
 6897TIP3    H242183   5.645   0.817  15.804 -0.1071  3.4871  1.1966
 6898TIP3   OH242184   1.510   1.364  16.545 -0.0269 -0.2786  0.0466
 6898TIP3    H142185   1.575   1.411  16.597  0.8648  0.4703 -1.6644
 6898TIP3    H242186   1.426   1.397  16.575  0.4355 -0.2759  1.3779
 6899TIP3   OH242187   2.214   6.320  13.585 -0.2688 -0.0504  0.5301
 6899TIP3    H142188   2.244   6.347  13.498 -0.6552  0.7116  0.6201
 6899TIP3    H242189   2.128   6.362  13.594 -1.3507 -2.0945  0.3208
 6900TIP3   OH242190   0.453   0.898  11.714  0.0161  0.3949  0.1021
 6900TIP3    H142191   0.403   0.819  11.730 -0.4498  0.9895  1.7991
 6900TIP3    H242192   0.393   0.970  11.735  0.2796  1.2397 -1.8189
 6901TIP3   OH242193   2.601   0.751   0.564 -0.3147  0.3947 -0.0682
 6901TIP3    H142194   2.519   0.745   0.514  0.0323  2.4167 -1.0170
 6901TIP3    H242195   2.581   0.812   0.635 -0.2627 -0.9889  1.1755
 6902TIP3   OH242196   2.213   0.610  14.530 -0.1589 -0.2213 -0.0531
 6902TIP3    H142197   2.285   0.613  14.468 -0.5055 -0.2239 -0.4551
 6902TIP3    H242198   2.146   0.558  14.487  0.0143 -1.1790  0.7627
 6903TIP3   OH242199   0.241   4.935   4.752 -0.6893  0.3848 -0.4904
 6903TIP3    H142200   0.212   4.946   4.661 -0.2970  0.2628 -0.6346
 6903TIP3    H242201   0.235   5.022   4.790  0.5551  0.7500 -1.0615
 6904TIP3   OH242202   6.290   3.281   5.860 -0.3978  0.8346  0.4102
 6904TIP3    H142203   6.344   3.251   5.934 -0.7809 -0.3651  0.2233
 6904TIP3    H242204   6.328   3.239   5.784 -1.0141  0.7421  0.1473
 6905TIP3   OH242205   5.359   2.998   5.389 -0.1928 -0.6413  0.0148
 6905TIP3    H142206   5.334   3.013   5.298 -0.6697 -1.7734 -0.0561
 6905TIP3    H242207   5.382   3.085   5.422  3.0918 -0.5450 -2.0637
 6906TIP3   OH242208   1.269   4.617   3.604  0.3013  0.5134 -0.3672
 6906TIP3    H142209   1.252   4.707   3.577 -0.0028  1.1207  1.6338
 6906TIP3    H242210   1.224   4.609   3.688  3.9336 -0.0069  1.7705
 6907TIP3   OH242211   0.086   4.336  15.786  0.0104 -0.6083 -0.5046
 6907TIP3    H142212   0.073   4.269  15.854 -0.6133 -0.9478 -0.9418
 6907TIP3    H242213   0.086   4.419  15.833  1.4893 -0.9484  0.1314
 6908TIP3   OH242214   0.244   5.187  11.173 -0.4458 -0.4270  0.0510
 6908TIP3    H142215   0.275   5.211  11.085 -1.4884 -3.2636 -1.2005
 6908TIP3    H242216   0.162   5.235  11.184 -1.4933 -1.7602 -1.5520
 6909TIP3   OH242217   1.744   5.011   4.751 -0.1717  0.3857  0.0429
 6909TIP3    H142218   1.822   5.065   4.739  0.5802 -0.3773  1.4147
 6909TIP3    H242219   1.706   5.041   4.833 -0.0262 -0.8157  0.5664
 6910TIP3   OH242220   2.646   6.257   4.745 -0.6401 -0.2243 -0.0627
 6910TIP3    H142221   2.627   6.271   4.653  0.1542  1.6941  0.0247
 6910TIP3    H242222   2.571   6.205   4.777 -0.2277 -2.1879 -2.0372
 6911TIP3   OH242223   0.132   0.579  17.024 -0.5099  0.3490  0.0271
 6911TIP3    H142224   0.066   0.611  17.085  1.5640  0.5855  2.3271
 6911TIP3    H242225   0.184   0.656  17.003  0.3479 -0.2148  0.0330
 6912TIP3   OH242226   3.297   3.794   4.784 -0.3761 -0.9567 -0.1652
 6912TIP3    H142227   3.341   3.790   4.869 -0.7719 -1.1555  0.0314
 6912TIP3    H242228   3.359   3.755   4.723  1.4204  2.2576 -0.6314
 6913TIP3   OH242229   2.410   0.161  14.447  0.2864  0.7331 -0.4130
 6913TIP3    H142230   2.443   0.236  14.399 -0.6682 -0.2424 -2.7602
 6913TIP3    H242231   2.437   0.085  14.395 -0.1737 -0.4524  1.0073
 6914TIP3   OH242232   1.737   4.222   0.430 -0.3724 -0.3854 -0.0081
 6914TIP3    H142233   1.728   4.296   0.490 -0.1489  0.7427 -1.3255
 6914TIP3    H242234   1.815   4.176   0.460 -0.3715  0.0462  0.6829
 6915TIP3   OH242235   3.939   1.498  16.454 -0.8527 -0.1403  0.2957
 6915TIP3    H142236   3.970   1.451  16.531 -1.6183  1.8870  1.9566
 6915TIP3    H242237   3.870   1.556  16.487  0.4663  2.6514 -1.3983
 6916TIP3   OH242238   3.696   5.928   1.048 -0.1384  0.0506 -0.0705
 6916TIP3    H142239   3.676   5.875   0.970 -0.8310  1.7395 -1.0995
 6916TIP3    H242240   3.612   5.968   1.072  0.2193  0.1137  1.1384
 6917TIP3   OH242241   3.098   0.296   5.973 -0.2447  0.2140  0.0638
 6917TIP3    H142242   3.003   0.283   5.974 -0.1992 -0.1976  1.1891
 6917TIP3    H242243   3.133   0.212   6.001  0.5134  0.0453 -1.3271
 6918TIP3   OH242244   0.789   0.807  12.700  0.0076 -0.4118 -0.2613
 6918TIP3    H142245   0.816   0.746  12.630 -2.3386 -0.7322 -0.9641
 6918TIP3    H242246   0.830   0.771  12.779  0.3653 -1.7087 -0.9922
 6919TIP3   OH242247   6.477   0.807   2.464 -0.3812  0.5652 -0.1495
 6919TIP3    H142248   6.542   0.830   2.398  0.5739 -0.5521  0.3693
 6919TIP3    H242249   6.520   0.742   2.519 -1.7505  0.2043  0.5516
 6920TIP3   OH242250   3.585   5.272  13.462  0.3984 -0.0042 -0.2384
 6920TIP3    H142251   3.564   5.341  13.525  0.2780 -2.6132  2.8952
 6920TIP3    H242252   3.500   5.241  13.431  0.3247 -0.1117  0.0579
 6921TIP3   OH242253   2.285   2.571   4.115 -0.4009 -0.0007 -0.4267
 6921TIP3    H142254   2.287   2.527   4.200 -0.1279  0.5352 -0.1567
 6921TIP3    H242255   2.246   2.656   4.133 -0.6776 -0.0228 -0.9040
 6922TIP3   OH242256   6.827   1.084  11.188  0.1573  0.1190  0.0104
 6922TIP3    H142257   6.752   1.027  11.200  1.0228 -0.7563  1.6044
 6922TIP3    H242258   6.844   1.083  11.094 -2.0540  0.6889 -0.4399
 6923TIP3   OH242259   0.226   2.975  16.426  0.1623 -0.7044  0.4380
 6923TIP3    H142260   0.217   2.951  16.518 -0.2927 -0.7455  0.3850
 6923TIP3    H242261   0.219   2.892  16.379  2.1940 -0.9369  0.4559
 6924TIP3   OH242262   2.502   5.100   3.250 -0.7086 -0.0197 -0.1791
 6924TIP3    H142263   2.501   5.195   3.239 -0.9533  0.0357  0.3058
 6924TIP3    H242264   2.568   5.084   3.317  1.8926 -0.4830 -2.6660
 6925TIP3   OH242265   1.334   2.085  11.992  0.0018 -0.1106  0.1226
 6925TIP3    H142266   1.257   2.029  11.978  0.7251 -0.7460 -1.4830
 6925TIP3    H242267   1.318   2.162  11.938  0.8690 -0.6388 -0.9151
 6926TIP3   OH242268   4.567   2.477  13.556 -0.1233  0.1649 -0.2091
 6926TIP3    H142269   4.521   2.495  13.638 -2.0511 -1.5064 -0.8388
 6926TIP3    H242270   4.594   2.564  13.524 -0.9536  1.0104  1.2752
 6927TIP3   OH242271   1.132   1.383   2.823 -0.3698  0.3654 -0.0576
 6927TIP3    H142272   1.183   1.330   2.762 -1.3719 -0.4944 -0.1764
 6927TIP3    H242273   1.176   1.468   2.823  0.9711 -0.3020 -0.2397
 6928TIP3   OH242274   5.718   1.403   2.446  0.4293  0.0850 -0.3894
 6928TIP3    H142275   5.705   1.475   2.384  1.6316 -0.5116 -1.3991
 6928TIP3    H242276   5.811   1.406   2.467  0.0130  0.4327  1.6575
 6929TIP3   OH242277   6.708   4.232  11.824  0.4285  0.3232 -0.2909
 6929TIP3    H142278   6.733   4.164  11.761  0.3150  1.7910 -2.0072
 6929TIP3    H242279   6.684   4.184  11.903  0.0708 -1.6466 -1.5198
 6930TIP3   OH242280   6.191   0.187   3.073 -0.2304 -0.4829 -0.1546
 6930TIP3    H142281   6.277   0.176   3.034 -0.2439  0.2715 -0.4049
 6930TIP3    H242282   6.207   0.230   3.157 -0.2685 -1.4126  0.3451
 6931TIP3   OH242283   1.955   4.681   5.348  0.3949 -0.1208 -0.0037
 6931TIP3    H142284   1.958   4.672   5.444  0.5797  3.1866  0.3894
 6931TIP3    H242285   1.866   4.710   5.329  0.8460  0.8598 -0.6532
 6932TIP3   OH242286   0.657   5.953  17.111 -0.5179  0.2121 -0.1542
 6932TIP3    H142287   0.686   6.035  17.150 -0.2942  0.2070 -0.3033
 6932TIP3    H242288   0.703   5.885  17.162  0.1037  0.2207 -0.6837
 6933TIP3   OH242289   0.475   6.279   0.610  0.0757 -0.3229  0.2997
 6933TIP3    H142290   0.477   6.251   0.518  0.1233  2.8051 -0.7674
 6933TIP3    H242291   0.383   6.272   0.635 -0.0845 -0.3563 -0.2780
 6934TIP3   OH242292   4.849   1.052  15.138  0.7989  0.0493  0.6160
 6934TIP3    H142293   4.781   1.120  15.138  1.6171  0.9222  1.9235
 6934TIP3    H242294   4.814   0.982  15.192  0.0715 -0.4891 -0.5012
 6935TIP3   OH242295   6.327   5.963  13.058  0.1751  0.5516 -0.3308
 6935TIP3    H142296   6.373   5.882  13.081 -0.0983  0.1320 -1.2109
 6935TIP3    H242297   6.397   6.027  13.047  0.3388  0.6608  1.1862
 6936TIP3   OH242298   3.020   1.166  12.547  0.0744  0.2281  0.3963
 6936TIP3    H142299   3.108   1.129  12.551 -0.0944 -0.2494 -0.1995
 6936TIP3    H242300   2.968   1.100  12.502 -0.5924  0.5095  0.7390
 6937TIP3   OH242301   3.223   4.574  13.601  0.1077  0.0211 -0.4858
 6937TIP3    H142302   3.201   4.502  13.661 -0.4662 -0.1592 -0.9044
 6937TIP3    H242303   3.283   4.535  13.538  0.9498  0.2861  0.1297
 6938TIP3   OH242304   2.277   0.992  15.917 -0.2706  0.0898  0.0240
 6938TIP3    H142305   2.243   0.909  15.952  0.3984  0.6147  2.0826
 6938TIP3    H242306   2.223   1.059  15.957  2.0247  0.8496  2.1372
 6939TIP3   OH242307   6.072   3.671  16.590 -0.1200  0.7907  0.1849
 6939TIP3    H142308   6.118   3.604  16.640 -0.2833  0.6029  0.0822
 6939TIP3    H242309   5.981   3.641  16.588 -0.1737  0.9617  0.0494
 6940TIP3   OH242310   0.936   6.397   0.392  0.3455  0.2712 -0.0960
 6940TIP3    H142311   0.922   6.308   0.360 -0.8853  0.5064 -0.2920
 6940TIP3    H242312   1.029   6.413   0.382  0.5388 -0.9215 -0.2610
 6941TIP3   OH242313   6.162   2.609   4.329  0.6876  1.0414 -0.6817
 6941TIP3    H142314   6.218   2.572   4.261  0.3998  2.6492 -1.8343
 6941TIP3    H242315   6.108   2.674   4.284 -1.8152 -0.0968  0.4491
 6942TIP3   OH242316   1.631   0.304  16.349 -0.2490 -0.2824 -0.5296
 6942TIP3    H142317   1.627   0.389  16.395 -2.5000 -0.7218  0.2463
 6942TIP3    H242318   1.633   0.239  16.419 -1.2378 -0.9105 -1.0582
 6943TIP3   OH242319   5.289   3.422   1.130 -0.1695 -0.0142  0.5220
 6943TIP3    H142320   5.313   3.504   1.175 -0.4522  1.0136 -1.1150
 6943TIP3    H242321   5.373   3.377   1.117  0.1671  0.6813  0.2164
 6944TIP3   OH242322   2.135   1.864   1.072  0.5159  0.3054 -0.6294
 6944TIP3    H142323   2.172   1.821   0.995 -1.4013 -1.4815 -0.6532
 6944TIP3    H242324   2.132   1.795   1.138 -1.6353  0.6494 -0.3043
 6945TIP3   OH242325   2.174   0.474  15.556 -0.3016 -0.4871  0.2000
 6945TIP3    H142326   2.119   0.528  15.499 -0.2005  0.2392  0.7688
 6945TIP3    H242327   2.156   0.384  15.529 -0.0877 -0.1554 -1.1134
 6946TIP3   OH242328   1.143   4.757  12.436  0.2742  0.2398 -0.1382
 6946TIP3    H142329   1.151   4.766  12.341 -0.5052 -1.0404 -0.3462
 6946TIP3    H242330   1.170   4.842  12.471  0.8448  0.6261 -1.4870
 6947TIP3   OH242331   2.796   2.849   0.755  0.0002 -0.3522 -0.3867
 6947TIP3    H142332   2.716   2.902   0.750  0.5523  1.0556  3.0923
 6947TIP3    H242333   2.777   2.784   0.823  0.5834 -2.5040 -2.1691
 6948TIP3   OH242334   3.643   1.403  12.668  0.3576 -0.4625 -0.0586
 6948TIP3    H142335   3.551   1.407  12.643  0.4793 -0.6320 -0.5383
 6948TIP3    H242336   3.643   1.359  12.753 -0.3729  2.9132  1.8706
 6949TIP3   OH242337   2.627   5.413  12.395  0.2871  0.6855  0.1211
 6949TIP3    H142338   2.614   5.422  12.300  0.8645  0.8314  0.0557
 6949TIP3    H242339   2.544   5.443  12.433  0.5823  2.0883 -0.2732
 6950TIP3   OH242340   5.951   6.273   2.123  0.3268  0.1173 -0.4995
 6950TIP3    H142341   5.862   6.255   2.154  0.1346  1.5626 -0.1367
 6950TIP3    H242342   5.983   6.189   2.090 -1.5632 -0.2250 -1.6099
 6951TIP3   OH242343   0.882   5.303   6.421 -0.1381  0.2318 -0.1775
 6951TIP3    H142344   0.808   5.323   6.365 -0.1928 -0.1283 -0.2332
 6951TIP3    H242345   0.956   5.291   6.361 -0.1822 -0.0877 -0.1663
 6952TIP3   OH242346   2.921   1.908  13.867 -0.1790 -0.1359  0.5585
 6952TIP3    H142347   2.864   1.907  13.790 -0.4352 -0.3821  0.7514
 6952TIP3    H242348   3.008   1.932  13.832 -0.0795 -1.1918  0.0513
 6953TIP3   OH242349   2.613   5.346   3.945 -0.6650 -0.3812  0.2967
 6953TIP3    H142350   2.565   5.387   4.017 -1.4157 -0.6275 -0.0442
 6953TIP3    H242351   2.557   5.273   3.918  0.2151 -1.0660  0.2951
 6954TIP3   OH242352   5.355   2.354  13.275 -0.7508  0.2907 -0.4825
 6954TIP3    H142353   5.369   2.388  13.363  1.4526 -0.0846 -0.6283
 6954TIP3    H242354   5.372   2.260  13.281  0.8373  0.4672 -1.5270
 6955TIP3   OH242355   2.147   1.740   5.726  0.0996 -0.1507  0.0142
 6955TIP3    H142356   2.197   1.685   5.786  2.5866  1.5712 -0.3285
 6955TIP3    H242357   2.091   1.792   5.783  0.2570 -0.6039  0.5962
 6956TIP3   OH242358   4.155   1.541  15.276  0.7107  0.3496  0.3092
 6956TIP3    H142359   4.226   1.552  15.339 -0.4240 -0.6085  1.8194
 6956TIP3    H242360   4.116   1.629  15.268  1.3081  0.6246  0.3832
 6957TIP3   OH242361   3.744   3.456   3.967 -0.6628 -0.4208  0.4159
 6957TIP3    H142362   3.773   3.478   3.879 -1.1156  0.4281  0.4682
 6957TIP3    H242363   3.822   3.422   4.011 -0.7222 -2.0808 -0.6856
 6958TIP3   OH242364   0.901   5.601  14.027 -0.0969 -0.2377 -0.0510
 6958TIP3    H142365   0.810   5.615  14.002 -0.8794 -0.8988  2.1869
 6958TIP3    H242366   0.931   5.530  13.970 -1.1970 -0.4912 -0.3339
 6959TIP3   OH242367   4.037   5.791  16.868  0.9019 -0.2377  0.0159
 6959TIP3    H142368   3.964   5.829  16.918  0.1585  1.1325 -2.0066
 6959TIP3    H242369   4.101   5.861  16.861  2.3905 -1.3604  1.5648
 6960TIP3   OH242370   6.807   2.073  12.051 -0.1091 -0.4094 -0.4636
 6960TIP3    H142371   6.885   2.066  12.105 -1.5555 -1.2569  1.6734
 6960TIP3    H242372   6.758   1.993  12.068 -0.8240 -0.5850 -2.8636
 6961TIP3   OH242373   3.015   3.073  15.250  0.5143  0.9725 -0.6078
 6961TIP3    H142374   3.070   3.036  15.181  1.3607  1.0586  0.0027
 6961TIP3    H242375   3.055   3.157  15.271  0.2420  0.9632 -0.0303
 6962TIP3   OH242376   1.094   2.172   0.985 -0.3949 -0.2969  0.1701
 6962TIP3    H142377   1.080   2.264   0.962 -4.1682 -1.0460 -1.3743
 6962TIP3    H242378   1.138   2.134   0.909 -1.1122 -0.2047 -0.3064
 6963TIP3   OH242379   3.573   5.144  11.969 -0.1785 -1.1666  0.7115
 6963TIP3    H142380   3.562   5.070  12.029 -3.6235 -0.4791  1.1683
 6963TIP3    H242381   3.551   5.220  12.022  0.2089 -0.1429 -0.5637
 6964TIP3   OH242382   6.663   4.172  16.600  0.1550  0.4341  0.4139
 6964TIP3    H142383   6.757   4.152  16.598 -0.1470 -1.0978  0.7573
 6964TIP3    H242384   6.620   4.087  16.597 -1.2148  1.0197  2.0792
 6965TIP3   OH242385   3.568   4.989  15.520 -0.4540  0.0313 -0.0259
 6965TIP3    H142386   3.506   4.931  15.476  0.7933 -1.6008  0.2647
 6965TIP3    H242387   3.565   4.962  15.612 -0.1261  0.6919  0.1816
 6966TIP3   OH242388   0.345   6.216   4.816  0.1011 -0.0548 -0.4973
 6966TIP3    H142389   0.427   6.246   4.776 -0.1859  2.3917  0.5719
 6966TIP3    H242390   0.355   6.121   4.823  3.2882  0.2291  0.4772
 6967TIP3   OH242391   5.085   5.034  16.279  0.1494 -0.4191 -0.0264
 6967TIP3    H142392   5.070   5.125  16.305 -0.3208 -0.7101  0.7426
 6967TIP3    H242393   5.116   4.991  16.358  1.9440 -0.5862 -0.7739
 6968TIP3   OH242394   3.069   4.651  11.507 -0.5203  0.2949  0.4241
 6968TIP3    H142395   3.116   4.568  11.517  1.4770  1.5223  2.0614
 6968TIP3    H242396   3.003   4.650  11.577 -1.4324 -0.4242 -0.4063
 6969TIP3   OH242397   2.698   1.898  11.981 -0.4867 -0.1723 -0.2043
 6969TIP3    H142398   2.768   1.834  11.991 -0.9459 -1.0187 -1.9584
 6969TIP3    H242399   2.742   1.983  11.984  0.1290 -0.5179  2.1902
 6970TIP3   OH242400   4.616   1.240   2.924 -0.2822  0.4161 -0.2511
 6970TIP3    H142401   4.566   1.217   2.846 -0.9573  1.7511 -0.2298
 6970TIP3    H242402   4.627   1.335   2.919 -2.2852  0.8938  2.3957
 6971TIP3   OH242403   2.411   0.583   5.514  0.4103  0.0947 -0.3562
 6971TIP3    H142404   2.388   0.555   5.426 -1.3498  0.4777 -0.0647
 6971TIP3    H242405   2.335   0.634   5.543  2.4224  3.1015  0.0451
 6972TIP3   OH242406   0.970   0.257   3.725 -0.1879  0.1294 -0.5511
 6972TIP3    H142407   0.946   0.184   3.782 -1.2995 -0.7285 -2.0525
 6972TIP3    H242408   1.066   0.256   3.723 -0.1214  0.0531  1.0829
 6973TIP3   OH242409   5.932   2.182  13.418 -0.0782 -0.5069 -0.0058
 6973TIP3    H142410   5.879   2.251  13.377 -0.7739 -0.8370  0.3126
 6973TIP3    H242411   5.886   2.164  13.501 -0.0719 -1.5577 -0.2207
 6974TIP3   OH242412   0.163   6.546  13.776  0.1052  0.8414 -0.3561
 6974TIP3    H142413   0.130   6.543  13.687  1.0306 -0.0565 -0.6978
 6974TIP3    H242414   0.159   6.638  13.801 -0.9511  0.9843 -1.0075
 6975TIP3   OH242415   4.173   6.431  15.832  0.1412 -0.0157 -0.2949
 6975TIP3    H142416   4.127   6.422  15.748 -0.2041  0.3320 -0.1408
 6975TIP3    H242417   4.130   6.504  15.876  0.6736  0.1493 -0.0395
 6976TIP3   OH242418   2.592   3.368  14.067 -0.3770  0.5062 -0.0943
 6976TIP3    H142419   2.638   3.396  13.988  0.8429 -0.0831  0.3729
 6976TIP3    H242420   2.660   3.364  14.134 -1.0350 -0.7798  0.5366
 6977TIP3   OH242421   1.928   0.898   0.388 -0.0185 -0.2036  0.0146
 6977TIP3    H142422   1.838   0.877   0.414 -0.4444 -0.3854 -1.5057
 6977TIP3    H242423   1.921   0.983   0.344  0.7838  0.4319  1.0691
 6978TIP3   OH242424   1.315   4.067  11.984  0.0339  0.5640 -0.0550
 6978TIP3    H142425   1.222   4.071  12.007 -0.3353  0.7024 -1.4956
 6978TIP3    H242426   1.358   4.123  12.049 -1.0500  1.5523 -0.1610
 6979TIP3   OH242427   5.548   3.251  10.709  0.4418 -0.1291  0.2253
 6979TIP3    H142428   5.571   3.290  10.625 -0.8841 -0.1786 -0.1850
 6979TIP3    H242429   5.574   3.160  10.702  1.2281  0.0832  0.2457
 6980TIP3   OH242430   4.891   1.422  11.763  0.5219 -0.1569  0.0489
 6980TIP3    H142431   4.850   1.502  11.795 -1.6880 -2.3131  3.2619
 6980TIP3    H242432   4.831   1.389  11.696  0.8091  0.2650 -0.4190
 6981TIP3   OH242433   4.128   1.958   4.973  0.2225 -0.1574 -0.1484
 6981TIP3    H142434   4.168   1.884   5.018 -1.5223 -0.4693  0.9954
 6981TIP3    H242435   4.158   2.035   5.022 -0.2862 -0.3609  0.5011
 6982TIP3   OH242436   6.473   2.339   3.981  0.0774 -0.1721  0.1379
 6982TIP3    H142437   6.549   2.378   3.938  0.1102 -0.3073  0.0736
 6982TIP3    H242438   6.419   2.414   4.007 -0.7510 -0.1165 -1.6136
 6983TIP3   OH242439   1.023   4.173  12.409  0.2173  0.0605 -0.0478
 6983TIP3    H142440   1.110   4.138  12.394  0.0064 -0.5411  0.1116
 6983TIP3    H242441   1.014   4.178  12.504  0.8915  2.2173 -0.0394
 6984TIP3   OH242442   2.453   4.454  10.358  0.4497 -0.0565  0.2245
 6984TIP3    H142443   2.442   4.371  10.312 -1.3905  0.4813 -0.4082
 6984TIP3    H242444   2.490   4.513  10.293  1.9769 -0.3971  0.7386
 6985TIP3   OH242445   5.623   0.489   0.180 -0.5165 -0.1527  0.2417
 6985TIP3    H142446   5.620   0.576   0.140 -0.0214 -0.3353 -0.2101
 6985TIP3    H242447   5.591   0.502   0.269 -3.1085  0.0056 -0.6309
 6986TIP3   OH242448   5.556   3.974   6.049 -0.0082 -0.0739 -0.1748
 6986TIP3    H142449   5.593   4.014   5.971  1.4645  0.0773  0.5595
 6986TIP3    H242450   5.555   4.045   6.114  2.7523 -1.1064  1.1843
 6987TIP3   OH242451   2.445   4.053  14.050  0.1934 -1.0496 -0.4898
 6987TIP3    H142452   2.480   4.125  14.102  0.5903 -2.0147  0.6196
 6987TIP3    H242453   2.479   4.069  13.961  0.3075  0.0864 -0.2572
 6988TIP3   OH242454   0.208   6.436  15.887  0.0690 -0.4601 -0.4750
 6988TIP3    H142455   0.249   6.458  15.970  1.0197  3.5483 -1.7859
 6988TIP3    H242456   0.129   6.387  15.911  0.2024  0.7173  2.7763
 6989TIP3   OH242457   5.740   4.717  13.566 -0.5179  0.1931 -0.0362
 6989TIP3    H142458   5.714   4.750  13.652  2.5257  0.2785  0.9832
 6989TIP3    H242459   5.741   4.622  13.575  2.5597  0.2194  1.0936
 6990TIP3   OH242460   2.961   5.431  15.230 -0.2713 -0.1892 -0.2053
 6990TIP3    H142461   3.023   5.361  15.209  0.8225  1.1920 -1.8209
 6990TIP3    H242462   3.004   5.511  15.202 -1.2108  1.2729  2.1836
 6991TIP3   OH242463   3.254   4.061   0.941  0.1126 -0.5291 -0.2049
 6991TIP3    H142464   3.331   4.082   0.887  1.7239 -2.8869  0.9755
 6991TIP3    H242465   3.192   4.024   0.878 -0.5323  2.1871 -1.3264
 6992TIP3   OH242466   0.673   1.526   2.556  0.2275  0.2135 -0.1906
 6992TIP3    H142467   0.701   1.455   2.614  0.8904  0.8075  0.2351
 6992TIP3    H242468   0.754   1.572   2.534 -0.1722  0.7164 -0.6290
 6993TIP3   OH242469   2.119   2.642  14.743  1.0672  0.1661 -0.3663
 6993TIP3    H142470   2.104   2.716  14.684 -1.0884  1.2229  1.3637
 6993TIP3    H242471   2.145   2.570  14.686  3.2172  2.1816 -2.1321
 6994TIP3   OH242472   5.412   4.570   0.914 -0.1423  0.1501 -0.2196
 6994TIP3    H142473   5.328   4.617   0.913  1.3504  3.1673  1.1300
 6994TIP3    H242474   5.429   4.550   0.822 -1.2650  1.6459 -0.8002
 6995TIP3   OH242475   2.054   6.449   4.086  0.5605 -0.6024 -0.8485
 6995TIP3    H142476   2.050   6.413   3.997 -0.5950  1.5905 -1.7580
 6995TIP3    H242477   2.129   6.508   4.085 -0.9751  1.4464 -1.2614
 6996TIP3   OH242478   2.989   2.461  11.179 -0.1476 -0.3535  0.6176
 6996TIP3    H142479   3.004   2.448  11.273  1.3021  0.5986  0.5638
 6996TIP3    H242480   2.996   2.374  11.141 -0.0004 -0.6515  1.3201
 6997TIP3   OH242481   1.228   3.880   0.403 -0.1277  0.0861  0.5381
 6997TIP3    H142482   1.277   3.925   0.334  0.3018  1.5240  1.7075
 6997TIP3    H242483   1.292   3.820   0.443  0.4666  1.2525  1.4259
 6998TIP3   OH242484   2.347   3.896  12.043 -0.7479  0.7458  0.5093
 6998TIP3    H142485   2.359   3.812  11.998 -1.7536  1.4294 -1.0972
 6998TIP3    H242486   2.407   3.891  12.118  1.0422 -0.3991 -0.9102
 6999TIP3   OH242487   1.193   1.974  14.989 -0.6535  0.5082  0.0314
 6999TIP3    H142488   1.168   1.893  14.944  1.3151 -0.3105  0.2844
 6999TIP3    H242489   1.222   1.944  15.075  1.1410  1.3206 -0.2486
 7000TIP3   OH242490   3.033   4.836   3.901  0.2260  0.1833 -0.0843
 7000TIP3    H142491   3.123   4.806   3.910 -0.3098 -1.7127 -0.6081
 7000TIP3    H242492   2.995   4.827   3.988  0.1954 -0.2824 -0.1415
 7001TIP3   OH242493   4.194   5.027  16.070  0.0257 -0.3865 -0.0490
 7001TIP3    H142494   4.258   4.990  16.010  1.7148 -0.9456  1.9645
 7001TIP3    H242495   4.166   4.953  16.124 -0.5835  0.2917  0.5931
 7002TIP3   OH242496   0.921   1.829  15.398  0.1185 -0.2320  0.1276
 7002TIP3    H142497   0.844   1.772  15.407 -0.6279  0.9391  1.6785
 7002TIP3    H242498   0.903   1.881  15.319  0.2435 -1.2672 -0.6053
 7003TIP3   OH242499   4.779   1.729   5.263 -0.2131 -0.0060  0.3264
 7003TIP3    H142500   4.841   1.656   5.261 -0.5302 -0.3129  1.2571
 7003TIP3    H242501   4.774   1.754   5.355 -2.1513 -0.5845  0.4284
 7004TIP3   OH242502   0.602   0.629  14.332  0.1565 -0.5778 -0.4759
 7004TIP3    H142503   0.672   0.603  14.391  0.3551  1.6373  0.3364
 7004TIP3    H242504   0.635   0.706  14.287 -0.6056 -1.2915 -2.3597
 7005TIP3   OH242505   2.068   2.908  12.119  0.3046  0.9342  0.3028
 7005TIP3    H142506   2.128   2.840  12.089 -0.9618 -0.1315  0.0862
 7005TIP3    H242507   2.105   2.990  12.085  1.8600  0.3685  0.5856
 7006TIP3   OH242508   2.286   5.736   4.891  0.2620  0.2445 -0.2451
 7006TIP3    H142509   2.263   5.756   4.800  1.2724  1.3854 -0.2799
 7006TIP3    H242510   2.292   5.822   4.933 -2.2916 -0.2976  1.4834
 7007TIP3   OH242511   1.716   2.001  14.101  0.0541  0.0795 -0.3625
 7007TIP3    H142512   1.807   1.984  14.123  0.5516  3.1025  0.4622
 7007TIP3    H242513   1.713   2.007  14.006  1.1428  1.5801 -0.3395
 7008TIP3   OH242514   1.314   4.328   5.234  0.0719  0.2581  0.1720
 7008TIP3    H142515   1.219   4.334   5.225  0.1392 -0.5172 -1.3267
 7008TIP3    H242516   1.330   4.238   5.263  0.3535  0.4855  0.7570
 7009TIP3   OH242517   4.579   1.492   1.248 -0.1783  0.4278  0.0095
 7009TIP3    H142518   4.485   1.487   1.266 -0.3830 -1.9881 -1.3264
 7009TIP3    H242519   4.586   1.486   1.153  1.3738 -2.2066  0.1969
 7010TIP3   OH242520   0.785   2.127  13.287 -0.3871 -0.5489  0.6131
 7010TIP3    H142521   0.875   2.097  13.271 -0.2991  0.6100 -1.3036
 7010TIP3    H242522   0.741   2.120  13.202 -0.7589  3.2492  0.3037
 7011TIP3   OH242523   6.118   5.644   1.175 -0.5050  0.1108 -0.1797
 7011TIP3    H142524   6.174   5.681   1.107  0.9450 -0.6354  0.5542
 7011TIP3    H242525   6.172   5.646   1.255 -0.8167 -2.2484  0.1870
 7012TIP3   OH242526   6.164   6.395  11.350 -0.6684  0.0631 -0.3388
 7012TIP3    H142527   6.224   6.460  11.388 -0.9812 -0.0298  0.3271
 7012TIP3    H242528   6.115   6.443  11.284  1.1733 -0.1989 -1.9907
 7013TIP3   OH242529   4.253   4.427  15.665  0.6541 -0.1233  0.2453
 7013TIP3    H142530   4.236   4.499  15.726  0.6908 -0.1923  0.3383
 7013TIP3    H242531   4.167   4.405  15.629  0.4679 -0.7727  1.0538
 7014TIP3   OH242532   2.758   4.973  15.925 -0.2164 -0.0884  0.3472
 7014TIP3    H142533   2.788   5.022  16.002 -0.9629  0.0998  0.5364
 7014TIP3    H242534   2.756   4.882  15.953 -0.9942  0.0351  0.7416
 7015TIP3   OH242535   0.887   0.847  14.564  0.1792 -0.0121  0.6970
 7015TIP3    H142536   0.951   0.913  14.592  0.2669  0.3842 -0.3963
 7015TIP3    H242537   0.829   0.894  14.504  1.3414 -1.3215 -1.5860
 7016TIP3   OH242538   4.009   4.238   5.994 -0.2047  0.9387  0.5019
 7016TIP3    H142539   3.922   4.263   6.024 -0.4201 -1.3920  2.0446
 7016TIP3    H242540   4.068   4.266   6.064 -0.1207 -0.2831  0.9353
 7017TIP3   OH242541   2.132   4.688   6.603  0.1157 -0.1766  0.6111
 7017TIP3    H142542   2.088   4.667   6.686  2.0514 -0.3384  1.6655
 7017TIP3    H242543   2.068   4.666   6.535 -1.9992  1.0725  2.0729
 7018TIP3   OH242544   4.771   1.174  14.310 -0.7279  0.4161  0.4104
 7018TIP3    H142545   4.856   1.185  14.353 -0.8978  1.0397  0.5934
 7018TIP3    H242546   4.768   1.244  14.245 -0.1236 -1.0135 -1.2227
 7019TIP3   OH242547   1.387   0.168  12.079 -0.1095  0.3851 -0.4822
 7019TIP3    H142548   1.335   0.208  12.009 -0.8370  1.8410  0.8381
 7019TIP3    H242549   1.323   0.132  12.140  0.5232 -1.7495 -0.9882
 7020TIP3   OH242550   0.319   3.391   2.302  0.2958 -0.2231  0.1660
 7020TIP3    H142551   0.390   3.443   2.340 -1.4154  1.0993  1.7282
 7020TIP3    H242552   0.332   3.400   2.207  1.8203  0.5166  0.4021
 7021TIP3   OH242553   4.960   6.058  12.519  0.6017 -0.1441 -0.3316
 7021TIP3    H142554   5.028   6.108  12.565 -0.9372  1.8823 -0.1103
 7021TIP3    H242555   4.943   5.983  12.576 -1.6390  2.5627  2.9689
 7022TIP3   OH242556   5.728   0.773   5.910  0.3062 -0.5425 -0.0023
 7022TIP3    H142557   5.746   0.857   5.869  1.6893 -0.5476  0.5362
 7022TIP3    H242558   5.688   0.720   5.841  1.7005 -0.2420 -1.0850
 7023TIP3   OH242559   3.898   0.119  10.910 -0.2033  0.6286  0.1099
 7023TIP3    H142560   3.811   0.146  10.881 -1.2358 -2.1393  0.2541
 7023TIP3    H242561   3.945   0.100  10.829 -1.3045 -2.0459 -0.0091
 7024TIP3   OH242562   6.404   1.827  13.942  0.2873  0.3746 -0.3889
 7024TIP3    H142563   6.450   1.748  13.912 -0.1366 -0.2816  0.6295
 7024TIP3    H242564   6.358   1.859  13.864  1.6714  0.4948 -1.1852
 7025TIP3   OH242565   1.458   3.939   3.477 -0.3354 -0.3216 -0.1727
 7025TIP3    H142566   1.408   3.996   3.417  0.2618  0.5282  0.1211
 7025TIP3    H242567   1.435   3.971   3.564  2.3521  1.5810 -0.0382
 7026TIP3   OH242568   2.003   4.611   2.994 -0.1266 -0.3296  0.0748
 7026TIP3    H142569   1.917   4.598   2.955 -0.6700 -4.5065  2.0446
 7026TIP3    H242570   2.065   4.580   2.927 -0.6897 -2.6641  0.5335
 7027TIP3   OH242571   4.337   0.061   2.148 -0.5387  0.0109 -0.7343
 7027TIP3    H142572   4.268   0.009   2.189 -1.0903  1.8117  0.7710
 7027TIP3    H242573   4.418   0.013   2.166 -1.1302 -0.8230 -0.2481
 7028TIP3   OH242574   5.688   6.173   3.669 -0.6603  0.2316 -0.1069
 7028TIP3    H142575   5.737   6.232   3.726 -0.9022 -0.1325  0.4983
 7028TIP3    H242576   5.748   6.101   3.651 -1.1864 -0.6097  1.2788
 7029TIP3   OH242577   1.157   5.517   1.283  0.3453  0.1927 -0.1192
 7029TIP3    H142578   1.214   5.592   1.267 -0.0403  0.9717  1.8068
 7029TIP3    H242579   1.215   5.442   1.285  1.1924  0.8404  0.7726
 7030TIP3   OH242580   5.761   6.350   5.726 -0.1054 -0.5322 -0.1010
 7030TIP3    H142581   5.733   6.434   5.761  0.8625 -0.1596 -0.1881
 7030TIP3    H242582   5.686   6.319   5.675 -1.0666 -0.4969  1.2404
 7031TIP3   OH242583   1.608   1.669   5.467  0.0247  0.1244 -0.2121
 7031TIP3    H142584   1.669   1.713   5.525  0.6576  0.2571 -0.9535
 7031TIP3    H242585   1.655   1.663   5.383 -1.1918  0.7778 -0.9780
 7032TIP3   OH242586   2.462   5.076  16.367 -0.0501 -0.1011 -0.2269
 7032TIP3    H142587   2.557   5.066  16.372 -0.1348 -0.5709  0.7540
 7032TIP3    H242588   2.441   5.060  16.275  0.8608  0.4650 -0.5422
 7033TIP3   OH242589   3.802   4.285  12.283  0.2800 -0.3987 -0.1092
 7033TIP3    H142590   3.830   4.212  12.229  1.8605 -0.2503  0.4641
 7033TIP3    H242591   3.795   4.249  12.371  0.2039 -0.0672  0.0228
 7034TIP3   OH242592   3.453   5.574  11.151 -0.3289  0.5691  0.0383
 7034TIP3    H142593   3.501   5.514  11.094  1.6290  1.5520  0.5598
 7034TIP3    H242594   3.414   5.638  11.091  0.5158  0.7660 -0.3186
 7035TIP3   OH242595   2.056   1.746  13.403  0.1500  0.0637  0.6357
 7035TIP3    H142596   1.964   1.771  13.417  0.3538  0.6675  0.9524
 7035TIP3    H242597   2.076   1.686  13.475 -0.3947 -1.2037 -0.2262
 7036TIP3   OH242598   5.318   6.763   6.012  0.4271 -0.2910 -0.1071
 7036TIP3    H142599   5.403   6.735   5.979  0.4843 -0.1854 -0.0510
 7036TIP3    H242600   5.293   6.836   5.956 -1.3880 -2.6299 -2.6307
 7037TIP3   OH242601   6.050   2.379   4.363  0.5397 -0.3367  0.0360
 7037TIP3    H142602   6.052   2.377   4.459  1.4075  0.6378  0.0626
 7037TIP3    H242603   6.076   2.468   4.341 -2.3018  0.3187 -1.0826
 7038TIP3   OH242604   3.439   1.442  13.851  0.4309 -0.4009  0.3899
 7038TIP3    H142605   3.361   1.466  13.900 -0.3533  1.2772 -1.5197
 7038TIP3    H242606   3.477   1.368  13.899 -2.8667 -1.9628  0.8097
 7039TIP3   OH242607   3.840   6.730  13.858  0.0270 -0.1796 -0.2566
 7039TIP3    H142608   3.934   6.722  13.877  0.2103 -1.6474 -1.6060
 7039TIP3    H242609   3.833   6.808  13.804  0.2720  0.7066  0.9626
 7040TIP3   OH242610   4.188   5.707   5.281  0.1913 -0.1699 -0.0279
 7040TIP3    H142611   4.275   5.698   5.242  0.5829 -0.5675  0.9062
 7040TIP3    H242612   4.196   5.663   5.365 -1.0118 -0.4857 -0.0722
 7041TIP3   OH242613   3.289   0.975  15.751  0.3976 -0.0573  0.2643
 7041TIP3    H142614   3.208   1.002  15.708  0.4621  0.1213  0.2535
 7041TIP3    H242615   3.261   0.945  15.838 -0.1132 -3.2367 -0.8906
 7042TIP3   OH242616   6.550   0.498  12.502 -0.1273 -0.3756  0.8202
 7042TIP3    H142617   6.582   0.588  12.510  0.1301 -0.2561 -0.9669
 7042TIP3    H242618   6.584   0.469  12.417 -3.0271 -0.9695 -0.2417
 7043TIP3   OH242619   1.505   0.304  12.473 -0.4604  0.8339 -0.6049
 7043TIP3    H142620   1.488   0.368  12.542 -0.8242  0.4400 -0.3264
 7043TIP3    H242621   1.594   0.273  12.490 -0.1835  1.4464 -0.8934
 7044TIP3   OH242622   5.175   2.080  11.584  0.2357  0.4833 -0.5348
 7044TIP3    H142623   5.225   2.022  11.527 -1.2462 -0.9925 -0.4058
 7044TIP3    H242624   5.107   2.118  11.527  0.6941  1.4852 -0.4374
 7045TIP3   OH242625   3.809   3.802   0.516 -0.2316 -0.5025  0.6670
 7045TIP3    H142626   3.729   3.845   0.547 -1.1142 -0.3445 -1.5932
 7045TIP3    H242627   3.786   3.710   0.510 -0.5489 -0.3542 -0.7326
 7046TIP3   OH242628   6.334   5.008   0.061 -0.7827  0.2039  0.0665
 7046TIP3    H142629   6.376   4.922   0.059 -1.4395 -0.1677  1.3026
 7046TIP3    H242630   6.240   4.989   0.058 -0.9241  0.9020 -0.1277
 7047TIP3   OH242631   5.839   3.801  13.945 -0.1202  0.1120  0.1371
 7047TIP3    H142632   5.911   3.849  13.986 -1.7062  0.3853  2.8962
 7047TIP3    H242633   5.873   3.713  13.931  1.1852  0.6164 -0.0076
 7048TIP3   OH242634   0.779   5.569   3.217 -0.0598  0.3276 -0.1886
 7048TIP3    H142635   0.833   5.600   3.289 -0.6623 -0.7846  0.7554
 7048TIP3    H242636   0.691   5.559   3.255  0.2558 -3.4330 -0.1335
 7049TIP3   OH242637   3.664   2.877  16.492  0.4657 -0.1938 -0.2042
 7049TIP3    H142638   3.618   2.859  16.409  0.8106  0.6212 -0.5798
 7049TIP3    H242639   3.669   2.972  16.497 -1.6783 -0.1008  1.9412
 7050TIP3   OH242640   2.052   4.012  16.314  0.2012  0.2720 -0.0707
 7050TIP3    H142641   1.998   3.946  16.271  1.2002  0.6091 -1.9637
 7050TIP3    H242642   2.120   3.962  16.359  0.8460 -0.0345 -1.3437
 7051TIP3   OH242643   1.940   5.590   3.218 -0.4340 -0.4299 -0.6113
 7051TIP3    H142644   1.962   5.639   3.297  1.3130  0.2906 -1.5017
 7051TIP3    H242645   1.898   5.511   3.250 -1.5747  0.7359  0.9436
 7052TIP3   OH242646   2.811   5.788  10.137 -0.2210  0.2003 -0.3938
 7052TIP3    H142647   2.734   5.755  10.184  1.0509  1.1217  2.5331
 7052TIP3    H242648   2.870   5.714  10.132 -0.8360 -0.2375 -1.7706
 7053TIP3   OH242649   0.776   0.270   3.180 -0.3694  0.4355 -0.0240
 7053TIP3    H142650   0.717   0.265   3.255  0.4333 -0.1056  0.5957
 7053TIP3    H242651   0.719   0.284   3.105 -1.1560  1.4552  0.7324
 7054TIP3   OH242652   5.275   3.461  16.038 -0.1270 -0.6316 -0.5388
 7054TIP3    H142653   5.242   3.434  16.124  0.2420  0.8077  0.0878
 7054TIP3    H242654   5.284   3.380  15.989  1.9161 -1.7899  1.5612
 7055TIP3   OH242655   5.013   0.104   2.972 -0.5659 -0.3552  0.2198
 7055TIP3    H142656   4.976   0.016   2.964  0.2807 -1.0108  2.5487
 7055TIP3    H242657   5.064   0.117   2.892 -1.1300 -1.7594 -0.3956
 7056TIP3   OH242658   4.127   5.956   2.558  0.1951 -0.4308 -0.1530
 7056TIP3    H142659   4.196   5.901   2.595  1.5616 -0.6061 -2.7286
 7056TIP3    H242660   4.164   6.044   2.557 -0.8892  0.0919  1.3003
 7057TIP3   OH242661   2.611   0.192  14.131 -0.4110 -0.1538  0.2303
 7057TIP3    H142662   2.536   0.250  14.122 -0.6579 -0.5122 -0.0687
 7057TIP3    H242663   2.685   0.243  14.101 -0.6265  0.0086 -0.0250
 7058TIP3   OH242664   3.330   6.306  11.622 -0.0305  0.1686 -0.2236
 7058TIP3    H142665   3.385   6.292  11.544 -1.0184  2.4103 -1.4188
 7058TIP3    H242666   3.355   6.235  11.681 -0.2882 -2.5918 -3.1157
 7059TIP3   OH242667   0.607   3.355   4.362  0.0834 -0.0050  0.2841
 7059TIP3    H142668   0.586   3.271   4.403 -0.9515 -0.5748 -1.3054
 7059TIP3    H242669   0.701   3.353   4.349 -0.0247 -1.2720 -0.4365
 7060TIP3   OH242670   4.972   5.201   1.368 -0.1216 -0.4024 -0.1332
 7060TIP3    H142671   4.972   5.259   1.292 -1.5604  0.9780  0.8735
 7060TIP3    H242672   4.932   5.120   1.336  0.8925 -0.4817 -1.2686
 7061TIP3   OH242673   1.635   1.823   6.045 -0.6365 -0.1825 -0.2949
 7061TIP3    H142674   1.700   1.878   6.088 -0.8984 -0.7280  0.8582
 7061TIP3    H242675   1.676   1.736   6.042 -1.8830 -0.9382  1.9873
 7062TIP3   OH242676   2.618   1.698  15.160  0.0054 -0.0459 -0.6414
 7062TIP3    H142677   2.652   1.770  15.213  0.5787 -1.0271  0.3893
 7062TIP3    H242678   2.584   1.635  15.225  2.0341 -1.9496 -1.3093
 7063TIP3   OH242679   6.118   4.577  16.847  0.5302  0.1037  0.2576
 7063TIP3    H142680   6.188   4.539  16.899  1.0306  1.0184  0.2697
 7063TIP3    H242681   6.039   4.530  16.874  0.9792 -0.2608  0.9494
 7064TIP3   OH242682   2.071   0.046  12.208  0.4101  0.1092  0.6227
 7064TIP3    H142683   2.057  -0.043  12.176 -0.6858  0.3305  0.4314
 7064TIP3    H242684   2.161   0.067  12.183  0.7737 -1.0307  0.9077
 7065TIP3   OH242685   2.277   2.441   5.116  0.1351 -0.2011  0.1579
 7065TIP3    H142686   2.249   2.489   5.038 -1.9156 -1.0031  0.3587
 7065TIP3    H242687   2.311   2.508   5.175 -1.4534  0.8481 -0.0849
 7066TIP3   OH242688   5.892   4.200   0.710  0.2933  0.7576  0.0996
 7066TIP3    H142689   5.877   4.240   0.624  0.6538 -0.0879 -0.3717
 7066TIP3    H242690   5.804   4.190   0.747 -0.0035 -0.2597 -0.8272
 7067TIP3   OH242691   5.078   6.330   5.018  0.5991 -0.6201  0.0260
 7067TIP3    H142692   5.128   6.277   4.956  1.3610  1.0563 -0.8516
 7067TIP3    H242693   5.130   6.330   5.098  0.6849 -1.0324 -0.0286
 7068TIP3   OH242694   0.391   0.792   3.753 -0.3538  0.6994 -0.0011
 7068TIP3    H142695   0.466   0.849   3.734  0.1600  0.0486  0.0633
 7068TIP3    H242696   0.374   0.806   3.846  0.2562  0.1810  0.1932
 7069TIP3   OH242697   1.450   4.745  12.327  0.2551 -0.3237 -0.4099
 7069TIP3    H142698   1.434   4.792  12.409  2.2632  0.2362 -0.2923
 7069TIP3    H242699   1.365   4.745  12.282 -0.5431  0.5685  1.0374
 7070TIP3   OH242700   5.784   0.440   3.619  0.1041  0.3748 -0.3616
 7070TIP3    H142701   5.780   0.464   3.526 -1.0981  1.0443 -0.1587
 7070TIP3    H242702   5.715   0.374   3.629  0.0073  0.5486  0.1176
 7071TIP3   OH242703   6.649   0.227   1.393 -0.6727  0.5510  0.0445
 7071TIP3    H142704   6.576   0.231   1.454  0.2877  0.7855  1.2105
 7071TIP3    H242705   6.678   0.136   1.395 -0.0825  0.7379  0.6487
 7072TIP3   OH242706   6.545   1.096   3.992 -0.1384 -0.3675 -0.4368
 7072TIP3    H142707   6.563   1.174   4.044 -0.7213 -0.3101 -0.3169
 7072TIP3    H242708   6.514   1.031   4.055  0.2655 -0.6770 -0.5472
 7073TIP3   OH242709   3.859   0.640   3.885 -0.2214  0.0801  0.2153
 7073TIP3    H142710   3.790   0.707   3.883 -0.1038  0.2302  0.8687
 7073TIP3    H242711   3.819   0.564   3.843 -0.6563  0.2833  0.2488
 7074TIP3   OH242712   0.229   2.611  13.571 -0.0497 -0.6599 -0.3110
 7074TIP3    H142713   0.151   2.613  13.627  0.3158 -0.2984  0.2027
 7074TIP3    H242714   0.199   2.576  13.488 -1.1391  1.1663 -0.7206
 7075TIP3   OH242715   0.297   5.196  12.638  0.1192 -1.0730  0.2805
 7075TIP3    H142716   0.347   5.261  12.589 -2.3968  1.4579  0.8077
 7075TIP3    H242717   0.233   5.162  12.576 -0.9416 -0.2962  0.9167
 7076TIP3   OH242718   6.846   3.078   4.638 -0.0185  0.2547  0.3381
 7076TIP3    H142719   6.772   3.057   4.580  0.6284  0.7512 -0.6965
 7076TIP3    H242720   6.857   3.172   4.629  3.0246 -0.1817 -2.4694
 7077TIP3   OH242721   6.098   3.973   5.381  0.5393 -0.3813 -0.4220
 7077TIP3    H142722   6.193   3.982   5.380  0.6329 -1.2654 -0.9356
 7077TIP3    H242723   6.076   3.956   5.472  0.8523 -0.0051 -0.2725
 7078TIP3   OH242724   2.554   3.896   3.005 -0.2320 -0.5346 -0.5330
 7078TIP3    H142725   2.559   3.927   2.915  1.8392 -0.0422 -0.2952
 7078TIP3    H242726   2.479   3.942   3.042 -1.5776 -1.2830 -2.1620
 7079TIP3   OH242727   2.861   3.250   1.408  0.8399 -0.4141  0.3880
 7079TIP3    H142728   2.925   3.194   1.363 -1.0190 -0.8678 -1.8702
 7079TIP3    H242729   2.861   3.332   1.358 -1.2650 -0.9095 -0.4984
 7080TIP3   OH242730   2.715   6.446   6.319 -0.3952 -0.4203 -0.2172
 7080TIP3    H142731   2.779   6.504   6.359  0.3012  0.5891 -2.6287
 7080TIP3    H242732   2.634   6.463   6.367  0.4544  0.4065  0.9905
 7081TIP3   OH242733   5.229   1.444  15.310 -0.5024  0.0885 -0.3736
 7081TIP3    H142734   5.203   1.408  15.225 -0.3413 -1.2339  0.1151
 7081TIP3    H242735   5.321   1.423  15.318 -0.6745 -0.3865  0.4146
 7082TIP3   OH242736   3.264   4.216   2.759 -0.3312  0.1153  0.3044
 7082TIP3    H142737   3.186   4.270   2.753 -0.2084  0.1595 -1.0727
 7082TIP3    H242738   3.269   4.192   2.852 -1.4895  0.8092  0.5650
 7083TIP3   OH242739   5.797   5.194   1.703  0.3854 -0.1395 -0.6196
 7083TIP3    H142740   5.795   5.290   1.697  0.3886 -0.0974 -0.0377
 7083TIP3    H242741   5.710   5.166   1.675  0.1628  0.0778 -0.1568
 7084TIP3   OH242742   0.780   4.970  15.462  0.4271  0.1673  0.1289
 7084TIP3    H142743   0.867   4.947  15.431  0.8477 -0.2307  1.5496
 7084TIP3    H242744   0.729   4.890  15.454  0.8579 -0.2744  1.5017
 7085TIP3   OH242745   4.916   6.708   3.457  0.1296 -0.3951 -0.5532
 7085TIP3    H142746   4.910   6.675   3.367 -0.0726  0.1134 -0.7272
 7085TIP3    H242747   4.927   6.629   3.510 -0.0932 -0.7270 -0.9888
 7086TIP3   OH242748   5.861   0.252   0.285  0.2708  0.0612  0.0119
 7086TIP3    H142749   5.887   0.161   0.269  2.0296  0.3834  0.8354
 7086TIP3    H242750   5.924   0.304   0.234  1.0799  0.8758  1.7770
 7087TIP3   OH242751   2.909   3.826   1.863  0.5552  0.0213  0.1235
 7087TIP3    H142752   2.826   3.778   1.862  1.9070 -2.4405 -0.0734
 7087TIP3    H242753   2.902   3.883   1.940 -1.7392  0.7781 -0.5374
 7088TIP3   OH242754   2.738   1.103  12.957  0.2093  0.2374 -0.2430
 7088TIP3    H142755   2.681   1.180  12.948 -1.9252 -0.6854  3.2770
 7088TIP3    H242756   2.822   1.139  12.985 -0.4579  1.4036  0.3607
 7089TIP3   OH242757   6.041   1.263  14.322 -0.4739 -0.4386 -0.0289
 7089TIP3    H142758   5.980   1.249  14.394  0.4977 -0.9095  0.7285
 7089TIP3    H242759   5.993   1.319  14.260 -1.3078  0.0279  1.0088
 7090TIP3   OH242760   2.700   0.806  13.455 -0.3120 -0.0300  0.1981
 7090TIP3    H142761   2.692   0.896  13.487 -0.7996 -0.2415  0.6804
 7090TIP3    H242762   2.644   0.754  13.513  1.6125 -0.9856  1.3116
 7091TIP3   OH242763   4.156   2.665  11.911  0.1382 -0.2766 -0.3184
 7091TIP3    H142764   4.172   2.622  11.995  1.4110 -1.3234 -1.0570
 7091TIP3    H242765   4.104   2.603  11.861 -1.3899  0.7172 -0.0199
 7092TIP3   OH242766   3.792   1.376  13.496  0.0802 -0.1132  0.5021
 7092TIP3    H142767   3.839   1.382  13.413 -0.7597  0.7632  0.0697
 7092TIP3    H242768   3.705   1.344  13.472 -0.0732 -0.1551  1.0913
 7093TIP3   OH242769   4.787   5.547  16.844 -0.5098 -0.1719  0.3827
 7093TIP3    H142770   4.736   5.616  16.887 -0.4684 -0.7417  1.3712
 7093TIP3    H242771   4.723   5.501  16.790 -1.0398 -0.8219  1.5410
 7094TIP3   OH242772   4.454   0.937   2.983  0.2444 -0.0864  0.1224
 7094TIP3    H142773   4.395   0.952   3.057 -0.2839 -1.4200 -0.0078
 7094TIP3    H242774   4.436   1.009   2.923  0.3792  0.7825  1.0841
 7095TIP3   OH242775   3.663   1.778  12.624  0.2103  0.3142  0.0143
 7095TIP3    H142776   3.698   1.775  12.713  1.8610  2.3303 -0.4769
 7095TIP3    H242777   3.584   1.725  12.627  1.0029 -0.8542  2.3110
 7096TIP3   OH242778   0.638   4.042   5.976 -0.1720  0.4476  0.4606
 7096TIP3    H142779   0.586   3.990   6.038  0.5174  1.9820  2.4316
 7096TIP3    H242780   0.621   4.001   5.891 -2.0296 -1.0834  1.4728
 7097TIP3   OH242781   5.333   4.098  16.323 -0.4914  0.1547 -0.0882
 7097TIP3    H142782   5.247   4.081  16.285  0.1963 -1.1864 -1.1267
 7097TIP3    H242783   5.344   4.193  16.315 -2.1314  0.4336  0.6848
 7098TIP3   OH242784   4.440   5.522  10.856 -0.1453 -0.5013 -0.3070
 7098TIP3    H142785   4.361   5.558  10.815 -0.6382 -1.4454 -0.2197
 7098TIP3    H242786   4.506   5.523  10.787 -1.1927 -2.8561 -1.4855
 7099TIP3   OH242787   4.707   4.078  16.424 -0.4894  0.0727  0.1619
 7099TIP3    H142788   4.671   4.032  16.500 -1.1511 -0.2992 -0.3692
 7099TIP3    H242789   4.632   4.093  16.367  0.0762 -0.0892 -0.6442
 7100TIP3   OH242790   4.520   6.810   5.037  0.2879 -0.6851  0.2603
 7100TIP3    H142791   4.464   6.755   5.092 -0.6823 -0.2073 -0.2220
 7100TIP3    H242792   4.460   6.854   4.977  1.2904 -0.9632 -1.0014
 7101TIP3   OH242793   1.215   6.158  14.456  0.0824  0.1581  0.6078
 7101TIP3    H142794   1.215   6.205  14.372 -1.6809 -2.6459 -1.1319
 7101TIP3    H242795   1.285   6.094  14.447 -2.3269 -2.5834 -0.4177
 7102TIP3   OH242796   0.805   1.094  13.287  0.1365 -0.0286 -0.2618
 7102TIP3    H142797   0.784   1.070  13.378  0.1326 -2.0294 -0.7491
 7102TIP3    H242798   0.748   1.040  13.234  0.7084  0.5411 -1.4943
 7103TIP3   OH242799   2.413   3.425  15.072 -0.0178  0.1346 -0.1836
 7103TIP3    H142800   2.387   3.335  15.095 -1.1529  0.5286  0.1462
 7103TIP3    H242801   2.331   3.468  15.048  0.6213  0.8712 -1.1076
 7104TIP3   OH242802   1.817   5.238  15.062 -0.1651 -0.6779  0.2683
 7104TIP3    H142803   1.910   5.260  15.060 -0.1075 -0.8477 -2.4131
 7104TIP3    H242804   1.776   5.303  15.006 -1.4733 -1.3795  0.3750
 7105TIP3   OH242805   0.331   0.380  16.984 -0.0693 -0.4590 -0.0205
 7105TIP3    H142806   0.252   0.434  16.976 -0.7118 -1.2188  0.9148
 7105TIP3    H242807   0.312   0.301  16.935 -0.1541 -0.9117  0.7204
 7106TIP3   OH242808   5.049   4.366  11.257  0.6374  0.2336 -0.6272
 7106TIP3    H142809   5.056   4.271  11.242 -0.9278 -0.0333  0.1366
 7106TIP3    H242810   5.015   4.400  11.174  0.9986  0.1040 -0.8327
 7107TIP3   OH242811   4.483   4.823  12.802 -0.2370 -0.7399 -0.2911
 7107TIP3    H142812   4.507   4.765  12.874 -0.9641 -0.0129  0.5551
 7107TIP3    H242813   4.520   4.908  12.826 -0.0632 -0.6026 -1.0156
 7108TIP3   OH242814   1.490   0.564   5.375  0.3094  0.1424 -0.1479
 7108TIP3    H142815   1.529   0.651   5.364 -1.1780  1.0594  1.4324
 7108TIP3    H242816   1.481   0.531   5.285 -0.4639  2.2613 -0.9102
 7109TIP3   OH242817   4.147   2.991  13.985  0.0418  0.0350 -0.3938
 7109TIP3    H142818   4.192   2.915  14.023 -0.3479  0.3903  0.8275
 7109TIP3    H242819   4.057   2.961  13.972 -0.4443  0.6232  1.2825
 7110TIP3   OH242820   2.751   3.142  13.021 -0.3074 -0.4639 -0.0405
 7110TIP3    H142821   2.811   3.157  13.094  0.8127 -1.2318 -0.7698
 7110TIP3    H242822   2.722   3.051  13.032 -1.5543 -0.0273  0.4400
 7111TIP3   OH242823   3.737   1.943   1.684 -0.0394  0.0876 -0.8591
 7111TIP3    H142824   3.741   2.039   1.683 -0.6478  0.1225 -2.1525
 7111TIP3    H242825   3.684   1.923   1.761  0.3630  0.7690 -0.3881
 7112TIP3   OH242826   4.610   5.054   1.753 -0.3731 -0.7848 -0.3515
 7112TIP3    H142827   4.678   4.986   1.753  0.6726  0.1520  1.8011
 7112TIP3    H242828   4.651   5.128   1.707 -0.2120 -0.5021  0.2301
 7113TIP3   OH242829   2.623   4.382   0.815 -0.1966 -0.0388 -1.0709
 7113TIP3    H142830   2.570   4.461   0.829 -0.7592 -0.3726 -1.3098
 7113TIP3    H242831   2.620   4.336   0.899  1.1229  0.7669 -0.5372
 7114TIP3   OH242832   3.272   1.166  11.605  0.1956  0.2315 -0.2322
 7114TIP3    H142833   3.360   1.172  11.642  0.5948 -1.1529 -0.8916
 7114TIP3    H242834   3.215   1.158  11.682  0.0313  5.3243  0.5546
 7115TIP3   OH242835   3.054   6.297  12.481 -0.1647  0.0370  0.6692
 7115TIP3    H142836   2.967   6.278  12.515  0.2225 -1.3565  0.9196
 7115TIP3    H242837   3.071   6.387  12.510 -1.6386  0.4637  0.3273
 7116TIP3   OH242838   0.750   6.583  11.604 -0.2291 -0.3506 -0.6226
 7116TIP3    H142839   0.799   6.535  11.536  0.0041 -1.8745  0.5744
 7116TIP3    H242840   0.694   6.517  11.645 -0.6880  0.6329  0.3860
 7117TIP3   OH242841   1.896   4.384  16.422 -0.3267 -0.1129 -0.6963
 7117TIP3    H142842   1.973   4.436  16.401 -0.4983  0.1071 -0.7888
 7117TIP3    H242843   1.902   4.368  16.516  0.3176 -0.8907 -0.8666
 7118TIP3   OH242844   5.328   1.122  16.469 -0.5004  0.2901 -0.1715
 7118TIP3    H142845   5.285   1.128  16.384  1.9612 -0.1051 -1.5290
 7118TIP3    H242846   5.385   1.198  16.473 -1.0475  0.6601  1.4648
 7119TIP3   OH242847   2.335   6.673  11.464  0.2146  0.0830 -0.4168
 7119TIP3    H142848   2.343   6.578  11.474 -0.8288  0.0143 -0.0956
 7119TIP3    H242849   2.242   6.690  11.480  0.6689  1.3436  1.0251
 7120TIP3   OH242850   1.385   6.629   3.702 -0.0817  0.4064  0.3819
 7120TIP3    H142851   1.324   6.631   3.775 -1.2866  0.6098 -0.5928
 7120TIP3    H242852   1.410   6.537   3.694 -2.5642 -0.2228 -1.0047
 7121TIP3   OH242853   2.575   0.013   2.936 -0.4524  0.3874 -0.2438
 7121TIP3    H142854   2.506   0.015   3.003  0.4278  0.0820  0.7038
 7121TIP3    H242855   2.628  -0.064   2.959  0.4008  0.8117 -0.7394
 7122TIP3   OH242856   2.781   2.307  15.210 -0.4198 -0.3509 -0.0140
 7122TIP3    H142857   2.869   2.280  15.182 -0.4904 -0.7170  0.1181
 7122TIP3    H242858   2.750   2.363  15.139  0.4197  0.8225  0.5098
 7123TIP3   OH242859   2.971   0.867  12.226 -0.9121  0.3031  0.7687
 7123TIP3    H142860   2.932   0.784  12.200 -0.6254  0.0822  1.0344
 7123TIP3    H242861   2.902   0.912  12.275 -2.1905  1.6020 -1.9868
 7124TIP3   OH242862   0.046   2.997   2.888 -0.1256  0.4506 -0.0810
 7124TIP3    H142863   0.040   2.903   2.904 -1.1840  0.7585  1.5083
 7124TIP3    H242864   0.129   3.023   2.927 -0.1542  0.2960  0.0828
 7125TIP3   OH242865   3.396   1.805   1.148 -0.3554  0.5873  0.0312
 7125TIP3    H142866   3.470   1.812   1.209  0.2843 -0.3776 -0.6073
 7125TIP3    H242867   3.421   1.734   1.089 -0.7217  1.8203 -1.6852
 7126TIP3   OH242868   0.112   2.386  14.369  0.1082  0.0235 -0.2947
 7126TIP3    H142869   0.132   2.348  14.455  1.7060  0.9256 -0.2422
 7126TIP3    H242870   0.157   2.330  14.307  1.4504  1.0672 -0.3037
 7127TIP3   OH242871   2.751   5.977   0.333 -0.0588  0.0085 -0.1939
 7127TIP3    H142872   2.721   5.985   0.423  1.5460  1.0358  0.2972
 7127TIP3    H242873   2.674   5.947   0.284 -1.3926  0.9481  1.2379
 7128TIP3   OH242874   6.721   5.848   3.558 -0.3268  0.3069  0.0197
 7128TIP3    H142875   6.683   5.851   3.646 -1.6013  0.8697 -0.5191
 7128TIP3    H242876   6.713   5.937   3.525  1.7006  0.4894 -0.0629
 7129TIP3   OH242877   3.581   4.890   1.423  0.0804 -0.6487 -0.4423
 7129TIP3    H142878   3.641   4.872   1.351  1.5505  0.2374  0.5186
 7129TIP3    H242879   3.632   4.870   1.502 -0.5892  0.9104  0.4249
 7130TIP3   OH242880   3.887   1.337  14.699 -0.0889 -0.5163  0.0148
 7130TIP3    H142881   3.912   1.306  14.786  1.3254 -0.2158 -0.2604
 7130TIP3    H242882   3.965   1.382  14.666 -0.5346 -0.7796 -1.4849
 7131TIP3   OH242883   0.256   3.032   3.431  0.2951  0.2526  0.1504
 7131TIP3    H142884   0.336   3.039   3.484  0.1324  0.4143  0.3761
 7131TIP3    H242885   0.189   3.077   3.483 -0.3638 -1.4318  0.8020
 7132TIP3   OH242886   6.813   3.043   2.287 -0.3894  0.0085  0.1459
 7132TIP3    H142887   6.721   3.061   2.309 -0.0074  3.9871 -0.7167
 7132TIP3    H242888   6.861   3.117   2.324  2.1313 -0.6513 -1.5681
 7133TIP3   OH242889   2.005   5.119  14.811  0.1944  0.4630  0.2408
 7133TIP3    H142890   2.045   5.033  14.801 -0.2748  0.1406  1.0925
 7133TIP3    H242891   1.948   5.128  14.735  0.2975  0.0565  0.1121
 7134TIP3   OH242892   2.876   6.545  16.149  0.3804 -0.7898  0.4162
 7134TIP3    H142893   2.814   6.564  16.220 -0.8493  0.7593 -1.0031
 7134TIP3    H242894   2.925   6.627  16.138 -2.0746  0.4058 -2.9844
 7135TIP3   OH242895   6.217   4.019   4.739  0.3924  0.5162 -0.1195
 7135TIP3    H142896   6.284   3.968   4.693  0.0270 -0.2823  0.2100
 7135TIP3    H242897   6.140   4.017   4.682 -0.1587 -0.7321  0.6309
 7136TIP3   OH242898   6.014   3.675   3.106 -0.4856 -0.1644 -0.2368
 7136TIP3    H142899   5.941   3.636   3.154  0.3492 -1.2670  0.1724
 7136TIP3    H242900   6.035   3.754   3.155  1.1016 -1.8471  1.9928
 7137TIP3   OH242901   6.555   4.539  14.485  0.1887  0.1648  0.1581
 7137TIP3    H142902   6.612   4.559  14.559 -1.9156  1.8301  1.4617
 7137TIP3    H242903   6.541   4.623  14.442 -0.6411 -0.3353 -0.5724
 7138TIP3   OH242904   6.170   6.470  10.791  0.1313  0.1785  0.1107
 7138TIP3    H142905   6.235   6.516  10.737 -0.7895  0.3128 -0.9230
 7138TIP3    H242906   6.169   6.381  10.756  0.3612 -0.0611  0.6970
 7139TIP3   OH242907   1.379   0.158  12.693 -0.0203 -0.1695 -0.1623
 7139TIP3    H142908   1.331   0.078  12.674  0.8465 -0.8422  0.4302
 7139TIP3    H242909   1.417   0.184  12.609  1.7861 -1.7915  0.0812
 7140TIP3   OH242910   6.031   0.780  13.783 -0.2639  0.6280  0.2635
 7140TIP3    H142911   6.013   0.753  13.693 -0.9192 -0.1769  0.6230
 7140TIP3    H242912   6.077   0.706  13.822 -0.3627  0.7990  0.7139
 7141TIP3   OH242913   1.703   4.938  13.411  0.8600  0.2189  0.5829
 7141TIP3    H142914   1.783   4.950  13.462  0.8739  1.2476  0.3310
 7141TIP3    H242915   1.646   5.011  13.437  1.2068  1.3237 -1.4942
 7142TIP3   OH242916   0.785   3.886  12.715  0.2197  0.6848  0.2724
 7142TIP3    H142917   0.784   3.981  12.705 -0.9203  0.6963  0.3889
 7142TIP3    H242918   0.791   3.853  12.625 -0.8464  0.8572  0.1340
 7143TIP3   OH242919   0.999   0.729   5.030 -0.4779 -0.2390  0.6281
 7143TIP3    H142920   1.074   0.734   5.090 -1.7635  1.1564  2.2059
 7143TIP3    H242921   0.945   0.804   5.053 -1.9213 -0.6804 -1.1138
 7144TIP3   OH242922   3.772   6.416  16.846 -0.3147 -0.4123  0.6106
 7144TIP3    H142923   3.754   6.382  16.934 -1.5317  0.9712  0.9152
 7144TIP3    H242924   3.695   6.394  16.795 -0.0108 -0.3690  0.1262
 7145TIP3   OH242925   1.431   5.083   1.617 -0.0412  0.2862 -0.3675
 7145TIP3    H142926   1.512   5.051   1.577 -1.2212 -1.2578 -1.6836
 7145TIP3    H242927   1.421   5.172   1.583  0.7086  0.2006 -0.8366
 7146TIP3   OH242928   0.220   3.275   2.704  0.1897  0.1493 -0.1481
 7146TIP3    H142929   0.281   3.316   2.765  1.5955 -1.0037 -0.7253
 7146TIP3    H242930   0.221   3.333   2.627  1.4209 -0.4113 -0.5807
 7147TIP3   OH242931   6.267   4.349   4.686 -0.0872 -0.0091 -0.1029
 7147TIP3    H142932   6.353   4.309   4.691  0.3238  0.8688  0.0374
 7147TIP3    H242933   6.227   4.331   4.771 -0.0477 -0.4218 -0.1694
 7148TIP3   OH242934   6.173   2.348  13.256 -0.1071  0.5025  0.2288
 7148TIP3    H142935   6.150   2.256  13.248 -2.4024  1.1119 -1.0305
 7148TIP3    H242936   6.151   2.386  13.172 -0.9229  2.5477  1.2924
 7149TIP3   OH242937   6.811   4.947  11.721  0.6789  0.5069 -0.0794
 7149TIP3    H142938   6.768   4.864  11.699 -0.2513  1.0445 -0.3547
 7149TIP3    H242939   6.869   4.925  11.794  0.3026 -0.3461 -0.0208
 7150TIP3   OH242940   1.500   0.265   4.879  0.0097 -0.3922  0.3608
 7150TIP3    H142941   1.410   0.267   4.848 -0.1460 -0.3528  0.8242
 7150TIP3    H242942   1.542   0.198   4.825  0.0802  0.5944 -0.8703
 7151TIP3   OH242943   1.200   6.780  13.398 -0.0046  0.6286  1.0356
 7151TIP3    H142944   1.231   6.742  13.316 -1.1006 -2.5684  1.9479
 7151TIP3    H242945   1.122   6.829  13.373 -0.3267 -0.3029  0.1298
 7152TIP3   OH242946   3.972   1.901  11.937 -0.7691  0.6355 -0.1908
 7152TIP3    H142947   3.921   1.952  11.874  0.4095  2.4590  0.2758
 7152TIP3    H242948   3.920   1.904  12.018 -0.2572  1.9768  0.1141
 7153TIP3   OH242949   2.485   6.341  12.487 -0.4416  0.7897 -0.1044
 7153TIP3    H142950   2.395   6.345  12.457 -0.9948  1.9793  1.5538
 7153TIP3    H242951   2.500   6.249  12.508 -0.9994  0.4563 -1.1469
 7154TIP3   OH242952   1.937   5.631   0.191 -0.3091  0.3160 -0.6676
 7154TIP3    H142953   2.002   5.592   0.132 -0.2661  2.7941 -2.4015
 7154TIP3    H242954   1.906   5.709   0.145 -2.2649  0.9256  1.4760
 7155TIP3   OH242955   6.100   1.701   2.249  0.1617  0.2686 -0.2595
 7155TIP3    H142956   6.051   1.697   2.331 -0.3753  2.1256 -0.4282
 7155TIP3    H242957   6.174   1.642   2.262 -0.1589  0.1751  1.3873
 7156TIP3   OH242958   4.449   0.625  13.901 -0.1682  0.0377 -0.2512
 7156TIP3    H142959   4.431   0.583  13.985  0.6916 -0.1018 -0.1256
 7156TIP3    H242960   4.505   0.699  13.922 -1.9091  1.4695 -0.4466
 7157TIP3   OH242961   1.192   1.671  16.064 -0.1323  0.0492  0.2207
 7157TIP3    H142962   1.272   1.633  16.029 -0.4121 -0.0015 -0.3704
 7157TIP3    H242963   1.142   1.698  15.987  0.4098  2.4026  0.6444
 7158TIP3   OH242964   4.016   4.845  11.537  0.0979  0.3960 -0.1006
 7158TIP3    H142965   4.111   4.858  11.543  0.2467 -0.7880  0.3059
 7158TIP3    H242966   3.998   4.847  11.443  0.3699  1.5695 -0.1449
 7159TIP3   OH242967   1.855   4.184  16.223 -0.1005 -0.0943 -0.0267
 7159TIP3    H142968   1.920   4.120  16.253  0.8204  1.1789  0.8088
 7159TIP3    H242969   1.862   4.256  16.286 -1.2769  0.7281 -0.8016
 7160TIP3   OH242970   2.138   1.792  15.899 -0.0691  0.5335  0.1589
 7160TIP3    H142971   2.190   1.722  15.859 -1.6639 -0.2192 -0.6680
 7160TIP3    H242972   2.104   1.754  15.980 -0.3287  0.5990  0.0820
 7161TIP3   OH242973   3.438   1.112  15.117  0.0026  0.1986 -0.1127
 7161TIP3    H142974   3.343   1.101  15.113  0.0528 -0.1455 -0.4506
 7161TIP3    H242975   3.471   1.026  15.144  0.2818  0.0309 -0.9533
 7162TIP3   OH242976   6.376   4.608   0.196 -0.2877 -0.0985  0.8672
 7162TIP3    H142977   6.386   4.620   0.102  1.2292  0.8170  1.1071
 7162TIP3    H242978   6.301   4.549   0.205 -1.3788  0.9381 -0.8365
 7163TIP3   OH242979   3.449   0.422   4.767  0.3983  0.0103 -0.7408
 7163TIP3    H142980   3.527   0.371   4.746 -0.3751 -1.4923 -0.1408
 7163TIP3    H242981   3.472   0.470   4.847  0.8350 -0.1335 -0.7794
 7164TIP3   OH242982   6.766   0.519  13.557 -0.6863 -0.1860  0.2594
 7164TIP3    H142983   6.770   0.528  13.462  0.6852  0.3428  0.3568
 7164TIP3    H242984   6.833   0.454  13.578 -0.7788 -0.0772  0.8982
 7165TIP3   OH242985   3.101   4.148  15.122  0.2756  0.4587 -0.3263
 7165TIP3    H142986   3.153   4.225  15.145  1.4277 -0.0413 -1.1546
 7165TIP3    H242987   3.034   4.181  15.063  0.7193  0.8402 -0.6239
 7166TIP3   OH242988   2.672   1.414  14.133  0.1288  0.4408 -0.0534
 7166TIP3    H142989   2.768   1.416  14.139  0.0926 -0.7537  2.1518
 7166TIP3    H242990   2.648   1.331  14.174 -1.8974  1.3354  0.6881
 7167TIP3   OH242991   5.447   0.364   1.014  0.6588  0.1301  0.2108
 7167TIP3    H142992   5.427   0.337   1.104  2.7307  1.3235  1.1147
 7167TIP3    H242993   5.435   0.459   1.015  1.4355  0.2507 -0.5479
 7168TIP3   OH242994   6.598   6.121   3.043 -0.0663 -0.4355 -0.2511
 7168TIP3    H142995   6.626   6.135   2.953 -1.5095  0.4040 -0.6140
 7168TIP3    H242996   6.654   6.179   3.095  0.5048 -0.6224 -0.6558
 7169TIP3   OH242997   1.840   6.450  16.837 -0.0461 -0.2421 -0.2201
 7169TIP3    H142998   1.860   6.543  16.853  0.3975 -0.2434 -0.7223
 7169TIP3    H242999   1.849   6.409  16.923 -1.6966  0.4196  0.3119
 7170TIP3   OH243000   1.548   5.372   1.859  0.1115 -0.2057 -0.1044
 7170TIP3    H143001   1.620   5.426   1.892  1.0320 -0.9991 -0.7483
 7170TIP3    H243002   1.474   5.395   1.914  0.8618  0.6137  0.6045
 7171TIP3   OH243003   1.058   5.240  14.448  0.7848 -0.2071  0.0640
 7171TIP3    H143004   1.122   5.176  14.480  0.8632 -0.4746 -0.6251
 7171TIP3    H243005   1.092   5.324  14.477  0.9366 -0.4256  0.5451
 7172TIP3   OH243006   3.980   3.980   1.736  0.0448 -0.4263  0.3007
 7172TIP3    H143007   3.887   3.972   1.758 -0.1115 -1.7974 -0.7254
 7172TIP3    H243008   4.024   3.912   1.788  0.3877 -0.1834  0.3334
 7173TIP3   OH243009   6.517   2.941  15.456 -0.2555  0.5997 -0.4226
 7173TIP3    H143010   6.594   2.995  15.472  0.4545  0.1638 -2.1160
 7173TIP3    H243011   6.484   2.971  15.371 -0.8985 -0.4189 -0.5523
 7174TIP3   OH243012   5.931   0.322   3.024  0.2881 -0.2326  0.6110
 7174TIP3    H143013   5.966   0.349   2.939  1.8190 -0.5921  1.1047
 7174TIP3    H243014   5.981   0.372   3.088  1.2624 -2.1430  1.4155
 7175TIP3   OH243015   1.352   2.690  14.920  0.6339 -0.1208 -0.4244
 7175TIP3    H143016   1.431   2.657  14.962  0.5060  1.2178  0.9543
 7175TIP3    H243017   1.346   2.781  14.948 -2.5848 -0.7533  1.4245
 7176TIP3   OH243018   0.936   4.964   3.475  0.3699  0.0599  0.4871
 7176TIP3    H143019   0.922   4.968   3.570  1.2930 -1.2407  0.7015
 7176TIP3    H243020   0.847   4.959   3.439  0.0143 -1.9666  1.4647
 7177TIP3   OH243021   1.408   3.137  11.523  0.3266  0.2725 -0.6846
 7177TIP3    H143022   1.346   3.193  11.569  1.0890  0.1613  0.5281
 7177TIP3    H243023   1.374   3.131  11.433 -1.2926  0.3657 -0.1068
 7178TIP3   OH243024   6.162   1.122  11.814  0.0673 -0.3047  0.3439
 7178TIP3    H143025   6.120   1.057  11.871 -1.3279 -1.3580 -1.7258
 7178TIP3    H243026   6.249   1.087  11.797 -0.0624 -0.7640  0.6068
 7179TIP3   OH243027   0.576   5.576   6.537 -0.1560  0.6035 -0.6033
 7179TIP3    H143028   0.618   5.522   6.604 -1.3998 -0.7693 -0.8845
 7179TIP3    H243029   0.634   5.651   6.527  0.6587  0.2586  1.1681
 7180TIP3   OH243030   0.619   6.778  16.300 -0.4980 -0.0427 -0.4312
 7180TIP3    H143031   0.583   6.838  16.234  1.3941  0.2280 -1.2851
 7180TIP3    H243032   0.597   6.818  16.384 -0.6028  1.0566 -0.9654
 7181TIP3   OH243033   6.126   4.941  15.479 -0.0161 -0.0193  0.2790
 7181TIP3    H143034   6.103   4.856  15.516 -0.0435 -0.8229 -1.4804
 7181TIP3    H243035   6.051   4.964  15.424  0.4439  0.6429 -0.0879
 7182TIP3   OH243036   2.044   6.258   3.505  0.0815 -0.6923  0.1818
 7182TIP3    H143037   2.119   6.201   3.523 -0.5146 -1.2096  1.0920
 7182TIP3    H243038   1.970   6.212   3.543 -0.7540 -0.3241 -0.9549
 7183TIP3   OH243039   3.732   0.038   6.118  0.6270 -0.0670  0.1381
 7183TIP3    H143040   3.638   0.053   6.113  0.7642  0.6863 -0.3645
 7183TIP3    H243041   3.741  -0.054   6.141 -0.2362  0.0047  0.7931
 7184TIP3   OH243042   0.414   0.785  16.493 -0.2760 -0.2283 -0.5532
 7184TIP3    H143043   0.361   0.802  16.415 -1.7828  0.4849  0.5787
 7184TIP3    H243044   0.384   0.850  16.557  1.7813  0.0190  0.2445
 7185TIP3   OH243045   5.962   5.656   4.999  0.6351 -0.2012  0.0802
 7185TIP3    H143046   5.950   5.576   4.948 -3.9525 -0.7397  1.4780
 7185TIP3    H243047   5.939   5.727   4.939  0.0672 -0.3829  0.0780
 7186TIP3   OH243048   1.104   5.693   0.002 -0.0654  0.0055 -0.3415
 7186TIP3    H143049   1.070   5.717  -0.084  0.6868 -1.7540 -1.1778
 7186TIP3    H243050   1.199   5.689  -0.010 -0.0482 -1.7241  0.1478
 7187TIP3   OH243051   5.241   6.654  15.778 -0.0634 -0.4593  0.1455
 7187TIP3    H143052   5.272   6.713  15.847 -0.2355  0.5423 -0.5998
 7187TIP3    H243053   5.221   6.713  15.704  2.4457 -1.6894 -1.6354
 7188TIP3   OH243054   3.697   0.246   1.057  0.5038  0.4063 -0.5016
 7188TIP3    H143055   3.713   0.319   0.997 -1.2230  1.3078  0.0556
 7188TIP3    H243056   3.619   0.273   1.106 -0.0704 -1.7514 -0.1505
 7189TIP3   OH243057   3.208   1.268   5.808  0.1593  0.2855  0.2857
 7189TIP3    H143058   3.243   1.298   5.892 -0.7862  1.4424  0.3096
 7189TIP3    H243059   3.285   1.252   5.753  0.7887 -0.5362  1.3741
 7190TIP3   OH243060   6.441   0.142   0.489 -0.1437 -0.2195  0.1715
 7190TIP3    H143061   6.487   0.059   0.504  1.4021  0.5722 -0.0760
 7190TIP3    H243062   6.425   0.144   0.395  0.3778  0.0442  0.0870
 7191TIP3   OH243063   2.305   3.638   1.246 -0.0283 -0.4071 -0.0519
 7191TIP3    H143064   2.278   3.711   1.189  1.1568  0.6457  0.6685
 7191TIP3    H243065   2.262   3.656   1.329  1.6411  0.5074  0.6718
 7192TIP3   OH243066   5.474   3.988  15.241  0.1824 -0.9261 -0.5041
 7192TIP3    H143067   5.424   3.985  15.160 -0.0927  1.4670 -0.4974
 7192TIP3    H243068   5.421   3.939  15.304 -0.2358 -1.6984 -1.4446
 7193TIP3   OH243069   3.906   2.314  14.407  0.1456  0.2452  0.3749
 7193TIP3    H143070   3.824   2.298  14.455  0.2676 -1.3688  0.0788
 7193TIP3    H243071   3.877   2.355  14.325 -0.1956  1.3965  1.0388
 7194TIP3   OH243072   0.093   3.001   2.053  0.0729  0.2900 -0.1689
 7194TIP3    H143073   0.072   2.994   2.146 -0.2126  1.8343 -0.0887
 7194TIP3    H243074   0.074   2.914   2.017  2.4503 -1.0865  1.6145
 7195TIP3   OH243075   0.504   2.118  14.321 -0.5296  0.2215 -0.0730
 7195TIP3    H143076   0.424   2.165  14.298 -1.1665 -0.4945  0.5664
 7195TIP3    H243077   0.490   2.091  14.412  0.1772 -0.4490 -0.1509
 7196TIP3   OH243078   5.655   0.822  15.433  0.2399 -0.2342  0.1190
 7196TIP3    H143079   5.664   0.862  15.519 -0.3676 -2.5093  1.3228
 7196TIP3    H243080   5.739   0.838  15.390  0.0654  2.1656  0.5298
 7197TIP3   OH243081   5.639   5.579  16.178  0.2236  0.3276 -0.4284
 7197TIP3    H143082   5.598   5.551  16.096 -2.3628  1.2333  0.4460
 7197TIP3    H243083   5.610   5.514  16.242  0.1785  0.9668  0.2100
 7198TIP3   OH243084   6.102   4.565  11.278  0.0664 -0.0326  0.4872
 7198TIP3    H143085   6.148   4.481  11.280  0.4165  0.1391 -0.0167
 7198TIP3    H243086   6.166   4.626  11.241  0.0399  0.5982  1.4565
 7199TIP3   OH243087   6.785   6.275   0.367  0.3942 -0.3820 -0.5106
 7199TIP3    H143088   6.880   6.289   0.366  0.1909  1.2294 -0.0763
 7199TIP3    H243089   6.772   6.201   0.426  1.2853  0.3553  0.6544
 7200TIP3   OH243090   5.777   0.637   2.850  0.3339 -0.4888  0.3183
 7200TIP3    H143091   5.779   0.726   2.885  0.3905  0.0159 -0.9244
 7200TIP3    H243092   5.686   0.609   2.862  0.4870 -0.5792  1.4154
 7201TIP3   OH243093   2.659   5.685   0.686  0.5377 -0.1174 -0.3860
 7201TIP3    H143094   2.607   5.756   0.648 -0.4313 -1.3109 -1.3558
 7201TIP3    H243095   2.645   5.611   0.627  0.8179 -1.3773  1.0857
 7202TIP3   OH243096   3.452   4.662  12.103  0.7010  0.0514  0.2318
 7202TIP3    H143097   3.430   4.569  12.105 -1.2323  0.4463 -0.6478
 7202TIP3    H243098   3.495   4.674  12.018  0.1622  0.1008 -0.0405
 7203TIP3   OH243099   4.960   4.327  14.772  0.1736 -0.1042 -0.7276
 7203TIP3    H143100   4.907   4.373  14.706  1.4610  1.2691 -0.8744
 7203TIP3    H243101   4.899   4.269  14.816 -1.9535  2.6765  0.3307
 7204TIP3   OH243102   3.338   0.128  12.238  0.2351 -0.1601  0.3882
 7204TIP3    H143103   3.348   0.049  12.184  0.8022  0.1031  0.0984
 7204TIP3    H243104   3.427   0.151  12.263  0.1727  0.9322 -0.3292
 7205TIP3   OH243105   6.655   1.506   2.026 -0.0840  0.5183 -0.0900
 7205TIP3    H143106   6.615   1.562   2.093 -0.6165 -0.0572  0.0803
 7205TIP3    H243107   6.747   1.532   2.025 -0.0297  0.3944  0.9948
 7206TIP3   OH243108   2.566   1.736  16.573  0.0281 -0.5795  0.2091
 7206TIP3    H143109   2.609   1.783  16.502  0.3137 -2.4944 -0.9528
 7206TIP3    H243110   2.525   1.661  16.531 -0.7056 -1.1989  1.9333
 7207TIP3   OH243111   2.214   2.273   4.691 -0.0770  0.0496 -0.3124
 7207TIP3    H143112   2.185   2.260   4.782  0.3025 -0.0315 -0.2012
 7207TIP3    H243113   2.189   2.363   4.671 -1.8444 -0.4898 -0.7589
 7208TIP3   OH243114   5.832   0.023   4.793 -0.0366  0.1429 -0.2760
 7208TIP3    H143115   5.796  -0.061   4.820  1.3261 -1.0013 -1.7801
 7208TIP3    H243116   5.824   0.023   4.698 -1.3358  2.4041 -0.2315
 7209TIP3   OH243117   4.991   0.286   4.085  0.5833  0.0270  0.3127
 7209TIP3    H143118   4.899   0.260   4.094  0.9980 -1.3788  0.7678
 7209TIP3    H243119   5.007   0.280   3.990 -0.1241  1.5692  0.0663
 7210TIP3   OH243120   6.177   4.580  16.364 -0.1089 -0.1955 -0.0355
 7210TIP3    H143121   6.143   4.647  16.423 -0.9280  0.7019 -1.4761
 7210TIP3    H243122   6.257   4.618  16.328 -0.0839 -0.3706 -0.1694
 7211TIP3   OH243123   0.069   1.296  15.061 -0.1207  0.0023  0.3044
 7211TIP3    H143124   0.077   1.255  15.147  1.5480 -2.2251 -0.7700
 7211TIP3    H243125  -0.022   1.282  15.036  0.2366 -2.8318  0.2166
 7212TIP3   OH243126   0.352   3.500   5.103 -0.4129  0.0473 -0.4002
 7212TIP3    H143127   0.352   3.589   5.138 -0.9251 -0.5886  1.3263
 7212TIP3    H243128   0.280   3.456   5.148  0.8127 -1.6859 -0.0024
 7213TIP3   OH243129   3.804   5.563  16.046 -0.0447  0.6252  0.1490
 7213TIP3    H143130   3.760   5.644  16.072 -0.9594  0.2434 -0.2085
 7213TIP3    H243131   3.881   5.559  16.103 -0.5859  1.1776  0.9424
 7214TIP3   OH243132   0.680   3.552   4.585 -0.1610  0.3327  0.0107
 7214TIP3    H143133   0.734   3.476   4.605  0.3454  0.2898 -1.4208
 7214TIP3    H243134   0.593   3.516   4.566 -0.0890  0.1732 -0.0149
 7215TIP3   OH243135   6.213   2.020  14.517  0.0743  0.5292 -0.0624
 7215TIP3    H143136   6.125   2.057  14.526 -0.3066 -0.3946  0.0353
 7215TIP3    H243137   6.267   2.094  14.487 -0.7713  1.0530 -0.3169
 7216TIP3   OH243138   0.793   5.865  16.173 -0.5820 -0.0282 -0.4377
 7216TIP3    H143139   0.884   5.849  16.149 -0.4661  0.3892 -0.2746
 7216TIP3    H243140   0.797   5.933  16.240 -1.0623  0.5236 -0.9602
 7217TIP3   OH243141   4.886   5.598  12.767  0.3889  0.6501 -0.3352
 7217TIP3    H143142   4.962   5.541  12.778  0.9247  1.3313 -0.4776
 7217TIP3    H243143   4.831   5.552  12.703 -0.1573 -0.6834  1.0358
 7218TIP3   OH243144   6.492   4.950   3.638  0.3906 -0.1117  0.2722
 7218TIP3    H143145   6.424   5.005   3.676  0.2526  0.6302 -0.9868
 7218TIP3    H243146   6.533   5.005   3.572 -1.4190 -2.1811 -2.8766
 7219TIP3   OH243147   1.133   4.803   1.370  0.1249 -0.2180 -0.5002
 7219TIP3    H143148   1.114   4.897   1.358  0.9136  0.0763  0.4332
 7219TIP3    H243149   1.082   4.760   1.302  2.4353  1.1212 -3.3015
 7220TIP3   OH243150   4.062   6.812  13.599  0.8621 -0.4813 -0.0048
 7220TIP3    H143151   3.993   6.875  13.621  0.8461  0.6387 -2.8183
 7220TIP3    H243152   4.116   6.806  13.678 -1.2723  0.1548  1.6022
 7221TIP3   OH243153   6.495   6.619  14.127 -0.3830  0.1417  0.0619
 7221TIP3    H143154   6.423   6.559  14.146  0.0773  0.1992  2.1900
 7221TIP3    H243155   6.478   6.696  14.181  0.4621  0.8146 -0.5997
 7222TIP3   OH243156   4.042   6.412   1.944  0.4802 -0.2785 -0.5737
 7222TIP3    H143157   3.956   6.451   1.927 -0.2597 -0.4406  2.2625
 7222TIP3    H243158   4.099   6.486   1.964  0.3902 -0.2932 -0.2460
 7223TIP3   OH243159   4.194   2.398   4.907 -0.2536 -0.0789  0.4572
 7223TIP3    H143160   4.206   2.445   4.990  4.0271  0.4499 -0.2232
 7223TIP3    H243161   4.176   2.466   4.843  0.8409  0.1024  0.3136
 7224TIP3   OH243162   1.537   0.049  15.905 -0.3482  0.6597  0.0068
 7224TIP3    H143163   1.488  -0.013  15.958  0.1709  0.8072  0.6690
 7224TIP3    H243164   1.487   0.056  15.824 -1.2274  0.5430  0.5314
 7225TIP3   OH243165   1.844   2.859  12.487 -0.3313 -0.5003 -0.2491
 7225TIP3    H143166   1.782   2.787  12.495 -2.3700  1.1079 -0.5941
 7225TIP3    H243167   1.840   2.883  12.394 -0.4344  0.6519  0.0417
 7226TIP3   OH243168   0.237   5.695  13.261  0.2643  0.3160  0.4045
 7226TIP3    H143169   0.190   5.634  13.204 -0.2547  0.2316  0.9101
 7226TIP3    H243170   0.205   5.781  13.234 -2.1058  0.1626  2.3534
 7227TIP3   OH243171   3.467   6.563   1.029 -0.0967 -0.4402 -0.4116
 7227TIP3    H143172   3.381   6.522   1.033 -0.1933 -0.3385 -1.2187
 7227TIP3    H243173   3.529   6.490   1.042 -0.2952 -0.5935 -0.3186
 7228TIP3   OH243174   6.117   1.991   3.372 -0.0711 -0.3483 -0.2745
 7228TIP3    H143175   6.153   1.911   3.334  0.2564  0.9717 -3.0198
 7228TIP3    H243176   6.106   2.050   3.297 -0.4251  2.1407  1.6038
 7229TIP3   OH243177   6.806   3.702  14.345  0.2805  0.1055  0.0513
 7229TIP3    H143178   6.897   3.730  14.353  0.4961 -0.7456  0.6469
 7229TIP3    H243179   6.811   3.613  14.312 -0.4004  0.6446 -1.5972
 7230TIP3   OH243180   4.476   2.815   2.844  0.2819 -0.3086  0.1455
 7230TIP3    H143181   4.538   2.818   2.771  0.0588 -2.6072 -0.2107
 7230TIP3    H243182   4.409   2.753   2.816 -1.3504  0.9193  1.1842
 7231TIP3   OH243183   0.503   6.567   3.607  0.2189  0.6508  0.7736
 7231TIP3    H143184   0.523   6.473   3.608  0.6981  0.7202  2.9118
 7231TIP3    H243185   0.408   6.572   3.605  0.1994  0.1377  0.2075
 7232TIP3   OH243186   5.346   5.193   5.791  0.5955 -0.0528  0.2547
 7232TIP3    H143187   5.436   5.217   5.814 -0.1759  1.8542  1.5565
 7232TIP3    H243188   5.338   5.102   5.819  2.7591 -1.0248 -2.0172
 7233TIP3   OH243189   2.698   2.656  14.895 -0.1736  0.1075 -0.2660
 7233TIP3    H143190   2.702   2.739  14.942 -0.8477 -0.2665  0.4820
 7233TIP3    H243191   2.630   2.667  14.830 -1.9169 -0.5737  1.3505
 7234TIP3   OH243192   0.403   2.261   5.067 -0.1599  0.3217  0.6429
 7234TIP3    H143193   0.447   2.285   4.986 -0.4087  1.4782  0.8243
 7234TIP3    H243194   0.327   2.210   5.040 -0.2170  0.6629  0.1385
 7235TIP3   OH243195   4.529   5.780  16.505 -0.0091 -0.3737  0.4614
 7235TIP3    H143196   4.594   5.811  16.441 -1.1084 -0.4804 -0.7567
 7235TIP3    H243197   4.467   5.730  16.452 -1.2081 -0.0850  1.5662
 7236TIP3   OH243198   3.458   5.212  16.428  0.0927 -0.5395  0.1311
 7236TIP3    H143199   3.502   5.262  16.496 -0.6248  1.7906 -1.0342
 7236TIP3    H243200   3.529   5.179  16.373  0.5315  0.9964 -0.2632
 7237TIP3   OH243201   5.453   5.524  15.138  0.6051 -0.0920 -0.5088
 7237TIP3    H143202   5.428   5.607  15.177  1.3662  1.1673 -2.5652
 7237TIP3    H243203   5.436   5.534  15.045  0.9714 -2.1498 -0.8552
 7238TIP3   OH243204   5.592   0.866   1.196 -0.2240 -0.5535 -0.8455
 7238TIP3    H143205   5.624   0.778   1.218  0.2109 -0.0989  0.3879
 7238TIP3    H243206   5.524   0.884   1.261 -0.0240  0.1830 -0.8352
 7239TIP3   OH243207   1.662   5.183   0.048 -0.5487  0.0200  0.3897
 7239TIP3    H143208   1.700   5.188   0.136  3.0489  0.4081 -1.0016
 7239TIP3    H243209   1.690   5.097   0.015 -3.4325 -0.9297  0.1915
 7240TIP3   OH243210   4.769   1.705  11.462 -0.1975  0.1884  0.0155
 7240TIP3    H143211   4.768   1.798  11.487 -0.1662  0.2825 -0.3293
 7240TIP3    H243212   4.757   1.706  11.367  1.8291 -0.0586 -0.2891
 7241TIP3   OH243213   1.012   3.804  16.698 -0.3550 -0.5596 -0.5316
 7241TIP3    H143214   1.090   3.860  16.701 -1.7323  1.4117  1.3019
 7241TIP3    H243215   0.939   3.865  16.686 -1.7384 -2.2696 -1.2317
 7242TIP3   OH243216   0.261   0.390   4.420 -0.0083 -0.4861  0.7399
 7242TIP3    H143217   0.326   0.410   4.353 -0.4574  0.2311  0.5173
 7242TIP3    H243218   0.220   0.309   4.389 -0.6725  0.1956 -0.1939
 7243TIP3   OH243219   2.830   1.554   4.447  0.1641  0.5237 -0.3369
 7243TIP3    H143220   2.852   1.618   4.378 -1.7667 -0.2230 -1.7454
 7243TIP3    H243221   2.734   1.548   4.443  0.0108  0.3042  2.3484
 7244TIP3   OH243222   2.606   3.513  13.583  0.1423  0.5981  0.1883
 7244TIP3    H143223   2.563   3.590  13.547 -0.5105  1.0951  1.9551
 7244TIP3    H243224   2.535   3.461  13.621  0.7730 -0.0593  0.4897
 7245TIP3   OH243225   2.315   1.075  15.527  0.1119 -0.8618 -0.0983
 7245TIP3    H143226   2.328   1.066  15.432  1.8214 -1.2184  0.1448
 7245TIP3    H243227   2.390   1.125  15.557 -0.6768 -0.3140  1.0201
 7246TIP3   OH243228   5.547   0.398   3.986 -0.0700  0.0435 -0.3137
 7246TIP3    H143229   5.452   0.388   3.984  0.0319 -1.0934 -0.1918
 7246TIP3    H243230   5.573   0.390   3.894 -0.2304  2.3067 -0.6297
 7247TIP3   OH243231   3.687   0.906  16.529  0.4453  0.5889 -0.3607
 7247TIP3    H143232   3.642   0.825  16.554 -1.0861  1.0261 -1.5317
 7247TIP3    H243233   3.776   0.879  16.505 -0.0907 -0.7781 -0.8714
 7248TIP3   OH243234   3.485   4.836  10.773  0.1508  0.0878 -0.7037
 7248TIP3    H143235   3.533   4.819  10.854 -0.8644 -1.6175 -0.4177
 7248TIP3    H243236   3.517   4.921  10.743  1.6239  0.0588  0.6944
 7249TIP3   OH243237   1.074   2.360  14.054  0.1462 -0.2542  0.0048
 7249TIP3    H143238   1.081   2.281  14.000 -2.3712 -1.1454  0.8512
 7249TIP3    H243239   0.998   2.345  14.109 -0.6056  2.8971  0.0056
 7250TIP3   OH243240   1.302   4.514   2.989  0.5954  0.3386  0.7698
 7250TIP3    H143241   1.326   4.552   2.904 -0.5017 -0.1590  0.2228
 7250TIP3    H243242   1.213   4.544   3.004  0.0684 -1.1954  0.7985
 7251TIP3   OH243243   5.464   3.606  16.173  0.4495 -0.0645 -0.0577
 7251TIP3    H143244   5.542   3.605  16.118  0.1109  1.0381 -0.5802
 7251TIP3    H243245   5.397   3.563  16.120  0.3904  0.0854 -0.1069
 7252TIP3   OH243246   2.729   4.459  13.268 -0.2339  0.5156  0.0164
 7252TIP3    H143247   2.751   4.366  13.270 -1.4314  0.0947 -2.2427
 7252TIP3    H243248   2.644   4.462  13.224 -0.3786  2.6774  0.3258
 7253TIP3   OH243249   6.731   6.281   0.102  0.2288 -0.5099  0.3474
 7253TIP3    H143250   6.656   6.338   0.085  0.9858  0.6932  0.9049
 7253TIP3    H243251   6.764   6.309   0.187 -0.3302 -2.8820  1.4328
 7254TIP3   OH243252   6.353   5.311   2.977  0.5802 -0.3193  0.3181
 7254TIP3    H143253   6.417   5.276   2.915  1.0708 -0.7666  1.0655
 7254TIP3    H243254   6.289   5.356   2.922  1.7773  0.5519 -0.4181
 7255TIP3   OH243255   3.313   6.689  14.305 -0.1273  0.0212  0.0732
 7255TIP3    H143256   3.311   6.785  14.299  1.9504  0.4386  3.4940
 7255TIP3    H243257   3.406   6.667  14.304 -0.5276 -1.8808  0.5103
 7256TIP3   OH243258   2.649   4.862  10.689  0.0471 -0.2285  0.3161
 7256TIP3    H143259   2.735   4.830  10.663  1.2990  2.2007  1.2062
 7256TIP3    H243260   2.634   4.822  10.775  0.4930 -0.2884  0.3644
 7257TIP3   OH243261   6.768   0.186  13.290 -0.2847  0.8011 -0.1201
 7257TIP3    H143262   6.691   0.149  13.334  0.9163 -1.5370  0.1713
 7257TIP3    H243263   6.767   0.147  13.202  2.3679 -2.2387  0.9867
 7258TIP3   OH243264   5.458   6.808  11.338  0.0043 -0.5903  0.7736
 7258TIP3    H143265   5.514   6.883  11.317  0.1508 -0.8365  0.2634
 7258TIP3    H243266   5.409   6.791  11.258 -0.5257 -0.6170  1.1017
 7259TIP3   OH243267   0.699   2.291   2.172 -0.0805  0.0139 -0.0445
 7259TIP3    H143268   0.677   2.245   2.091  0.5723 -1.6141  0.6586
 7259TIP3    H243269   0.639   2.255   2.238  1.3684 -0.9259  0.8248
 7260TIP3   OH243270   5.418   1.676   5.838  0.0663 -0.1084  0.3077
 7260TIP3    H143271   5.470   1.621   5.897 -2.1917 -0.7963  1.7972
 7260TIP3    H243272   5.452   1.764   5.851  3.0265 -0.8986 -1.2983
 7261TIP3   OH243273   5.938   0.613   1.206  0.0726  0.1209  0.4413
 7261TIP3    H143274   5.846   0.635   1.224  0.0802  0.2117  0.3655
 7261TIP3    H243275   5.935   0.554   1.131  0.0447 -0.2244  0.7107
 7262TIP3   OH243276   3.844   3.168  17.135  0.8467  0.1640 -0.2500
 7262TIP3    H143277   3.935   3.159  17.162  0.7111  1.0225  0.5556
 7262TIP3    H243278   3.837   3.115  17.055  2.1413  0.3960 -0.5440
 7263TIP3   OH243279   2.303   1.480   6.442  0.1526 -0.1526 -0.2975
 7263TIP3    H143280   2.252   1.406   6.410  0.7484 -0.0253 -1.6150
 7263TIP3    H243281   2.288   1.549   6.378  0.1305  0.6711  0.5622
 7264TIP3   OH243282   2.774   6.078   5.773  0.2648  0.0612  0.2629
 7264TIP3    H143283   2.764   6.061   5.866  2.0711 -1.9940  0.1875
 7264TIP3    H243284   2.719   6.154   5.755 -0.7909 -0.0266  2.8093
 7265TIP3   OH243285   1.085   6.821   0.225 -0.2989 -0.3384  0.0871
 7265TIP3    H143286   1.001   6.863   0.242  0.6172  1.4908  0.3462
 7265TIP3    H243287   1.073   6.773   0.144 -1.1674  1.2029 -0.7333
 7266TIP3   OH243288   0.457   4.032  11.514  0.8616 -0.0897  0.2810
 7266TIP3    H143289   0.424   3.943  11.502 -2.6184  1.1596 -0.4499
 7266TIP3    H243290   0.510   4.049  11.437 -1.7321 -0.2689 -1.6600
 7267TIP3   OH243291   5.516   6.595  17.017  0.0660  0.6753 -0.2404
 7267TIP3    H143292   5.470   6.618  17.098  1.4003 -1.3027  1.1714
 7267TIP3    H243293   5.586   6.537  17.045 -0.3039 -1.2812 -3.0093
 7268TIP3   OH243294   0.779   3.807  15.401  0.2350 -0.6401  0.0805
 7268TIP3    H143295   0.856   3.805  15.345  1.0974  1.7141  1.0530
 7268TIP3    H243296   0.765   3.716  15.426  2.3954 -1.2033 -0.5374
 7269TIP3   OH243297   4.589   4.936   0.715  0.0201  0.4514  0.0006
 7269TIP3    H143298   4.648   4.969   0.647  1.2710 -0.4840  0.5980
 7269TIP3    H243299   4.532   4.875   0.669  1.1575 -0.5191 -0.1539
 7270TIP3   OH243300   4.652   5.554  15.918 -0.0627  0.8827  0.2666
 7270TIP3    H143301   4.653   5.571  16.012 -1.3424 -2.5826  1.0769
 7270TIP3    H243302   4.562   5.530  15.899  0.0476  2.0029 -2.0237
 7271TIP3   OH243303   4.468   4.528  11.975 -0.8721  0.6349 -0.3086
 7271TIP3    H143304   4.409   4.550  12.047 -0.2218  0.8413  0.1706
 7271TIP3    H243305   4.468   4.432  11.973  0.8040  0.5300  1.4439
 7272TIP3   OH243306   6.844   2.108  11.411 -0.0253 -0.4516  0.0726
 7272TIP3    H143307   6.778   2.039  11.407  3.4372 -4.0752 -0.9219
 7272TIP3    H243308   6.857   2.134  11.319 -0.2489  0.4980  0.2962
 7273TIP3   OH243309   3.144   1.700   1.225  0.1651 -0.4848 -0.6434
 7273TIP3    H143310   3.229   1.739   1.206  0.0797 -0.4998 -1.0736
 7273TIP3    H243311   3.080   1.762   1.190  0.0141 -0.7052 -0.7679
 7274TIP3   OH243312   6.043   5.229  14.844 -0.5554 -0.0786 -0.0608
 7274TIP3    H143313   6.044   5.276  14.927 -0.4672 -3.5045  2.0789
 7274TIP3    H243314   5.955   5.191  14.839 -0.0971 -1.1150 -0.7800
 7275TIP3   OH243315   5.087   6.094   2.827  0.1055  0.1396  0.0944
 7275TIP3    H143316   5.054   6.172   2.869 -1.3291 -0.1187 -0.5067
 7275TIP3    H243317   5.069   6.107   2.733  0.1323 -0.7633 -0.0484
 7276TIP3   OH243318   5.816   2.299   5.890 -0.3069 -0.6022 -0.3459
 7276TIP3    H143319   5.783   2.289   5.979  0.4515 -0.9175 -0.0981
 7276TIP3    H243320   5.879   2.371   5.896  0.6960 -1.4613 -0.3585
 7277TIP3   OH243321   4.470   2.389   2.592 -0.4085 -0.0014 -0.1888
 7277TIP3    H143322   4.413   2.338   2.650 -0.8657  2.0181  1.2520
 7277TIP3    H243323   4.548   2.335   2.581 -1.8642 -2.0903 -0.8171
 7278TIP3   OH243324   1.674   2.764   3.697  0.1370 -0.5275  0.1770
 7278TIP3    H143325   1.660   2.722   3.782  3.6432  0.3271  1.3478
 7278TIP3    H243326   1.672   2.692   3.634 -0.4104 -1.4843  1.2420
 7279TIP3   OH243327   0.004   2.449  15.627 -0.3173 -0.0627 -0.8388
 7279TIP3    H143328  -0.024   2.413  15.711  0.8016  0.4590 -0.2299
 7279TIP3    H243329  -0.076   2.448  15.573 -1.2905  0.5232  0.5369
 7280TIP3   OH243330   5.542   6.816  14.428 -0.1212  0.0349 -0.0022
 7280TIP3    H143331   5.474   6.869  14.470  0.5945  1.8007 -0.9880
 7280TIP3    H243332   5.624   6.853  14.458  0.4005 -0.0217 -1.2722
 7281TIP3   OH243333   5.428   4.372  12.480  0.0729 -0.0143 -0.0545
 7281TIP3    H143334   5.354   4.323  12.445  1.3617  0.2724 -3.5249
 7281TIP3    H243335   5.499   4.308  12.485  0.2048  0.1977  1.2065
 7282TIP3   OH243336   1.757   4.426  13.083 -0.3768  0.7679  0.3378
 7282TIP3    H143337   1.811   4.471  13.148  0.5006 -0.1045  0.2460
 7282TIP3    H243338   1.819   4.374  13.032 -1.0546  1.3072 -1.1183
 7283TIP3   OH243339   5.704   6.324  11.338 -0.0068 -0.0879  0.1479
 7283TIP3    H143340   5.709   6.270  11.259  0.6410 -0.4647  0.4343
 7283TIP3    H243341   5.639   6.391  11.317  0.5674  0.1694 -0.9201
 7284TIP3   OH243342   0.466   0.243   2.438 -0.0186  0.6970 -0.4127
 7284TIP3    H143343   0.426   0.175   2.384 -0.1718  0.9729 -0.6511
 7284TIP3    H243344   0.470   0.320   2.381  1.8569  0.3862 -0.7533
 7285TIP3   OH243345   2.400   4.439  15.880 -0.1393 -0.6989  0.1403
 7285TIP3    H143346   2.407   4.386  15.801 -1.2829  0.3827 -0.7268
 7285TIP3    H243347   2.469   4.505  15.871 -0.4175 -0.4362 -0.0652
 7286TIP3   OH243348   1.073   5.420   4.870 -0.0355 -0.0126  0.3122
 7286TIP3    H143349   1.082   5.336   4.915  0.1149  0.3388  0.9516
 7286TIP3    H243350   0.983   5.447   4.887  0.1854  0.3811  0.8666
 7287TIP3   OH243351   6.346   0.789  15.298 -0.7153  0.2477 -0.1722
 7287TIP3    H143352   6.365   0.719  15.235 -0.8034 -2.0749  2.1778
 7287TIP3    H243353   6.255   0.772  15.324 -0.0792 -0.1302  1.9770
 7288TIP3   OH243354   1.781   3.163   5.023  0.2472 -0.1964  0.4305
 7288TIP3    H143355   1.805   3.237   5.079 -0.1635  1.2187 -1.1816
 7288TIP3    H243356   1.696   3.134   5.057  0.3064  0.2083  0.9362
 7289TIP3   OH243357   4.019   1.427  15.659 -0.3227  0.3358 -0.3990
 7289TIP3    H143358   3.935   1.465  15.632  0.0089  0.9208 -0.6273
 7289TIP3    H243359   4.004   1.332  15.656 -1.2863  0.4317  0.5612
 7290TIP3   OH243360   5.401   2.282   3.180 -0.5006  0.4408  0.2942
 7290TIP3    H143361   5.425   2.214   3.117 -1.9108 -1.1065  1.3460
 7290TIP3    H243362   5.315   2.311   3.152 -0.7086  0.4510  0.9351
 7291TIP3   OH243363   1.409   1.127   0.876  0.1629 -0.0300 -0.4881
 7291TIP3    H143364   1.383   1.219   0.889  0.1974  0.0433 -0.9321
 7291TIP3    H243365   1.354   1.096   0.805  0.4281 -0.2387 -0.6052
 7292TIP3   OH243366   2.371   1.319   0.777 -0.6757 -0.0679 -0.0086
 7292TIP3    H143367   2.386   1.285   0.865 -0.7180 -1.3406 -0.4819
 7292TIP3    H243368   2.458   1.348   0.747 -0.5763 -0.0852  0.2607
 7293TIP3   OH243369   0.153   4.098   2.072 -0.3419 -0.3762 -0.5983
 7293TIP3    H143370   0.176   4.129   1.984 -0.0650 -1.1926 -0.8251
 7293TIP3    H243371   0.075   4.044   2.059  0.9708 -2.3253 -0.6991
 7294TIP3   OH243372   1.163   1.812  15.524  0.3749  0.5417 -0.1571
 7294TIP3    H143373   1.209   1.810  15.440 -0.3799  0.2923 -0.5765
 7294TIP3    H243374   1.071   1.825  15.501  0.0816 -0.0975  0.5972
 7295TIP3   OH243375   5.202   3.931  12.335  0.6012 -0.5749  0.5798
 7295TIP3    H143376   5.256   4.007  12.311  1.0710 -0.9432  0.4412
 7295TIP3    H243377   5.113   3.964  12.337  0.9650  0.3756  2.1557
 7296TIP3   OH243378   1.352   1.737   0.177 -0.3671 -0.6162 -0.3823
 7296TIP3    H143379   1.366   1.831   0.173  1.5511 -0.8507 -0.0535
 7296TIP3    H243380   1.397   1.702   0.100 -1.7771 -1.2237 -0.9746
 7297TIP3   OH243381   5.989   5.222   0.794  0.1055 -0.1345 -0.4105
 7297TIP3    H143382   5.967   5.129   0.802 -1.8891  0.0769 -2.2370
 7297TIP3    H243383   6.054   5.238   0.862  0.0709 -2.7238  0.3370
 7298TIP3   OH243384   2.700   4.261  11.192  0.5168  0.1007 -0.4028
 7298TIP3    H143385   2.621   4.219  11.227  1.3796 -0.2453  1.2191
 7298TIP3    H243386   2.669   4.307  11.113 -1.6374  1.2177  0.9754
 7299TIP3   OH243387   0.558   6.402  15.857  0.4001  0.0264 -0.0699
 7299TIP3    H143388   0.634   6.459  15.867  0.6925 -0.1756 -1.0710
 7299TIP3    H243389   0.582   6.340  15.789 -0.2425 -0.7654  0.3998
 7300TIP3   OH243390   1.984   0.611   2.117 -0.0406 -0.5236  0.7352
 7300TIP3    H143391   2.074   0.577   2.117 -0.0733 -0.6147  1.1503
 7300TIP3    H243392   1.955   0.603   2.026 -0.5372 -2.9184  1.0265
 7301TIP3   OH243393   4.273   3.287   0.638  0.4321  0.4096  0.3124
 7301TIP3    H143394   4.234   3.221   0.696 -0.2711 -0.0360 -0.6461
 7301TIP3    H243395   4.208   3.299   0.569  1.7337  0.1100 -0.9945
 7302TIP3   OH243396   3.917   2.741   1.406 -0.8488 -0.0455 -0.1695
 7302TIP3    H143397   3.827   2.739   1.437 -0.4072 -1.3310  1.1986
 7302TIP3    H243398   3.933   2.652   1.373  0.0786 -0.0348  0.1976
 7303TIP3   OH243399   4.458   2.015   0.149  0.2176 -0.9212 -0.3632
 7303TIP3    H143400   4.412   1.985   0.228  1.6930 -0.6570  0.6482
 7303TIP3    H243401   4.397   1.998   0.078 -2.2711  1.1898  1.0871
 7304TIP3   OH243402   4.816   0.354  16.537  0.2165 -0.7114  0.0835
 7304TIP3    H143403   4.827   0.450  16.539 -1.2849 -0.5374  1.4792
 7304TIP3    H243404   4.743   0.340  16.477  0.3258 -0.9717  0.0115
 7305TIP3   OH243405   3.807   3.048  11.102 -0.2346  0.3490  0.4068
 7305TIP3    H143406   3.814   3.141  11.123  0.6245  0.4082 -0.1136
 7305TIP3    H243407   3.713   3.032  11.094 -0.6406  0.4408  3.6691
 7306TIP3   OH243408   4.699   1.691   0.781  0.1744  0.5180  0.3307
 7306TIP3    H143409   4.722   1.599   0.791  0.5751  0.4355 -1.1392
 7306TIP3    H243410   4.712   1.729   0.868 -0.2782 -0.8610  1.0242
 7307TIP3   OH243411   6.824   1.799  15.954  0.3363 -0.0751  0.0297
 7307TIP3    H143412   6.916   1.776  15.964  0.9970  1.7743 -1.2605
 7307TIP3    H243413   6.810   1.870  16.017 -0.0890 -0.0477 -0.0902
 7308TIP3   OH243414   0.340   4.668   3.305  0.3139  0.6874 -0.6870
 7308TIP3    H143415   0.407   4.703   3.364  1.1497 -0.3680 -0.9884
 7308TIP3    H243416   0.291   4.745   3.277 -0.3967  1.1925  1.6919
 7309TIP3   OH243417   6.712   4.888  15.657  0.2028 -0.2829  0.9237
 7309TIP3    H143418   6.754   4.871  15.742  1.3258 -0.3315  0.3859
 7309TIP3    H243419   6.784   4.880  15.594 -0.8825 -1.5887 -0.1814
 7310TIP3   OH243420   5.787   5.164  17.097 -0.3105  0.4337 -0.0416
 7310TIP3    H143421   5.722   5.232  17.076  0.3793  1.0414 -0.2733
 7310TIP3    H243422   5.865   5.213  17.123  0.3139 -0.2674 -0.5480
 7311TIP3   OH243423   6.516   3.948   0.804  0.0242 -0.4959 -0.5982
 7311TIP3    H143424   6.435   3.997   0.793 -0.7982 -1.7108 -0.1587
 7311TIP3    H243425   6.577   4.011   0.843 -0.7433  0.3911 -0.7939
 7312TIP3   OH243426   2.767   3.654   0.828  0.0143 -0.0492 -0.3994
 7312TIP3    H143427   2.689   3.663   0.882 -0.0618 -0.0213 -0.5139
 7312TIP3    H243428   2.827   3.721   0.861 -0.1421  0.1622 -0.5397
 7313TIP3   OH243429   5.162   3.926   1.329  0.0231  0.2206  0.6228
 7313TIP3    H143430   5.129   3.913   1.418 -1.9349  1.7812  0.2184
 7313TIP3    H243431   5.096   3.884   1.273  0.8874 -0.1635 -0.1329
 7314TIP3   OH243432   4.752   1.306   2.156 -0.0245  0.3465 -0.0982
 7314TIP3    H143433   4.738   1.215   2.131 -1.3236  0.5814 -0.3154
 7314TIP3    H243434   4.817   1.338   2.093  0.4425 -0.4124 -0.0222
 7315TIP3   OH243435   6.242   0.016  12.789  0.1900 -0.1115  0.0309
 7315TIP3    H143436   6.188  -0.048  12.742 -0.6637 -0.1447  1.0282
 7315TIP3    H243437   6.180   0.083  12.819  0.5238 -0.6583  2.0574
 7316TIP3   OH243438   5.984   1.426  13.819  0.0735 -0.0514  0.0005
 7316TIP3    H143439   5.962   1.355  13.878 -1.8315  1.0311  0.6944
 7316TIP3    H243440   5.910   1.429  13.757  0.6419  0.6599 -0.6659
 7317TIP3   OH243441   4.146   4.424  14.646 -0.1296  0.0076  0.0689
 7317TIP3    H143442   4.162   4.342  14.694 -1.0543  0.1149  0.5804
 7317TIP3    H243443   4.164   4.402  14.555  0.7415 -0.4576  0.3363
 7318TIP3   OH243444   6.450   2.930   2.710 -0.1599  0.2144  0.1909
 7318TIP3    H143445   6.458   2.835   2.705  0.6662  0.3155 -0.6272
 7318TIP3    H243446   6.401   2.946   2.791  0.4582 -0.8663  0.7939
 7319TIP3   OH243447   5.392   4.850   0.767  0.3169 -0.1051  0.3066
 7319TIP3    H143448   5.328   4.818   0.704 -1.2320 -2.2375  2.7691
 7319TIP3    H243449   5.364   4.940   0.786 -1.1333 -0.5519  0.3456
 7320TIP3   OH243450   3.778   2.098   3.425 -0.3714  0.3299 -0.2238
 7320TIP3    H143451   3.857   2.139   3.390 -0.4872 -0.0294 -0.9381
 7320TIP3    H243452   3.804   2.059   3.508  0.5340 -0.9193 -1.0622
 7321TIP3   OH243453   5.443   6.324  14.301  0.0916  0.5593  0.1822
 7321TIP3    H143454   5.454   6.248  14.358  0.7237 -0.3897 -1.1352
 7321TIP3    H243455   5.407   6.392  14.357 -0.1135 -0.5955  1.4935
 7322TIP3   OH243456   3.562   4.949  11.725  0.1205 -0.8425 -0.5442
 7322TIP3    H143457   3.589   4.935  11.634 -1.0532 -1.2973 -0.8375
 7322TIP3    H243458   3.640   4.984  11.767  0.0739  1.6253 -2.2653
 7323TIP3   OH243459   0.136   0.611   6.668 -0.5115  0.3650  0.1674
 7323TIP3    H143460   0.223   0.635   6.699 -0.5665 -0.3782  0.9325
 7323TIP3    H243461   0.131   0.516   6.680 -1.7555  0.5044  1.0129
 7324TIP3   OH243462   1.522   3.943   2.571  0.5252 -0.0556  0.2283
 7324TIP3    H143463   1.473   4.025   2.585  1.6149  0.4519  1.3134
 7324TIP3    H243464   1.503   3.891   2.649 -0.0862 -0.8085 -0.4182
 7325TIP3   OH243465   4.128   6.133   6.309  0.5612 -0.0855 -0.4461
 7325TIP3    H143466   4.054   6.100   6.358  1.3832 -0.7796  0.3648
 7325TIP3    H243467   4.103   6.222   6.284 -0.9305 -0.6421 -1.0613
 7326TIP3   OH243468   5.658   5.050  13.148  0.0555  0.5615  0.9090
 7326TIP3    H143469   5.726   5.001  13.193 -0.0518 -0.4177  0.0349
 7326TIP3    H243470   5.576   5.023  13.191  0.0375  0.3178  0.7190
 7327TIP3   OH243471   2.428   6.408   5.143 -0.0945 -0.2383  0.4415
 7327TIP3    H143472   2.380   6.491   5.146  1.9907  1.0287  1.2025
 7327TIP3    H243473   2.520   6.434   5.137  0.5273 -2.5478 -1.9540
 7328TIP3   OH243474   0.612   4.715   4.425  0.5628 -0.1440 -0.3711
 7328TIP3    H143475   0.602   4.630   4.383 -0.8504 -0.3646  0.3589
 7328TIP3    H243476   0.600   4.778   4.354 -0.7991 -0.5325 -0.5229
 7329TIP3   OH243477   4.522   2.655   3.667  0.2342 -0.2752 -0.0133
 7329TIP3    H143478   4.612   2.675   3.642  0.4874 -0.9722  0.3119
 7329TIP3    H243479   4.492   2.592   3.602 -0.1911  0.3190 -0.4042
 7330TIP3   OH243480   1.420   1.272   3.952  0.3806 -0.6327 -0.3258
 7330TIP3    H143481   1.407   1.260   3.858  0.8491  0.3830 -0.5327
 7330TIP3    H243482   1.344   1.229   3.992  0.3139 -1.3074 -1.1485
 7331TIP3   OH243483   0.544   5.699   5.239 -0.3704  0.4135 -0.5911
 7331TIP3    H143484   0.471   5.709   5.300 -1.8177 -0.1618 -2.1468
 7331TIP3    H243485   0.587   5.784   5.239 -0.0114  0.2928  1.5594
 7332TIP3   OH243486   6.609   5.084  13.454 -0.2367 -0.2870 -0.4737
 7332TIP3    H143487   6.599   4.990  13.440  1.0417 -0.4100 -0.6903
 7332TIP3    H243488   6.589   5.098  13.546  2.6996 -1.3128  0.4342
 7333TIP3   OH243489   3.245   2.881  10.231  0.2084 -0.5472  0.5119
 7333TIP3    H143490   3.316   2.816  10.237  0.9299 -0.0197 -1.4264
 7333TIP3    H243491   3.274   2.954  10.286  0.3972 -0.9992  1.0190
 7334TIP3   OH243492   6.075   6.768   3.530 -0.8470 -0.6410  0.0218
 7334TIP3    H143493   6.022   6.762   3.450 -0.1798  1.1393 -0.5986
 7334TIP3    H243494   6.018   6.811   3.594 -0.4289  0.6631 -0.4431
 7335TIP3   OH243495   2.761   0.864  13.096 -0.2925  0.6257  0.6845
 7335TIP3    H143496   2.737   0.945  13.050 -1.5306  0.4075  0.9099
 7335TIP3    H243497   2.759   0.886  13.188 -1.2545  0.2006  0.7800
 7336TIP3   OH243498   1.042   3.962  11.680 -0.0010 -0.2312 -0.6650
 7336TIP3    H143499   1.078   3.876  11.700  0.8141 -0.3305 -2.3748
 7336TIP3    H243500   1.076   4.019  11.749  0.5773 -1.0153 -0.2865
 7337TIP3   OH243501   6.508   6.043   1.207  0.3907 -0.1242 -0.0691
 7337TIP3    H143502   6.449   6.089   1.147 -0.2672 -0.0241  0.6487
 7337TIP3    H243503   6.463   5.960   1.225 -0.1548  0.4663  1.4572
 7338TIP3   OH243504   6.409   5.265  11.791 -0.5983 -0.2050 -0.0365
 7338TIP3    H143505   6.384   5.219  11.711 -1.4994  0.0161  0.1027
 7338TIP3    H243506   6.354   5.344  11.791 -1.2350 -0.6222  1.2200
 7339TIP3   OH243507   2.369   4.913   5.762 -0.0119 -0.5320  0.6806
 7339TIP3    H143508   2.420   4.846   5.808 -0.6797 -1.5822 -0.0589
 7339TIP3    H243509   2.285   4.914   5.808 -0.2402 -0.6964  0.2729
 7340TIP3   OH243510   3.147   6.464   0.526  0.0341  0.2961  0.2804
 7340TIP3    H143511   3.165   6.454   0.619  1.3113  2.2660  0.3173
 7340TIP3    H243512   3.143   6.559   0.512 -1.1258  0.0538 -1.5162
 7341TIP3   OH243513   1.049   5.119   4.291 -0.1253 -0.1788  0.2649
 7341TIP3    H143514   1.088   5.189   4.343 -0.4650 -0.1639  0.5116
 7341TIP3    H243515   1.034   5.048   4.355  0.7389 -0.6960 -0.0909
 7342TIP3   OH243516   4.018   2.123  16.695  0.1149  0.6479 -0.4176
 7342TIP3    H143517   4.078   2.054  16.723 -0.5615  0.2310  0.0578
 7342TIP3    H243518   4.070   2.203  16.698  0.3222  0.4988  1.2790
 7343TIP3   OH243519   2.763   4.099  15.644  0.0908  0.3295  0.0396
 7343TIP3    H143520   2.736   4.060  15.728 -1.1728  1.9600  0.4308
 7343TIP3    H243521   2.830   4.039  15.611  1.0756 -0.0538  2.4955
 7344TIP3   OH243522   0.815   2.828  11.644 -0.4205  0.0067  0.3136
 7344TIP3    H143523   0.857   2.765  11.585  0.2460  2.0127 -1.4713
 7344TIP3    H243524   0.722   2.805  11.640 -0.2046 -0.8365 -0.3458
 7345TIP3   OH243525   2.671   5.755  12.806  0.0573  0.0089  0.0909
 7345TIP3    H143526   2.586   5.735  12.768  0.3922  0.7492 -1.1212
 7345TIP3    H243527   2.724   5.786  12.732  1.8161 -1.7092  0.5458
 7346TIP3   OH243528   4.979   4.228  12.201  0.4494 -0.4872  0.1172
 7346TIP3    H143529   4.946   4.308  12.161 -1.1812  0.2039  2.5652
 7346TIP3    H243530   5.047   4.197  12.142  0.0929  1.8753 -1.6708
 7347TIP3   OH243531   1.694   0.415   3.112  0.3058  0.0582 -0.0857
 7347TIP3    H143532   1.772   0.441   3.063 -0.7179  2.3253 -0.6548
 7347TIP3    H243533   1.681   0.485   3.175 -0.1471 -1.3175  1.4230
 7348TIP3   OH243534   2.355   0.188  13.144 -0.0245  0.4564  0.3512
 7348TIP3    H143535   2.384   0.154  13.229  0.3630  1.0684  0.4692
 7348TIP3    H243536   2.411   0.264  13.128 -0.9548  1.1156  0.1530
 7349TIP3   OH243537   5.402   2.835  16.335 -0.1500 -0.1251 -0.6872
 7349TIP3    H143538   5.356   2.856  16.254 -1.3580 -0.0759 -0.0051
 7349TIP3    H243539   5.335   2.840  16.403  0.9710  0.4326  0.4107
 7350TIP3   OH243540   6.567   6.375   2.810  0.1149  0.0829 -0.3930
 7350TIP3    H143541   6.554   6.425   2.730 -1.6977 -0.6127 -0.5844
 7350TIP3    H243542   6.584   6.441   2.877  2.0987  0.6425 -1.3940
 7351TIP3   OH243543   5.306   1.211   6.480  0.5296  0.3694 -0.3142
 7351TIP3    H143544   5.214   1.185   6.481  0.7760 -0.5703  1.4890
 7351TIP3    H243545   5.352   1.139   6.524  2.1246  0.8467 -1.1427
 7352TIP3   OH243546   3.338   6.557  11.799  0.2303 -0.0208  0.5091
 7352TIP3    H143547   3.392   6.635  11.786 -0.1394  0.1025 -0.4310
 7352TIP3    H243548   3.379   6.490  11.744 -3.2296  1.4002 -4.6204
 7353TIP3   OH243549   5.074   3.431  11.230  0.0198  0.4054  0.1310
 7353TIP3    H143550   5.086   3.354  11.175 -1.5888  0.3382 -0.1869
 7353TIP3    H243551   5.038   3.397  11.312  2.9809  0.4271  1.5800
 7354TIP3   OH243552   2.271   6.282   4.553 -0.1010 -0.2028 -0.2445
 7354TIP3    H143553   2.282   6.290   4.648  0.3297  0.1836 -0.3212
 7354TIP3    H243554   2.184   6.244   4.542  0.6979 -2.3417  0.3613
 7355TIP3   OH243555   0.267   2.614  14.555 -0.2536 -0.3349 -0.1994
 7355TIP3    H143556   0.271   2.535  14.608 -2.2376 -1.9000 -2.1827
 7355TIP3    H243557   0.321   2.595  14.478  2.5106  1.8539  1.0148
 7356TIP3   OH243558   3.521   5.837   4.860  0.6189  0.2953  0.7185
 7356TIP3    H143559   3.467   5.828   4.939  0.2490  2.7889  0.8527
 7356TIP3    H243560   3.605   5.869   4.892  0.7526  0.4983  0.1670
 7357TIP3   OH243561   3.286   3.761   2.874  0.9339 -0.3818  0.3764
 7357TIP3    H143562   3.226   3.717   2.934  0.5804 -1.4048 -0.6913
 7357TIP3    H243563   3.230   3.789   2.801  1.0759  2.1794  1.1339
 7358TIP3   OH243564   5.938   6.235  16.508 -0.0075  0.5963 -0.3834
 7358TIP3    H143565   5.989   6.155  16.496  0.4913  0.8493  0.0085
 7358TIP3    H243566   5.887   6.220  16.587 -0.8363  0.1970 -0.9830
 7359TIP3   OH243567   6.546   5.056  14.203 -0.4858  0.2791  0.6570
 7359TIP3    H143568   6.510   4.983  14.252  0.5479 -0.1034  0.8795
 7359TIP3    H243569   6.501   5.133  14.238 -2.0037 -0.2713  0.0224
 7360TIP3   OH243570   2.505   4.251   2.006 -0.2073 -0.2800  0.1871
 7360TIP3    H143571   2.460   4.283   1.928 -1.1589  1.1104  1.2539
 7360TIP3    H243572   2.504   4.156   1.997 -1.2388 -0.1904 -0.9706
 7361TIP3   OH243573   3.745   4.527   4.960 -0.2221 -0.1849 -0.3192
 7361TIP3    H143574   3.717   4.517   5.051 -0.8948 -0.3943 -0.5470
 7361TIP3    H243575   3.805   4.454   4.946  0.0902 -0.0004  0.0333
 7362TIP3   OH243576   2.254   1.390  13.409  0.7535 -0.4690 -0.0626
 7362TIP3    H143577   2.161   1.405  13.389  0.6534  2.0132  1.8103
 7362TIP3    H243578   2.253   1.327  13.481  0.5207 -0.4215 -0.0229
 7363TIP3   OH243579   3.671   6.284  12.690  0.4290 -0.3733  0.0444
 7363TIP3    H143580   3.670   6.340  12.613  1.6840  2.4308  1.8737
 7363TIP3    H243581   3.594   6.312  12.740  0.9919 -0.3294  0.9145
 7364TIP3   OH243582   3.195   4.682   2.584 -0.3992  0.3841  0.2102
 7364TIP3    H143583   3.142   4.608   2.556  2.0832 -1.9572  1.2485
 7364TIP3    H243584   3.233   4.717   2.503 -0.4561 -0.4065 -0.1593
 7365TIP3   OH243585   5.625   2.212   0.333  0.2406  0.5139 -0.3986
 7365TIP3    H143586   5.693   2.188   0.396  0.8207 -1.9662 -1.8366
 7365TIP3    H243587   5.546   2.166   0.364  0.0321  0.8463 -0.4359
 7366TIP3   OH243588   2.473   4.547   3.459  0.2619 -0.2855 -0.5332
 7366TIP3    H143589   2.426   4.464   3.465  1.1018 -0.7792 -0.6151
 7366TIP3    H243590   2.535   4.546   3.532  1.0490 -0.2388 -1.1820
 7367TIP3   OH243591   1.373   2.951  13.768 -0.3159  0.4719  0.4275
 7367TIP3    H143592   1.381   2.862  13.733 -0.0189  0.7410 -0.1983
 7367TIP3    H243593   1.308   2.943  13.839 -1.0926 -0.0415 -0.3214
 7368TIP3   OH243594   2.312   1.074  16.819 -0.0588 -0.0237  0.1588
 7368TIP3    H143595   2.286   1.072  16.727  0.3494  2.4895 -0.0864
 7368TIP3    H243596   2.394   1.025  16.822 -0.6895 -1.1644 -0.5612
 7369TIP3   OH243597   5.188   6.308  15.431  0.2497  0.0662 -0.4833
 7369TIP3    H143598   5.137   6.308  15.350  0.0793  0.1853 -0.3764
 7369TIP3    H243599   5.191   6.216  15.457 -0.4632  0.1339 -0.1471
 7370TIP3   OH243600   3.067   2.064   4.356 -0.6836 -0.1566  0.2071
 7370TIP3    H143601   3.004   2.124   4.315 -0.6766 -0.0886  0.2948
 7370TIP3    H243602   3.046   2.068   4.449 -0.6767 -0.2840  0.2140
 7371TIP3   OH243603   6.559   5.387   6.367 -0.1403  0.3923  0.3734
 7371TIP3    H143604   6.642   5.403   6.320  0.4774  0.5995  1.5044
 7371TIP3    H243605   6.559   5.450   6.438 -0.1475 -1.1519  1.8044
 7372TIP3   OH243606   0.105   0.765  12.013 -0.6050 -0.4355 -0.2177
 7372TIP3    H143607   0.121   0.714  12.093 -2.5335 -0.6790  0.0677
 7372TIP3    H243608   0.018   0.802  12.026 -0.2540  0.9077 -1.5054
 7373TIP3   OH243609   1.440   6.272   4.162  0.0465  0.0952  0.0566
 7373TIP3    H143610   1.497   6.232   4.229 -0.7006 -1.3690 -0.1504
 7373TIP3    H243611   1.501   6.307   4.097  0.7470 -0.3305  0.4717
 7374TIP3   OH243612   1.161   2.976   4.712 -0.1570  0.7073 -0.9098
 7374TIP3    H143613   1.104   2.982   4.636  1.9416  1.8872 -2.5144
 7374TIP3    H243614   1.203   3.063   4.717 -0.4600  0.7637  1.8059
 7375TIP3   OH243615   0.383   0.759   5.646  0.2117 -0.3320 -0.1108
 7375TIP3    H143616   0.332   0.709   5.709  0.3382  0.7126  0.8500
 7375TIP3    H243617   0.318   0.804   5.592 -0.0634 -4.1822 -3.3800
 7376TIP3   OH243618   2.879   0.929   5.012 -0.0808 -0.6506 -0.4501
 7376TIP3    H143619   2.915   0.937   4.923  2.8715 -1.1715  0.5670
 7376TIP3    H243620   2.849   1.017   5.034  1.2061  0.0197 -1.2138
 7377TIP3   OH243621   2.444   6.099   5.648  0.2798  0.0625  0.1912
 7377TIP3    H143622   2.390   6.062   5.718 -0.9706 -0.5583 -1.0651
 7377TIP3    H243623   2.493   6.024   5.614  2.2242  0.6566  1.4872
 7378TIP3   OH243624   2.414   5.610  15.129 -0.0435 -0.3920  0.3396
 7378TIP3    H143625   2.428   5.517  15.110 -0.9180 -0.5751  0.5863
 7378TIP3    H243626   2.495   5.638  15.173  1.0662 -0.5376 -1.4781
 7379TIP3   OH243627   4.616   5.596   0.042 -0.2516  0.2446  0.0916
 7379TIP3    H143628   4.616   5.617  -0.051  1.1262  1.9108  0.4188
 7379TIP3    H243629   4.572   5.670   0.083 -2.0742 -1.1029  0.6966
 7380TIP3   OH243630   5.742   3.933   0.852 -0.3096 -0.0394 -0.6059
 7380TIP3    H143631   5.769   3.959   0.940 -0.5573  0.8176 -0.7730
 7380TIP3    H243632   5.712   4.015   0.811  1.7931  0.0169 -2.2223
 7381TIP3   OH243633   1.159   4.280  14.101 -0.1715  0.2115  0.1025
 7381TIP3    H143634   1.158   4.184  14.100  1.3824  0.1386  1.6104
 7381TIP3    H243635   1.093   4.305  14.036 -0.7003 -1.8661 -0.2342
 7382TIP3   OH243636   3.783   2.678  12.267 -0.2215 -0.0355 -0.1410
 7382TIP3    H143637   3.783   2.773  12.258 -0.2572 -0.0999 -0.8143
 7382TIP3    H243638   3.766   2.663  12.360  3.2000  0.6757  0.7419
 7383TIP3   OH243639   0.742   3.031  11.974 -0.2323 -0.0900 -0.4761
 7383TIP3    H143640   0.683   3.056  12.045  1.4832 -1.6360  1.6489
 7383TIP3    H243641   0.744   2.936  11.977  0.1307 -0.1855 -2.4575
 7384TIP3   OH243642   0.165   0.965  11.317 -0.1872 -0.3793 -0.3533
 7384TIP3    H143643   0.092   0.987  11.259 -1.4663 -1.2256  0.8720
 7384TIP3    H243644   0.124   0.947  11.402  1.2211 -2.8616 -0.1106
 7385TIP3   OH243645   0.342   4.037   1.342 -0.2515  0.7117  0.1786
 7385TIP3    H143646   0.254   4.069   1.362 -1.2724 -0.0037 -2.6411
 7385TIP3    H243647   0.356   4.062   1.250  0.6094 -3.0380 -0.8795
 7386TIP3   OH243648   1.796   0.155  11.164 -0.2061  0.1259  0.1137
 7386TIP3    H143649   1.873   0.106  11.134  0.0633  0.9428 -0.5738
 7386TIP3    H243650   1.729   0.087  11.179  0.7999 -0.6599  1.3105
 7387TIP3   OH243651   4.200   3.285   5.329 -0.6676 -0.4045 -0.7580
 7387TIP3    H143652   4.115   3.247   5.351 -0.3631 -1.9630 -2.0304
 7387TIP3    H243653   4.229   3.236   5.252  1.5001 -0.0789 -0.2324
 7388TIP3   OH243654   2.174   4.786   2.697  0.1030  0.4393  0.8867
 7388TIP3    H143655   2.079   4.773   2.704 -0.0400  1.4419  0.9578
 7388TIP3    H243656   2.187   4.823   2.610  0.5190 -0.3221  0.6116
 7389TIP3   OH243657   3.426   6.628   3.190 -0.4811 -0.6678 -0.5758
 7389TIP3    H143658   3.518   6.606   3.174 -0.1729 -0.0012  0.2104
 7389TIP3    H243659   3.378   6.582   3.121  0.3828 -1.5094 -0.6345
 7390TIP3   OH243660   6.007   5.064   2.414  0.1861  0.0048  0.2703
 7390TIP3    H143661   6.068   5.021   2.474 -0.4871  0.6682  1.4658
 7390TIP3    H243662   5.963   5.130   2.467 -0.8127  0.2615 -0.8260
 7391TIP3   OH243663   0.726   2.680   3.823 -0.2168 -0.0404 -0.0683
 7391TIP3    H143664   0.636   2.663   3.848  0.1007 -0.9460  0.4927
 7391TIP3    H243665   0.779   2.636   3.890  0.6916  2.9063  1.3419
 7392TIP3   OH243666   6.355   5.750  11.125  0.7374  0.5522  0.0407
 7392TIP3    H143667   6.300   5.803  11.068  0.4438  0.1233 -0.0800
 7392TIP3    H243668   6.380   5.675  11.071  1.0721  0.5202  0.2366
 7393TIP3   OH243669   2.292   3.222   1.477 -0.0124  0.2339  0.3407
 7393TIP3    H143670   2.236   3.238   1.400 -0.7759  1.6630  1.1554
 7393TIP3    H243671   2.234   3.234   1.552  0.5905 -1.6838  1.1754
 7394TIP3   OH243672   2.969   4.528  11.976  0.0783 -0.4539  0.3154
 7394TIP3    H143673   2.914   4.463  11.932 -0.1414 -0.0880  0.0460
 7394TIP3    H243674   2.983   4.493  12.064  0.5380 -1.2034 -0.0476
 7395TIP3   OH243675   0.660   2.081  16.307  0.1675 -0.3526  0.2253
 7395TIP3    H143676   0.749   2.113  16.289  0.6167 -2.3998 -1.5556
 7395TIP3    H243677   0.616   2.156  16.347  2.6327  0.7708  1.0192
 7396TIP3   OH243678   2.682   0.588   5.515 -0.6732 -0.0450 -0.0078
 7396TIP3    H143679   2.700   0.602   5.422 -0.6637  0.4631  0.0674
 7396TIP3    H243680   2.587   0.574   5.520 -0.8529  1.0911  0.0334
 7397TIP3   OH243681   2.639   4.490   1.433  0.3444  0.3686 -0.1565
 7397TIP3    H143682   2.627   4.396   1.449  0.7611  0.7607  3.4036
 7397TIP3    H243683   2.734   4.503   1.442  0.2924  1.1340 -0.6831
 7398TIP3   OH243684   0.038   1.810  11.884 -0.5748 -0.1498 -0.5191
 7398TIP3    H143685  -0.032   1.874  11.869  0.8784  2.0340  1.2878
 7398TIP3    H243686   0.026   1.782  11.975  0.2721 -0.5704 -0.5290
 7399TIP3   OH243687   6.020   1.930   1.452 -0.4035 -0.0303 -0.1209
 7399TIP3    H143688   5.927   1.945   1.465 -0.5546  0.1031 -1.2101
 7399TIP3    H243689   6.062   2.013   1.476 -0.6137  0.0760 -0.1232
 7400TIP3   OH243690   2.836   2.430   1.552  0.3900  0.2936  0.1765
 7400TIP3    H143691   2.790   2.387   1.481 -0.5045  3.3965 -1.2886
 7400TIP3    H243692   2.790   2.403   1.631 -1.3289  0.0907 -0.8538
 7401TIP3   OH243693   5.619   2.557   2.911  0.3689  0.6702  0.2716
 7401TIP3    H143694   5.558   2.546   2.984  1.0018 -1.6644  0.5468
 7401TIP3    H243695   5.606   2.647   2.882 -2.7170  0.4874  0.7472
 7402TIP3   OH243696   1.731   0.652   2.246 -0.2918 -0.5659 -0.2616
 7402TIP3    H143697   1.672   0.584   2.213 -1.5205  1.6916 -3.2039
 7402TIP3    H243698   1.814   0.634   2.202 -1.4851  1.4786 -3.7212
 7403TIP3   OH243699   4.695   1.531  15.823  0.1753  0.6740  0.0399
 7403TIP3    H143700   4.703   1.609  15.878  0.8627  2.0410 -1.8833
 7403TIP3    H243701   4.623   1.482  15.862  1.0645  1.1827  2.5396
 7404TIP3   OH243702   6.541   0.156   4.732  0.0358 -0.0950  0.0027
 7404TIP3    H143703   6.568   0.067   4.757  0.5723 -0.1222 -0.6544
 7404TIP3    H243704   6.448   0.147   4.711  0.7104 -1.2036 -3.0235
 7405TIP3   OH243705   2.672   6.175   3.962 -0.4223 -0.0881 -0.5056
 7405TIP3    H143706   2.706   6.254   4.003  0.8803 -0.1870 -1.3258
 7405TIP3    H243707   2.628   6.127   4.032  0.6266  0.3476  0.4713
 7406TIP3   OH243708   0.958   2.971   5.987  0.3399  0.3515 -0.5532
 7406TIP3    H143709   0.933   3.045   6.041 -1.0521 -0.1719 -0.4521
 7406TIP3    H243710   0.945   3.000   5.897 -0.0986  0.2728 -0.5164
 7407TIP3   OH243711   2.259   6.804  15.098  0.3645  0.3067  0.0878
 7407TIP3    H143712   2.169   6.772  15.102  0.8553 -1.0979  0.6572
 7407TIP3    H243713   2.267   6.862  15.174  0.0822  0.0002  0.3594
 7408TIP3   OH243714   0.144   0.101   5.222  0.2416 -0.1821  0.0304
 7408TIP3    H143715   0.227   0.143   5.247  0.8415  0.3776 -2.6315
 7408TIP3    H243716   0.077   0.164   5.247  0.6227 -0.3032  1.4985
 7409TIP3   OH243717   2.626   1.566   6.329 -0.0287 -0.2994 -0.0637
 7409TIP3    H143718   2.599   1.495   6.387  0.9703  0.5605  1.4938
 7409TIP3    H243719   2.705   1.602   6.369  0.3436  0.7390 -1.6261
 7410TIP3   OH243720   4.348   2.176   3.038 -0.9234 -0.3008 -0.2954
 7410TIP3    H143721   4.294   2.227   3.098  0.9539  0.0895  1.1451
 7410TIP3    H243722   4.436   2.181   3.074  0.5667  0.8650 -3.6761
 7411TIP3   OH243723   2.738   5.388   4.602 -0.1178  0.5796 -0.7680
 7411TIP3    H143724   2.768   5.392   4.511 -1.2792  0.9114 -1.1502
 7411TIP3    H243725   2.804   5.334   4.647  0.9071  1.0958 -1.6177
 7412TIP3   OH243726   0.609   1.659  12.197 -0.3770 -0.0476 -0.1258
 7412TIP3    H143727   0.587   1.582  12.146 -1.6215  0.1334  0.1250
 7412TIP3    H243728   0.572   1.643  12.284  0.5862  0.2139  0.3576
 7413TIP3   OH243729   4.100   3.847   5.714  0.6811  0.4891  0.3319
 7413TIP3    H143730   4.092   3.757   5.683  0.7026 -0.4833  2.9534
 7413TIP3    H243731   4.019   3.864   5.761  0.3594  2.1541 -0.7118
 7414TIP3   OH243732   5.160   1.328  17.017 -0.2831  0.1155 -0.1918
 7414TIP3    H143733   5.190   1.248  16.973 -1.1043  0.3300 -1.1735
 7414TIP3    H243734   5.179   1.398  16.954  0.8864  0.7783  0.8638
 7415TIP3   OH243735   5.666   6.169   2.216 -0.3286  0.1705  0.0727
 7415TIP3    H143736   5.625   6.084   2.201  1.9879 -0.6968 -2.0691
 7415TIP3    H243737   5.635   6.224   2.145  0.1348  0.3148 -0.0220
 7416TIP3   OH243738   0.188   1.473  11.380 -0.6901  0.2166  0.1969
 7416TIP3    H143739   0.099   1.439  11.390 -0.5593 -0.2486 -0.2308
 7416TIP3    H243740   0.191   1.505  11.290 -0.9571  1.7971  0.7215
 7417TIP3   OH243741   0.939   3.737  13.467 -0.2223  0.1267  0.3442
 7417TIP3    H143742   0.862   3.699  13.423 -0.3685  0.0373  0.6722
 7417TIP3    H243743   0.994   3.662  13.488  0.2856  0.2586 -0.5163
 7418TIP3   OH243744   3.895   6.006  12.440  0.1658 -0.0405 -0.3006
 7418TIP3    H143745   3.813   5.968  12.472 -0.6372  1.0349 -1.0218
 7418TIP3    H243746   3.873   6.097  12.421  1.2160 -0.0551 -1.6795
 7419TIP3   OH243747   4.284   3.980   4.673 -0.2602 -0.1944  0.5698
 7419TIP3    H143748   4.189   3.973   4.661  0.0390 -0.2172 -2.1976
 7419TIP3    H243749   4.300   4.074   4.683 -0.2598  0.2892 -2.9778
 7420TIP3   OH243750   5.616   4.533  15.553 -0.1608  0.5020  0.3373
 7420TIP3    H143751   5.532   4.579  15.542 -0.4323 -0.0182  0.2292
 7420TIP3    H243752   5.604   4.480  15.632 -0.0840  0.0964  0.0785
 7421TIP3   OH243753   1.254   5.422  14.540  0.3592  0.7238  0.5501
 7421TIP3    H143754   1.302   5.422  14.457 -1.5869 -2.0480 -0.7191
 7421TIP3    H243755   1.286   5.500  14.586  2.6602  1.5053 -2.0927
 7422TIP3   OH243756   4.431   5.667  11.168  0.1109 -0.2048  0.2101
 7422TIP3    H143757   4.405   5.712  11.087  0.1786 -1.3193 -0.4473
 7422TIP3    H243758   4.499   5.723  11.206  0.7510 -0.1351 -0.9965
 7423TIP3   OH243759   6.614   4.374  12.653  0.0576  0.0410  0.1439
 7423TIP3    H143760   6.694   4.404  12.696  0.5247 -0.0487 -0.6528
 7423TIP3    H243761   6.579   4.308  12.713  2.6214 -2.7716 -1.1904
 7424TIP3   OH243762   0.831   3.847   1.165 -0.0413  0.0162  0.0581
 7424TIP3    H143763   0.762   3.840   1.231 -1.0082  0.0186 -0.9261
 7424TIP3    H243764   0.794   3.805   1.088  0.7888  0.6579 -0.7003
 7425TIP3   OH243765   1.830   5.364  17.056 -0.2433 -0.2913  0.3633
 7425TIP3    H143766   1.804   5.282  17.099  1.2038 -1.2102 -0.4537
 7425TIP3    H243767   1.819   5.347  16.963  0.3915  0.3239  0.1671
 7426TIP3   OH243768   6.474   1.183  15.553  0.1533 -0.0718 -0.6246
 7426TIP3    H143769   6.563   1.147  15.557  0.5755  0.6521 -2.3076
 7426TIP3    H243770   6.447   1.169  15.462 -1.0232  0.7080 -0.4152
 7427TIP3   OH243771   0.329   4.886   3.052 -0.0890  0.1783  0.3937
 7427TIP3    H143772   0.260   4.850   3.109 -0.7416  1.6358  0.5538
 7427TIP3    H243773   0.288   4.961   3.009  0.8747  0.0235 -0.8500
 7428TIP3   OH243774   6.278   0.601  11.294 -0.0008 -0.6106  0.4316
 7428TIP3    H143775   6.189   0.634  11.282  0.4296 -0.3279 -2.9715
 7428TIP3    H243776   6.329   0.678  11.316  0.0249  0.0080 -1.6537
 7429TIP3   OH243777   5.673   2.105   5.262  0.1829  0.1660  0.3411
 7429TIP3    H143778   5.753   2.065   5.296 -0.4098 -1.1845  0.2323
 7429TIP3    H243779   5.622   2.031   5.227 -0.9977  1.0195  0.1828
 7430TIP3   OH243780   2.253   3.168  13.261 -0.2929 -0.1434 -0.6816
 7430TIP3    H143781   2.239   3.240  13.199  0.2169 -0.6740 -1.4440
 7430TIP3    H243782   2.180   3.173  13.322 -0.5632  0.6792 -1.0643
 7431TIP3   OH243783   3.829   3.518  14.889  0.5767 -0.3084 -0.0605
 7431TIP3    H143784   3.860   3.444  14.837 -0.1543 -0.5123 -0.2159
 7431TIP3    H243785   3.864   3.595  14.844  0.1357 -0.4938 -0.7340
 7432TIP3   OH243786   4.907   1.075   5.852 -0.0771 -0.2872  0.4621
 7432TIP3    H143787   4.863   1.151   5.814 -0.4742 -0.6422  0.1991
 7432TIP3    H243788   4.978   1.054   5.791 -0.0354 -0.1945  0.4794
 7433TIP3   OH243789   0.819   3.131  15.167  0.4983  0.3506 -0.3713
 7433TIP3    H143790   0.795   3.223  15.170  1.5243  0.6688 -1.2448
 7433TIP3    H243791   0.800   3.098  15.255 -1.5318  0.9351 -0.5397
 7434TIP3   OH243792   2.426   6.373   2.420  0.3259 -0.1959  0.3036
 7434TIP3    H143793   2.516   6.350   2.393 -0.9473 -2.9402 -2.2419
 7434TIP3    H243794   2.407   6.313   2.492  0.5439  0.5143  0.9688
 7435TIP3   OH243795   3.530   2.033  12.074 -0.2598 -0.1119 -0.1507
 7435TIP3    H143796   3.572   2.112  12.041 -1.2857  0.2789 -0.5444
 7435TIP3    H243797   3.447   2.028  12.027 -0.8004 -0.7020  0.8476
 7436TIP3   OH243798   3.514   2.233   3.547 -1.0157  0.4943 -0.4551
 7436TIP3    H143799   3.470   2.203   3.626  1.9037  0.0468  1.1192
 7436TIP3    H243800   3.585   2.288   3.578  1.1410 -0.8897 -2.6219
 7437TIP3   OH243801   4.267   2.498   2.985  0.1830 -0.6281  0.2547
 7437TIP3    H143802   4.265   2.439   3.061  0.8037  1.1727  1.7292
 7437TIP3    H243803   4.360   2.516   2.971 -0.0207  2.8128  2.2099
 7438TIP3   OH243804   5.640   4.769  13.800 -0.0043 -0.4451  0.1983
 7438TIP3    H143805   5.662   4.685  13.840  0.4333 -1.1768 -1.4569
 7438TIP3    H243806   5.677   4.834  13.859  2.8647 -1.5270 -0.2044
 7439TIP3   OH243807   5.134   2.710  12.698 -0.8822 -0.1596  0.4779
 7439TIP3    H143808   5.126   2.620  12.666 -0.5516 -0.4518  1.1785
 7439TIP3    H243809   5.117   2.703  12.792 -3.3768  0.8817  0.1850
 7440TIP3   OH243810   5.695   4.610   5.525 -0.3017  0.1659  0.0245
 7440TIP3    H143811   5.640   4.688   5.531 -0.3475  0.2114 -0.9169
 7440TIP3    H243812   5.739   4.605   5.610 -1.5945  0.2542  0.7288
 7441TIP3   OH243813   4.745   0.278  14.124 -0.5170 -0.0827  0.3225
 7441TIP3    H143814   4.759   0.279  14.029  0.0323  0.5772  0.4047
 7441TIP3    H243815   4.815   0.222  14.158 -0.0408  0.5641  0.4305
 7442TIP3   OH243816   6.075   6.704   1.838 -0.3262  0.0389 -0.0351
 7442TIP3    H143817   6.035   6.660   1.914 -0.0616 -3.3268 -1.6831
 7442TIP3    H243818   6.166   6.676   1.839 -0.0472  0.8599 -0.9906
 7443TIP3   OH243819   4.092   6.168   3.658 -0.5474  0.4418  0.2908
 7443TIP3    H143820   4.099   6.100   3.725  1.0344 -1.6015 -1.7799
 7443TIP3    H243821   4.178   6.210   3.657 -0.0172 -0.6044 -1.4386
 7444TIP3   OH243822   1.397   4.722  16.709 -0.7969  0.1059 -0.3151
 7444TIP3    H143823   1.398   4.631  16.738  1.7760  0.7205  1.9306
 7444TIP3    H243824   1.444   4.720  16.625 -1.0579 -0.6450 -0.4538
 7445TIP3   OH243825   5.637   2.972  10.733 -0.1529  0.2750 -0.2221
 7445TIP3    H143826   5.728   2.945  10.720 -0.4471 -0.7623 -0.1818
 7445TIP3    H243827   5.618   2.947  10.824 -1.0901 -1.3985 -0.8312
 7446TIP3   OH243828   5.512   2.811   0.065  0.4900 -0.0753 -0.0388
 7446TIP3    H143829   5.505   2.804   0.160  1.3759 -1.3357 -0.0433
 7446TIP3    H243830   5.584   2.871   0.050  0.9850 -0.6223  0.1072
 7447TIP3   OH243831   3.555   4.498  15.841 -0.2567 -0.2909  0.2219
 7447TIP3    H143832   3.602   4.559  15.784 -1.5445 -0.0797 -0.6622
 7447TIP3    H243833   3.489   4.458  15.784 -1.2142 -0.4964  1.4359
 7448TIP3   OH243834   6.094   4.735   5.418  0.6161  0.0038  0.1853
 7448TIP3    H143835   6.123   4.662   5.364 -0.4194 -0.6948  0.5395
 7448TIP3    H243836   6.009   4.759   5.382 -0.1230 -0.5096  1.5094
 7449TIP3   OH243837   4.175   6.034  11.343  0.5012  0.1184 -0.0111
 7449TIP3    H143838   4.203   6.114  11.388  0.1262  0.4336 -0.3333
 7449TIP3    H243839   4.199   6.047  11.252  1.3388 -0.5618  0.0944
 7450TIP3   OH243840   4.887   6.060   5.574  0.4636 -0.4899  0.0607
 7450TIP3    H143841   4.954   6.098   5.518  1.1095 -1.1742  0.3550
 7450TIP3    H243842   4.828   6.132   5.594  1.9452  0.4906  1.0333
 7451TIP3   OH243843   5.232   2.499   5.072 -0.7020 -0.4520  0.8265
 7451TIP3    H143844   5.313   2.517   5.024 -0.4447 -2.6836  0.2784
 7451TIP3    H243845   5.182   2.580   5.067  0.5527  0.2906 -0.7331
 7452TIP3   OH243846   5.404   1.696  15.306  0.1558  0.0093  0.2640
 7452TIP3    H143847   5.395   1.751  15.383  1.2524  0.9048 -0.2189
 7452TIP3    H243848   5.498   1.700  15.284  0.2593 -1.9384  0.1264
 7453TIP3   OH243849   2.749   0.712  15.149  0.0647 -0.0287  0.8949
 7453TIP3    H143850   2.703   0.630  15.164 -0.0601 -0.8702 -3.1021
 7453TIP3    H243851   2.698   0.778  15.196 -1.3630 -1.8487  1.9907
 7454TIP3   OH243852   3.244   1.031  13.390 -0.1489  0.3301  0.0843
 7454TIP3    H143853   3.307   0.988  13.332 -2.1360 -0.6167 -1.5181
 7454TIP3    H243854   3.289   1.038  13.474  1.9943 -0.4427 -0.9226
 7455TIP3   OH243855   5.825   5.145  14.505  0.5452 -0.1141  0.0566
 7455TIP3    H143856   5.880   5.213  14.466 -0.1155  0.7139  0.5162
 7455TIP3    H243857   5.754   5.194  14.547 -1.0409 -1.1804 -1.2594
 7456TIP3   OH243858   6.818   1.991   1.178  0.2601  0.0718 -0.4388
 7456TIP3    H143859   6.781   1.981   1.266 -1.2598  0.7529 -0.9557
 7456TIP3    H243860   6.744   2.022   1.125  1.2554  0.0912 -1.8624
 7457TIP3   OH243861   3.802   6.119   4.008 -0.1730 -0.1734 -0.1416
 7457TIP3    H143862   3.789   6.184   4.077 -0.0858  0.0453 -0.3316
 7457TIP3    H243863   3.751   6.152   3.934  0.2838 -0.0593 -0.4068
 7458TIP3   OH243864   6.293   5.806  16.337 -0.0588  0.2238  0.0623
 7458TIP3    H143865   6.386   5.821  16.322 -0.2803 -0.5784 -2.6581
 7458TIP3    H243866   6.290   5.745  16.411  1.4413  1.5501  1.2797
 7459TIP3   OH243867   1.976   3.765  11.093 -0.6221 -0.0183 -0.6044
 7459TIP3    H143868   1.993   3.740  11.002  0.1332 -1.2533 -0.1389
 7459TIP3    H243869   2.058   3.749  11.139 -0.9061  0.8661  0.2642
 7460TIP3   OH243870   2.814   6.015   4.986 -0.0182 -0.3975 -0.1514
 7460TIP3    H143871   2.727   5.995   4.951 -0.0155 -0.0398 -0.3712
 7460TIP3    H243872   2.871   6.020   4.909  0.0620  0.0302 -0.0687
 7461TIP3   OH243873   0.812   0.828  10.900 -0.1571  0.4089  0.0681
 7461TIP3    H143874   0.814   0.802  10.808 -2.4375 -0.5885  0.2392
 7461TIP3    H243875   0.903   0.848  10.921  0.6843 -1.0188 -1.9207
 7462TIP3   OH243876   6.554   5.444   3.164 -0.1496  0.1930 -0.2643
 7462TIP3    H143877   6.507   5.397   3.095 -0.9344  0.1803  0.2645
 7462TIP3    H243878   6.497   5.517   3.187  0.0389  0.1246  0.4554
 7463TIP3   OH243879   4.346   1.529   2.059  0.4185 -0.2574 -0.4005
 7463TIP3    H143880   4.426   1.560   2.017 -0.1983  0.3267 -1.1802
 7463TIP3    H243881   4.375   1.490   2.141  1.2587  2.9318  0.9748
 7464TIP3   OH243882   1.163   3.308  12.618  0.3358  0.3825 -0.1433
 7464TIP3    H143883   1.215   3.229  12.600 -1.0942 -0.2829 -1.5510
 7464TIP3    H243884   1.076   3.275  12.641 -0.0832  1.5406 -0.0287
 7465TIP3   OH243885   3.801   3.962  12.513  0.1009 -0.2770  0.2191
 7465TIP3    H143886   3.820   3.935  12.423 -0.2117 -0.6187  0.2527
 7465TIP3    H243887   3.793   4.057  12.509  3.5828  0.1515  0.5181
 7466TIP3   OH243888   1.932   5.543  10.958  0.1574  0.4869  0.1952
 7466TIP3    H143889   1.981   5.474  10.913 -0.2511 -1.4086  2.5120
 7466TIP3    H243890   1.860   5.564  10.898  0.1168 -1.3185 -0.4475
 7467TIP3   OH243891   3.419   5.480   4.414  1.3419  0.4953 -0.1150
 7467TIP3    H143892   3.355   5.478   4.343  1.1333  0.5655  0.0703
 7467TIP3    H243893   3.504   5.477   4.370  1.2103  0.1224 -0.3522
 7468TIP3   OH243894   6.601   4.735   4.041 -0.0680  0.0450  0.1217
 7468TIP3    H143895   6.592   4.648   4.080 -0.9065 -0.4514 -1.1174
 7468TIP3    H243896   6.574   4.723   3.950  0.6826  1.4176 -0.3065
 7469TIP3   OH243897   5.795   1.431  13.616 -0.1168 -0.6614  0.3032
 7469TIP3    H143898   5.726   1.443  13.551 -0.7997  1.7553  1.3666
 7469TIP3    H243899   5.822   1.339  13.607  0.8575 -0.1659 -4.3976
 7470TIP3   OH243900   1.360   2.987  15.669  0.1014 -0.7469 -0.0042
 7470TIP3    H143901   1.347   2.916  15.606  1.1248 -1.8590  0.9881
 7470TIP3    H243902   1.352   2.945  15.754  0.1416  0.4629  0.6125
 7471TIP3   OH243903   0.436   1.133   4.984  0.3000  0.7469 -0.2937
 7471TIP3    H143904   0.441   1.119   5.079  0.5033  1.4267 -0.1993
 7471TIP3    H243905   0.345   1.114   4.961  0.7756 -1.8668 -0.3787
 7472TIP3   OH243906   6.414   6.659   4.573 -0.3170  0.5506 -0.1770
 7472TIP3    H143907   6.331   6.619   4.598 -0.4468 -0.4810 -2.0737
 7472TIP3    H243908   6.393   6.713   4.498  0.5345  1.2302  0.0601
 7473TIP3   OH243909   4.230   1.599  15.585  0.3687  0.2291 -0.0148
 7473TIP3    H143910   4.302   1.541  15.560  0.1450 -0.2044  0.3285
 7473TIP3    H243911   4.156   1.540  15.602 -0.1540  0.6861 -0.6508
 7474TIP3   OH243912   1.000   3.396  12.063 -0.6151  0.4181  0.5604
 7474TIP3    H143913   1.074   3.399  12.003 -1.4455  1.1221 -0.4626
 7474TIP3    H243914   0.979   3.487  12.080  0.5580  0.2937  3.1985
 7475TIP3   OH243915   3.828   4.913   1.867 -0.0316 -0.1746  0.2064
 7475TIP3    H143916   3.899   4.850   1.883  1.5299  1.3683 -0.3246
 7475TIP3    H243917   3.791   4.886   1.782  1.5808  0.4181 -0.7256
 7476TIP3   OH243918   0.474   5.703  11.514 -0.1825  0.6614 -0.1499
 7476TIP3    H143919   0.439   5.630  11.565  0.0331  0.9040  0.3493
 7476TIP3    H243920   0.511   5.762  11.579 -0.2605  1.1674 -0.5597
 7477TIP3   OH243921   0.285   3.392   2.010  0.2871  0.7066  0.0006
 7477TIP3    H143922   0.354   3.396   1.945 -0.1822  3.6497 -0.4461
 7477TIP3    H243923   0.210   3.436   1.969 -0.9921 -0.0289  1.4399
 7478TIP3   OH243924   0.127   3.906   2.961  0.1814 -0.2942  0.0128
 7478TIP3    H143925   0.072   3.983   2.946  3.1524  1.6956 -1.7136
 7478TIP3    H243926   0.087   3.838   2.906 -2.7839 -0.2776  1.9447
 7479TIP3   OH243927   6.216   0.459  14.351  0.4988 -0.3393 -0.5514
 7479TIP3    H143928   6.306   0.480  14.375  0.7347 -0.0766 -1.6477
 7479TIP3    H243929   6.211   0.364  14.360  1.5259 -0.6319 -2.4971
 7480TIP3   OH243930   3.572   0.125  11.979  0.3897  0.3649 -0.7599
 7480TIP3    H143931   3.560   0.090  12.067  1.8186  1.1098 -0.2421
 7480TIP3    H243932   3.653   0.085  11.948  0.0781  0.3691 -1.6205
 7481TIP3   OH243933   0.013   1.269   2.094  0.3069  0.3247  0.6463
 7481TIP3    H143934   0.014   1.335   2.025  0.4895 -1.1476 -0.8030
 7481TIP3    H243935  -0.080   1.255   2.113  0.2656  0.9584  0.9442
 7482TIP3   OH243936   6.065   4.216   0.935 -0.2181 -0.3872  0.0802
 7482TIP3    H143937   6.026   4.226   0.848  0.9887  0.8120 -0.3523
 7482TIP3    H243938   6.049   4.300   0.978  0.9302 -0.2547  0.2809
 7483TIP3   OH243939   3.582   5.682  11.857 -0.1337 -0.3226 -0.1519
 7483TIP3    H143940   3.552   5.760  11.812  0.3364  1.3267  2.1844
 7483TIP3    H243941   3.504   5.645  11.898 -0.2778 -0.8609 -0.8830
 7484TIP3   OH243942   4.095   4.822  16.246 -0.0359  0.5268  0.1594
 7484TIP3    H143943   4.064   4.837  16.336  0.1038 -0.4133  0.3751
 7484TIP3    H243944   4.026   4.769  16.206  0.6962 -0.5603  0.2738
 7485TIP3   OH243945   3.095   1.027  13.741  0.1382 -0.0305  0.2465
 7485TIP3    H143946   3.060   0.939  13.754  1.1275 -0.4394  0.2471
 7485TIP3    H243947   3.091   1.069  13.827  0.6555 -0.4597  0.4874
 7486TIP3   OH243948   4.200   3.952   5.069  0.4235 -0.1652  0.0899
 7486TIP3    H143949   4.240   4.033   5.099 -2.6432  1.0067  1.4237
 7486TIP3    H243950   4.127   3.937   5.130  0.1540 -3.2990 -0.8235
 7487TIP3   OH243951   0.682   2.162   6.078  0.5099  0.5679 -0.2192
 7487TIP3    H143952   0.662   2.073   6.105 -1.0829  0.5662 -1.2793
 7487TIP3    H243953   0.778   2.167   6.079  0.6152 -1.1120 -0.0337
 7488TIP3   OH243954   3.773   6.328   6.129  0.1438  0.5113 -0.2668
 7488TIP3    H143955   3.769   6.232   6.128  0.8159  0.4642  0.8798
 7488TIP3    H243956   3.690   6.355   6.089 -0.4514 -0.5449  0.2094
 7489TIP3   OH243957   4.502   6.644   1.359  0.4646  0.1861  0.2116
 7489TIP3    H143958   4.450   6.564   1.362  1.7774 -0.6738  1.1150
 7489TIP3    H243959   4.492   6.677   1.270 -0.2802 -0.8551 -0.0934
 7490TIP3   OH243960   1.261   1.478   3.080  0.1121 -0.6127 -0.1841
 7490TIP3    H143961   1.179   1.460   3.125  0.4022 -0.6055  0.3559
 7490TIP3    H243962   1.297   1.392   3.059  0.3269 -0.6307  0.2473
 7491TIP3   OH243963   1.767   6.123  16.311 -1.2861  0.4709 -0.6705
 7491TIP3    H143964   1.782   6.084  16.398  2.9563 -0.7848 -1.7311
 7491TIP3    H243965   1.826   6.197  16.307  0.3901 -0.8495 -3.1668
 7492TIP3   OH243966   2.281   6.674  17.090  0.2518  0.1122 -0.1529
 7492TIP3    H143967   2.319   6.587  17.086  1.6877  0.6542  0.9829
 7492TIP3    H243968   2.198   6.663  17.137  0.6592 -0.5696  0.4097
 7493TIP3   OH243969   5.310   1.912   5.035 -0.7503 -0.2721 -0.1774
 7493TIP3    H143970   5.229   1.958   5.056 -1.2168 -0.8439 -0.6775
 7493TIP3    H243971   5.293   1.872   4.949  0.5091  0.6563 -0.8874
 7494TIP3   OH243972   4.663   3.357   4.682 -0.0417 -0.3466  0.7958
 7494TIP3    H143973   4.723   3.429   4.699  0.2795 -0.2895 -0.4832
 7494TIP3    H243974   4.576   3.393   4.698  0.1617  0.0771  0.9564
 7495TIP3   OH243975   2.525   3.319   1.410 -0.3003 -0.1150  0.5918
 7495TIP3    H143976   2.433   3.307   1.433 -0.3956 -2.0431 -0.5295
 7495TIP3    H243977   2.569   3.335   1.494 -1.8421  2.8246  0.9584
 7496TIP3   OH243978   0.951   3.363   2.360  0.0734 -0.3319 -0.0892
 7496TIP3    H143979   0.998   3.359   2.276  1.0948  0.0189  0.4467
 7496TIP3    H243980   1.016   3.334   2.425 -0.9143 -1.2658  0.5106
 7497TIP3   OH243981   6.217   1.835   5.716 -0.6546 -0.2373 -0.3853
 7497TIP3    H143982   6.245   1.759   5.665  0.4557 -1.5017  1.9555
 7497TIP3    H243983   6.293   1.892   5.719 -0.2922 -0.7511  0.8109
 7498TIP3   OH243984   5.611   3.357  11.140 -0.7990  0.0245 -0.3234
 7498TIP3    H143985   5.533   3.382  11.190  1.2652  2.3603  1.9928
 7498TIP3    H243986   5.683   3.367  11.202  1.9060  2.4150 -3.5301
 7499TIP3   OH243987   5.226   3.414  16.314  0.4426 -0.1986  0.1502
 7499TIP3    H143988   5.238   3.450  16.402  0.6342  0.8700 -0.2949
 7499TIP3    H243989   5.287   3.340  16.309  0.2380 -0.4335  0.9925
 7500TIP3   OH243990   6.280   5.199   2.009  0.2296 -0.0688  0.8967
 7500TIP3    H143991   6.362   5.213   2.057  0.4564  0.0478  0.4770
 7500TIP3    H243992   6.308   5.165   1.924 -0.1525  0.1031  0.7017
 7501TIP3   OH243993   3.299   2.402   1.722  0.0542 -0.3889  0.0647
 7501TIP3    H143994   3.217   2.377   1.681 -1.2555  1.8219  1.1420
 7501TIP3    H243995   3.341   2.461   1.660 -0.5687  0.7064  0.6495
 7502TIP3   OH243996   1.929   6.214   2.307 -0.4943  0.0695 -0.0423
 7502TIP3    H143997   2.005   6.258   2.345  0.1870 -1.4565  0.4442
 7502TIP3    H243998   1.917   6.256   2.222  1.3132 -0.0664 -0.4064
 7503TIP3   OH243999   5.502   3.264   1.117  0.3791  0.1965  0.6089
 7503TIP3    H144000   5.574   3.201   1.127 -0.2997 -0.9152 -1.0453
 7503TIP3    H244001   5.451   3.230   1.044 -0.7279  2.0317  0.4708
 7504TIP3   OH244002   1.892   1.826  13.185  0.1247 -0.1680  0.2102
 7504TIP3    H144003   1.865   1.817  13.276 -0.6492  1.8579  0.2288
 7504TIP3    H244004   1.918   1.737  13.159  1.3411 -0.6237  2.6696
 7505TIP3   OH244005   4.273   5.316  16.550  0.0763 -0.6110 -0.6513
 7505TIP3    H144006   4.263   5.399  16.596  0.4918 -1.8338  1.8007
 7505TIP3    H244007   4.336   5.334  16.481  1.4102  0.7600  0.8404
 7506TIP3   OH244008   3.374   5.452  13.026 -0.0111  0.1071 -0.4283
 7506TIP3    H144009   3.422   5.477  12.947  1.5851 -0.7846  0.1946
 7506TIP3    H244010   3.294   5.411  12.994  1.4036 -1.8505 -1.7083
 7507TIP3   OH244011   0.104   5.811  13.528  0.1519  0.4677 -0.6400
 7507TIP3    H144012   0.157   5.890  13.520  1.4531 -0.2053  0.7863
 7507TIP3    H244013   0.084   5.805  13.621 -0.4515 -0.5619 -0.8188
 7508TIP3   OH244014   6.297   4.248  14.144 -0.4028  0.0873  0.0218
 7508TIP3    H144015   6.238   4.204  14.205  0.0582 -0.3780  0.1341
 7508TIP3    H244016   6.274   4.212  14.059 -1.1830  0.8829 -0.1179
 7509TIP3   OH244017   1.722   5.057   1.863 -0.3436 -0.5489 -0.5066
 7509TIP3    H144018   1.715   5.151   1.850  2.5519 -0.0273  0.8651
 7509TIP3    H244019   1.635   5.030   1.892 -0.8270  2.0190  0.7408
 7510TIP3   OH244020   4.246   5.455   3.891 -0.0297 -0.0767 -0.6294
 7510TIP3    H144021   4.157   5.432   3.919  0.1901  0.9117  1.0758
 7510TIP3    H244022   4.300   5.381   3.920 -0.1155 -0.0264 -0.3294
 7511TIP3   OH244023   2.555   4.296  14.174 -0.2127  0.1870 -0.0132
 7511TIP3    H144024   2.569   4.337  14.089 -1.8051 -2.4019 -1.6240
 7511TIP3    H244025   2.469   4.328  14.202  0.4019  1.2104  0.8088
 7512TIP3   OH244026   4.469   4.305  10.222  0.4096  0.0460 -0.0787
 7512TIP3    H144027   4.434   4.276  10.306 -1.2931  2.0444 -0.0164
 7512TIP3    H244028   4.563   4.319  10.238  0.0942  0.4509  1.5057
 7513TIP3   OH244029   1.396   2.109   3.236  0.0199  0.3015 -0.0803
 7513TIP3    H144030   1.375   2.126   3.327  0.5905  1.9715 -0.2290
 7513TIP3    H244031   1.483   2.069   3.238  0.1059  0.5009  0.0933
 7514TIP3   OH244032   5.611   3.926   1.533  0.2534 -0.0119  0.4363
 7514TIP3    H144033   5.691   3.968   1.501 -0.4076 -0.9392 -2.7329
 7514TIP3    H244034   5.547   3.940   1.464 -1.3091 -2.2838  1.2932
 7515TIP3   OH244035   3.461   0.251   5.638 -0.1909 -0.7207 -0.4916
 7515TIP3    H144036   3.496   0.169   5.671 -1.0746 -1.7203 -1.9595
 7515TIP3    H244037   3.372   0.255   5.675  0.3223  0.3090  0.7277
 7516TIP3   OH244038   2.099   4.329  12.207  0.6807  0.1542  0.1089
 7516TIP3    H144039   2.127   4.276  12.132  1.8350  1.5141 -0.4817
 7516TIP3    H244040   2.097   4.418  12.173  0.9808  0.7742  1.6374
 7517TIP3   OH244041   1.895   2.629  13.864 -0.5161  0.1984 -0.1142
 7517TIP3    H144042   1.942   2.610  13.944 -0.8775  0.7025  0.2257
 7517TIP3    H244043   1.805   2.602  13.882 -0.1379 -2.1024 -1.2399
 7518TIP3   OH244044   0.169   5.703   0.406 -0.1486 -0.2221 -0.5574
 7518TIP3    H144045   0.263   5.699   0.388 -0.3090  0.2139 -1.5375
 7518TIP3    H244046   0.128   5.675   0.325 -0.8695 -0.9942  0.0601
 7519TIP3   OH244047   1.322   1.183  13.491 -0.1474  0.2143  0.2128
 7519TIP3    H144048   1.363   1.103  13.523  0.3259  0.5926  0.5428
 7519TIP3    H244049   1.394   1.244  13.478 -0.4358  0.3852 -0.6456
 7520TIP3   OH244050   2.021   2.591   5.313  0.2568  0.4244  0.1455
 7520TIP3    H144051   2.032   2.620   5.222  2.6814 -0.8854 -0.0632
 7520TIP3    H244052   1.941   2.539   5.313  3.0926 -4.8136 -2.8650
 7521TIP3   OH244053   0.851   1.736  11.463 -0.4874  0.0224  0.2238
 7521TIP3    H144054   0.929   1.768  11.419  0.3454 -0.2026  1.4755
 7521TIP3    H244055   0.818   1.811  11.512 -0.8054 -0.0033  0.0567
 7522TIP3   OH244056   5.487   3.913   5.709  0.1396  0.3754 -0.2473
 7522TIP3    H144057   5.530   3.987   5.666  4.6818 -2.8967 -2.1701
 7522TIP3    H244058   5.433   3.874   5.640 -1.8967  1.5300  0.6321
 7523TIP3   OH244059   0.203   1.373   4.933  1.0448 -0.3386  1.0828
 7523TIP3    H144060   0.235   1.283   4.923 -0.4125 -0.8030  0.2263
 7523TIP3    H244061   0.246   1.405   5.012  2.1707 -1.5229  0.9960
 7524TIP3   OH244062   6.167   6.503   0.675 -0.3616 -0.2280 -0.3082
 7524TIP3    H144063   6.100   6.496   0.742  0.1465 -1.1997  0.1171
 7524TIP3    H244064   6.234   6.559   0.714  0.1956 -1.2477  0.2422
 7525TIP3   OH244065   3.027   0.258   1.213  0.0315 -0.1803  0.1638
 7525TIP3    H144066   2.981   0.256   1.129  3.2042  0.5575 -1.7296
 7525TIP3    H244067   3.005   0.344   1.249  0.6031  0.5367 -1.1375
 7526TIP3   OH244068   2.884   3.815   5.430 -0.0620  0.3497 -0.1366
 7526TIP3    H144069   2.832   3.866   5.491  1.1057  2.9871 -1.1997
 7526TIP3    H244070   2.941   3.762   5.486  0.1975  1.8594  1.1027
 7527TIP3   OH244071   4.515   4.291   0.039 -0.2390  0.4432  0.0660
 7527TIP3    H144072   4.555   4.263   0.121 -1.8451  0.1967  0.8018
 7527TIP3    H244073   4.466   4.370   0.063 -0.2257  0.7184 -0.7996
 7528TIP3   OH244074   3.429   3.102  13.073 -0.1619 -0.2835  0.3867
 7528TIP3    H144075   3.504   3.152  13.041  1.3335  0.1899  4.1481
 7528TIP3    H244076   3.378   3.164  13.124 -1.3176 -1.3955  0.6592
 7529TIP3   OH244077   4.902   5.875  12.717 -0.5136 -0.0823  0.5732
 7529TIP3    H144078   4.909   5.785  12.748  0.8522  0.0234  0.5963
 7529TIP3    H244079   4.939   5.927  12.787  0.0342  0.3835 -0.0535
 7530TIP3   OH244080   5.081   5.461   2.485  0.3819  0.2357  0.6897
 7530TIP3    H144081   5.128   5.421   2.558  0.0162  1.2995  1.5397
 7530TIP3    H244082   4.989   5.449   2.506  0.2230 -1.6575 -0.8684
 7531TIP3   OH244083   6.272   4.383  15.671 -0.5363 -0.3242 -0.6548
 7531TIP3    H144084   6.280   4.345  15.758 -0.1591 -0.1510 -0.6098
 7531TIP3    H244085   6.178   4.382  15.652 -0.6699  0.0514 -0.0581
 7532TIP3   OH244086   3.178   1.895   5.945 -0.1428 -0.4317  0.0467
 7532TIP3    H144087   3.163   1.801   5.936  0.2393 -0.4067 -0.9298
 7532TIP3    H244088   3.259   1.901   5.996  1.2214 -0.6928 -1.9879
 7533TIP3   OH244089   3.311   3.677  11.930 -0.3567  0.1965  0.2340
 7533TIP3    H144090   3.254   3.751  11.908 -0.9898 -1.1764 -3.3440
 7533TIP3    H244091   3.258   3.600  11.913  1.7895 -1.1036 -1.0109
 7534TIP3   OH244092   1.359   6.116   0.265  0.4671 -0.2082 -0.2528
 7534TIP3    H144093   1.342   6.128   0.359 -2.1623 -0.1611 -0.6501
 7534TIP3    H244094   1.319   6.032   0.245  1.5956 -0.5290 -1.2291
 7535TIP3   OH244095   6.065   0.472   3.513  0.5219 -0.3016 -0.6866
 7535TIP3    H144096   6.061   0.509   3.601 -0.4469  0.3045 -0.9741
 7535TIP3    H244097   6.127   0.399   3.520  1.1705  0.3286  0.2722
 7536TIP3   OH244098   6.215   5.874  10.914  0.5792 -0.2293 -0.4060
 7536TIP3    H144099   6.138   5.928  10.934  1.1078 -0.0996  1.4925
 7536TIP3    H244100   6.290   5.930  10.936  1.2457 -0.4418 -1.9997
 7537TIP3   OH244101   6.287   5.188  13.019 -0.6680  0.3771 -0.3290
 7537TIP3    H144102   6.283   5.138  13.101 -0.3266  0.1463 -0.4463
 7537TIP3    H244103   6.318   5.275  13.045  1.6506 -0.3276 -0.4452
 7538TIP3   OH244104   1.394   1.365  17.065  0.1506  0.1146 -0.2137
 7538TIP3    H144105   1.464   1.306  17.037  0.2704  0.3931 -0.5160
 7538TIP3    H244106   1.405   1.443  17.010 -1.1888 -0.3408 -1.1931
 7539TIP3   OH244107   2.664   4.360  11.536 -0.0135 -0.2938 -0.6548
 7539TIP3    H144108   2.645   4.452  11.554  0.6589 -0.0930 -0.9465
 7539TIP3    H244109   2.591   4.313  11.574 -0.9310  0.4338 -1.4580
 7540TIP3   OH244110   6.108   6.601   0.326 -0.0896  0.4291  0.6145
 7540TIP3    H144111   6.160   6.528   0.358  0.4036  0.7119  0.4638
 7540TIP3    H244112   6.018   6.579   0.351  0.1573  0.1596  1.2828
 7541TIP3   OH244113   1.525   5.336  15.830  0.1346 -0.0589  0.1877
 7541TIP3    H144114   1.481   5.406  15.879 -0.6261 -1.7201  1.9894
 7541TIP3    H244115   1.536   5.265  15.893 -1.4741 -2.6198 -2.1752
 7542TIP3   OH244116   2.774   1.538   5.191 -0.0140 -0.7118 -0.3552
 7542TIP3    H144117   2.701   1.573   5.242  0.6543 -0.7652  0.6669
 7542TIP3    H244118   2.822   1.615   5.163 -0.3969 -0.6813 -0.9307
 7543TIP3   OH244119   5.753   4.306  12.150 -0.4807 -0.5247  0.2491
 7543TIP3    H144120   5.678   4.329  12.095 -1.7425 -1.9416  1.2625
 7543TIP3    H244121   5.751   4.371  12.220  0.1781  0.3443 -0.5207
 7544TIP3   OH244122   3.736   1.363   4.153 -0.3503  0.6059  0.8297
 7544TIP3    H144123   3.811   1.304   4.146 -0.1551  0.9973 -0.9608
 7544TIP3    H244124   3.743   1.401   4.240 -0.8521 -2.4336  2.3286
 7545TIP3   OH244125   2.954   4.466   3.319  0.2581  0.8886 -0.4251
 7545TIP3    H144126   2.985   4.520   3.392  1.3891 -0.3489  0.0438
 7545TIP3    H244127   2.859   4.465   3.329  0.2999  1.8047  0.2552
 7546TIP3   OH244128   6.414   6.841  12.581  0.4430  0.6155 -0.2153
 7546TIP3    H144129   6.349   6.845  12.512 -1.4484 -2.9458  1.1134
 7546TIP3    H244130   6.368   6.868  12.660  0.6577 -1.3600  0.6465
 7547TIP3   OH244131   0.886   6.345  15.413 -0.1654 -0.1862 -0.3105
 7547TIP3    H144132   0.922   6.383  15.333  0.3974  0.2208  0.1293
 7547TIP3    H244133   0.827   6.412  15.447 -0.5437 -0.4320 -0.4780
 7548TIP3   OH244134   6.533   0.467  13.158  0.3548 -0.2459 -0.2849
 7548TIP3    H144135   6.516   0.559  13.176  0.8674 -0.4151  1.1909
 7548TIP3    H244136   6.624   0.464  13.128  0.6799 -0.3794  0.6902
 7549TIP3   OH244137   4.959   3.410  13.805  0.5062 -0.0242  0.2161
 7549TIP3    H144138   5.049   3.438  13.787  0.5514  1.3439  2.2113
 7549TIP3    H244139   4.907   3.490  13.799 -0.2898 -0.4891  0.7133
 7550TIP3   OH244140   6.145   5.276  16.349  0.4061  0.1130  0.2024
 7550TIP3    H144141   6.155   5.256  16.256 -0.7430  1.2022 -0.1946
 7550TIP3    H244142   6.231   5.305  16.377  0.6909  0.0772 -0.6060
 7551TIP3   OH244143   1.088   2.092   2.392  0.6343  0.6585  0.1672
 7551TIP3    H144144   1.076   2.013   2.339  1.4551  0.6727 -0.0514
 7551TIP3    H244145   1.165   2.073   2.446  1.3914  1.6524 -0.5325
 7552TIP3   OH244146   1.879   1.392  11.467 -0.0177 -0.1324 -0.1368
 7552TIP3    H144147   1.784   1.396  11.477 -0.1372 -1.8099 -0.2683
 7552TIP3    H244148   1.894   1.312  11.417  1.3023  1.6893 -2.8538
 7553TIP3   OH244149   3.823   2.673   5.601 -0.4751 -0.0827  0.5991
 7553TIP3    H144150   3.843   2.756   5.558  1.7149 -0.3532  0.9806
 7553TIP3    H244151   3.772   2.697   5.678  0.8791  1.0267  1.1878
 7554TIP3   OH244152   3.966   4.102   3.494  0.1840  0.3156  0.1772
 7554TIP3    H144153   3.967   4.190   3.532  0.5738  0.3687  0.0503
 7554TIP3    H244154   4.032   4.054   3.543 -0.4125 -0.0673  0.6120
 7555TIP3   OH244155   4.733   3.902  17.130 -0.0379  0.1336  0.6648
 7555TIP3    H144156   4.661   3.851  17.092 -0.1472  0.9473 -0.2541
 7555TIP3    H244157   4.794   3.914  17.058  0.6605  0.0969  1.2441
 7556TIP3   OH244158   0.924   3.160  12.626  0.0241  0.5561  0.6167
 7556TIP3    H144159   0.908   3.150  12.719 -1.8437 -0.5673  0.2112
 7556TIP3    H244160   0.925   3.071  12.591 -0.0764  0.9898 -0.5626
 7557TIP3   OH244161   5.072   5.326  14.872  0.7291  0.2520  0.3948
 7557TIP3    H144162   5.053   5.317  14.779  2.2017  2.3061 -0.2049
 7557TIP3    H244163   4.993   5.297  14.917 -0.5640  0.6058 -1.5504
 7558TIP3   OH244164   3.327   0.737  15.374  0.7250 -0.0501 -0.1817
 7558TIP3    H144165   3.236   0.737  15.345  0.5325 -0.8347  0.4113
 7558TIP3    H244166   3.323   0.723  15.468  1.4999 -1.2799 -0.3100
 7559TIP3   OH244167   3.641   4.019   1.490 -0.6912 -0.1618 -0.0070
 7559TIP3    H144168   3.581   3.976   1.430  2.4720 -1.9333 -2.2177
 7559TIP3    H244169   3.705   4.062   1.433  0.8634  0.5461  2.1460
 7560TIP3   OH244170   4.355   4.018  14.192  0.1823  0.3588  0.2998
 7560TIP3    H144171   4.341   4.106  14.155 -1.6642  0.3686  0.9028
 7560TIP3    H244172   4.272   3.973  14.176  0.6797 -0.8686  1.1080
 7561TIP3   OH244173   4.691   4.116   3.624  0.4371 -0.1026 -0.0232
 7561TIP3    H144174   4.780   4.084   3.637  0.2671  0.4455  3.1262
 7561TIP3    H244175   4.662   4.072   3.544  3.2174 -0.8934 -0.7384
 7562TIP3   OH244176   5.785   2.831  14.274  1.0189 -0.1468  0.3441
 7562TIP3    H144177   5.798   2.915  14.318  1.2272  0.3693 -0.6697
 7562TIP3    H244178   5.870   2.787  14.283  0.4226 -1.0034  2.3486
 7563TIP3   OH244179   1.743   5.617  16.284  0.1016 -0.4690  0.3251
 7563TIP3    H144180   1.745   5.676  16.209  0.8589  1.3179  1.6863
 7563TIP3    H244181   1.651   5.590  16.291  0.0353 -0.6857 -1.2379
 7564TIP3   OH244182   2.834   6.536  17.011  0.1696  0.0143 -0.2569
 7564TIP3    H144183   2.897   6.518  17.081 -1.1229  1.0284  1.2300
 7564TIP3    H244184   2.779   6.606  17.045 -2.0482 -1.1054 -1.3049
 7565TIP3   OH244185   3.429   3.237   0.704 -0.6477  0.7102  0.0356
 7565TIP3    H144186   3.367   3.310   0.707 -0.9167  0.5165 -0.6472
 7565TIP3    H244187   3.503   3.270   0.652 -1.3295  0.0973 -1.3813
 7566TIP3   OH244188   0.440   4.935  15.181 -0.1258  0.3661  0.7005
 7566TIP3    H144189   0.356   4.890  15.170 -0.4171  1.1910 -0.6293
 7566TIP3    H244190   0.501   4.889  15.123 -0.7329  2.3558 -1.6898
 7567TIP3   OH244191   6.130   0.552   0.434  0.1448  0.0440  0.3672
 7567TIP3    H144192   6.191   0.490   0.475 -0.5794 -1.2872 -0.4768
 7567TIP3    H244193   6.098   0.506   0.357 -0.7514  1.3354 -0.0634
 7568TIP3   OH244194   0.662   2.081  16.781 -0.3224 -0.1161 -0.2607
 7568TIP3    H144195   0.749   2.044  16.794 -0.3944 -0.2752 -0.2238
 7568TIP3    H244196   0.619   2.021  16.719 -0.4576 -0.1234 -0.1606
 7569TIP3   OH244197   3.048   2.928   1.720 -0.5241  0.1689 -0.6585
 7569TIP3    H144198   3.121   2.867   1.730 -0.3126  0.3705 -0.9619
 7569TIP3    H244199   2.993   2.889   1.653  0.2535  0.9180 -1.7584
 7570TIP3   OH244200   6.165   2.171  11.010 -0.3695 -0.4912  0.7822
 7570TIP3    H144201   6.079   2.194  11.044 -0.0264  0.8484  0.7859
 7570TIP3    H244202   6.204   2.255  10.984 -0.0637 -1.2893 -1.5892
 7571TIP3   OH244203   3.732   3.400   2.862 -0.0180  0.1801 -0.2129
 7571TIP3    H144204   3.704   3.454   2.936  0.2982  0.7960 -0.5429
 7571TIP3    H244205   3.651   3.382   2.814  0.0800  1.7490 -1.0264
 7572TIP3   OH244206   3.939   1.781  16.076 -0.1542 -0.1461 -0.1425
 7572TIP3    H144207   3.872   1.822  16.130  1.0763 -0.0235  1.3425
 7572TIP3    H244208   3.909   1.691  16.064 -0.0306 -0.4222  1.4782
 7573TIP3   OH244209   3.483   2.076   2.799  0.0903 -0.1544 -0.6089
 7573TIP3    H144210   3.394   2.099   2.773  0.2733  1.5171  0.1675
 7573TIP3    H244211   3.530   2.067   2.716 -0.5605 -0.0831 -0.9935
 7574TIP3   OH244212   4.833   4.926  11.755 -0.1982 -0.7890  0.8303
 7574TIP3    H144213   4.927   4.924  11.734 -0.5742 -0.1467 -1.1197
 7574TIP3    H244214   4.807   5.017  11.740 -1.2800 -1.1169  0.6483
 7575TIP3   OH244215   6.533   0.849   4.771 -0.0525  0.3224 -0.2964
 7575TIP3    H144216   6.528   0.763   4.813 -0.9023  0.9601  0.9824
 7575TIP3    H244217   6.519   0.831   4.678 -0.1667 -0.9244 -0.0585
 7576TIP3   OH244218   4.456   5.374   3.432  0.3858  0.0674  0.5296
 7576TIP3    H144219   4.376   5.349   3.386 -0.6062  2.5588  0.7144
 7576TIP3    H244220   4.521   5.384   3.362  0.0705 -0.3352  0.1741
 7577TIP3   OH244221   1.871   4.524  14.958  0.3398 -0.2224 -0.6355
 7577TIP3    H144222   1.843   4.435  14.939 -0.8725 -0.0422  0.1829
 7577TIP3    H244223   1.806   4.557  15.021  0.4029  1.4380 -1.3780
 7578TIP3   OH244224   1.311   3.546  12.698 -0.5027  0.0166  0.1872
 7578TIP3    H144225   1.245   3.479  12.714  1.6564 -2.1143  0.6970
 7578TIP3    H244226   1.311   3.598  12.779 -1.1415 -0.2993  0.4019
 7579TIP3   OH244227   2.542   1.324   3.661 -0.5269 -0.3276 -0.8655
 7579TIP3    H144228   2.606   1.328   3.590 -0.3200  1.6790 -0.6392
 7579TIP3    H244229   2.568   1.249   3.714  0.8952 -0.2960 -1.4867
 7580TIP3   OH244230   4.362   4.783  11.424 -0.5116 -0.3412  0.3807
 7580TIP3    H144231   4.389   4.743  11.507 -1.3586 -1.9413 -0.0695
 7580TIP3    H244232   4.416   4.741  11.358 -1.0636 -0.3812 -0.0600
 7581TIP3   OH244233   0.641   3.255  11.384  0.6726 -0.2014  0.2037
 7581TIP3    H144234   0.701   3.265  11.458 -1.2428  0.6190  1.7394
 7581TIP3    H244235   0.558   3.290  11.416 -0.0940  0.7681 -2.5547
 7582TIP3   OH244236   1.377   0.236  14.947 -0.2689 -0.4513  0.6439
 7582TIP3    H144237   1.373   0.141  14.946 -2.3196 -0.4218 -0.6681
 7582TIP3    H244238   1.321   0.262  15.020 -1.1905 -0.2675 -0.1026
 7583TIP3   OH244239   1.029   2.673  16.681 -0.0201 -0.1031  0.4552
 7583TIP3    H144240   0.942   2.680  16.642  1.2108  1.0563 -2.3914
 7583TIP3    H244241   1.029   2.738  16.752 -1.5183 -0.2825  0.6521
 7584TIP3   OH244242   1.088   2.882  14.805 -0.7280  0.2538  0.1653
 7584TIP3    H144243   1.167   2.839  14.772 -0.3789 -0.3203  1.6483
 7584TIP3    H244244   1.087   2.968  14.763  0.0985 -0.1480 -0.6931
 7585TIP3   OH244245   0.025   0.506  11.831 -0.2241  0.1141  0.3392
 7585TIP3    H144246   0.078   0.510  11.911  0.6451 -0.5689 -0.1803
 7585TIP3    H244247  -0.055   0.460  11.857  0.1917 -0.3968  0.7461
 7586TIP3   OH244248   4.942   3.664  16.753  0.3233 -0.6754 -0.7254
 7586TIP3    H144249   4.867   3.720  16.735  0.5180 -0.1977 -0.0758
 7586TIP3    H244250   5.010   3.694  16.692  0.7539  0.4746  0.2748
 7587TIP3   OH244251   4.085   2.431  14.021  0.1973  0.1883  0.0034
 7587TIP3    H144252   4.090   2.448  13.927  1.5393  1.5298  0.2803
 7587TIP3    H244253   4.175   2.441  14.052 -0.3197  0.3245  1.5183
 7588TIP3   OH244254   6.641   3.084  14.500 -0.2188  0.8372 -0.3847
 7588TIP3    H144255   6.651   3.156  14.438  0.0719  1.6350  0.5765
 7588TIP3    H244256   6.689   3.111  14.578  0.9079 -0.9049 -0.4183
 7589TIP3   OH244257   6.827   0.336  15.883  0.5857  0.1086  0.0683
 7589TIP3    H144258   6.858   0.369  15.967 -0.5384  0.6604  0.2810
 7589TIP3    H244259   6.733   0.354  15.883  0.8775  2.2594 -2.2494
 7590TIP3   OH244260   2.347   5.278  16.536  0.2347 -0.3405 -0.2367
 7590TIP3    H144261   2.263   5.308  16.503 -0.6748 -0.6860  1.6411
 7590TIP3    H244262   2.372   5.206  16.477 -1.2879 -0.8929 -0.2503
 7591TIP3   OH244263   1.228   1.063   0.639  0.1760  0.6451 -0.5698
 7591TIP3    H144264   1.137   1.059   0.667  0.5859 -0.5250  0.7442
 7591TIP3    H244265   1.224   1.080   0.545 -1.4563 -1.1734 -0.8968
 7592TIP3   OH244266   4.732   4.889  12.542  0.1076  0.1020 -0.4288
 7592TIP3    H144267   4.709   4.978  12.568 -1.0785 -0.0310 -0.9426
 7592TIP3    H244268   4.703   4.883  12.451 -0.8799 -1.1559 -0.0557
 7593TIP3   OH244269   0.594   4.960   4.795 -0.4301  0.5118  0.2025
 7593TIP3    H144270   0.607   5.008   4.713 -0.4161 -0.1790 -0.2117
 7593TIP3    H244271   0.662   4.893   4.795 -0.1454  0.7902  1.0085
 7594TIP3   OH244272   1.687   0.664   5.558 -0.2909 -0.6704  0.1401
 7594TIP3    H144273   1.617   0.690   5.618 -0.2260 -2.0098  0.8256
 7594TIP3    H244274   1.651   0.590   5.510  0.5438 -1.1550  0.2526
 7595TIP3   OH244275   6.327   2.593  17.025 -0.3883 -0.0598 -0.1606
 7595TIP3    H144276   6.328   2.616  16.932 -0.3013 -0.2317 -0.2017
 7595TIP3    H244277   6.235   2.602  17.050 -1.0212 -3.1840 -1.0364
 7596TIP3   OH244278   4.534   5.702   1.525  0.2692 -0.6721  0.6033
 7596TIP3    H144279   4.518   5.792   1.553 -0.2670 -0.0023 -1.6692
 7596TIP3    H244280   4.459   5.652   1.557 -0.3369  0.0550  0.3137
 7597TIP3   OH244281   2.450   4.556  12.500  0.2560 -0.1387  0.2973
 7597TIP3    H144282   2.536   4.580  12.464  0.2317  0.1288  0.4169
 7597TIP3    H244283   2.422   4.481  12.447 -0.1808  0.8104 -0.8401
 7598TIP3   OH244284   5.224   4.233   4.908  0.0142 -0.2611 -0.2012
 7598TIP3    H144285   5.133   4.221   4.937 -0.1410  1.1258 -0.0580
 7598TIP3    H244286   5.273   4.167   4.958 -0.8949 -0.9919 -0.2385
 7599TIP3   OH244287   0.937   5.446   6.633  0.6194  0.1632 -0.7668
 7599TIP3    H144288   0.905   5.374   6.578  1.0516 -0.8089  0.2134
 7599TIP3    H244289   0.952   5.518   6.572 -1.8716  0.1610 -1.4967
 7600TIP3   OH244290   2.820   1.984  11.638  0.2705  0.1069 -0.2701
 7600TIP3    H144291   2.776   2.069  11.648  1.2749  0.8098 -1.5392
 7600TIP3    H244292   2.853   1.984  11.548  0.4907 -1.5454 -0.2191
 7601TIP3   OH244293   1.469   2.126  12.551  0.4507  0.6538 -0.4423
 7601TIP3    H144294   1.487   2.162  12.464  1.9731  1.8789  0.3130
 7601TIP3    H244295   1.446   2.202  12.604  0.4512  0.0549  0.4398
 7602TIP3   OH244296   2.697   0.310   5.460  1.1278  0.2953  0.4471
 7602TIP3    H144297   2.701   0.265   5.545 -0.9457  0.9835  0.9692
 7602TIP3    H244298   2.742   0.393   5.474  0.0524  0.7810  1.1664
 7603TIP3   OH244299   4.010   6.808   3.727  0.0973  0.1831  0.3616
 7603TIP3    H144300   4.033   6.841   3.640 -1.4972  1.3847  0.3536
 7603TIP3    H244301   3.942   6.867   3.758 -0.8327 -1.4278  1.5737
 7604TIP3   OH244302   0.765   1.839  13.431 -0.3527  0.1920  0.6206
 7604TIP3    H144303   0.817   1.899  13.378 -0.2086 -1.2166 -0.9297
 7604TIP3    H244304   0.817   1.823  13.509  0.0871  1.2201  0.5523
 7605TIP3   OH244305   2.964   0.487   3.462  0.0167 -0.0753 -0.2670
 7605TIP3    H144306   3.031   0.556   3.454  0.6447 -0.6413  0.0424
 7605TIP3    H244307   2.987   0.424   3.394 -0.1027 -0.3517 -0.0487
 7606TIP3   OH244308   3.780   4.327  12.849 -0.6847 -0.1024  0.1168
 7606TIP3    H144309   3.866   4.319  12.889 -0.1990 -0.3461 -0.9280
 7606TIP3    H244310   3.776   4.418  12.818 -1.5384  0.4441  1.7305
 7607TIP3   OH244311   6.676   3.603  13.749 -0.0867  0.6149 -0.2370
 7607TIP3    H144312   6.744   3.635  13.689 -0.1993  2.5697  0.5844
 7607TIP3    H244313   6.626   3.540  13.698  1.1573  0.6012 -1.4825
 7608TIP3   OH244314   0.951   0.154   4.935 -0.0875  0.4294 -0.3004
 7608TIP3    H144315   0.962   0.150   4.840 -0.7981 -1.5001 -0.3302
 7608TIP3    H244316   0.905   0.237   4.950  1.4559  1.5763 -1.4454
 7609TIP3   OH244317   4.863   3.792  13.380 -0.1019 -0.3889 -0.5415
 7609TIP3    H144318   4.887   3.827  13.294 -1.1812 -0.0194 -0.7002
 7609TIP3    H244319   4.929   3.827  13.439  0.7365 -0.7533 -1.2243
 7610TIP3   OH244320   1.681   0.277  13.128  0.4370  0.2572  0.2330
 7610TIP3    H144321   1.617   0.290  13.058 -1.8130 -1.0529  1.9149
 7610TIP3    H244322   1.664   0.349  13.189 -1.3000 -1.4413  1.9065
 7611TIP3   OH244323   3.573   4.747  11.454  0.6061  0.2948  0.0545
 7611TIP3    H144324   3.594   4.837  11.428  0.9952  0.1732 -0.0517
 7611TIP3    H244325   3.484   4.753  11.490  0.6649  0.7376  0.1329
 7612TIP3   OH244326   2.258   1.414   5.033  0.3654  0.1960  0.4851
 7612TIP3    H144327   2.169   1.399   5.002  0.2613 -0.6727  1.1591
 7612TIP3    H244328   2.298   1.469   4.966 -0.0695 -0.9876 -0.8073
 7613TIP3   OH244329   4.375   1.696   4.375 -0.6316 -0.2761  0.2200
 7613TIP3    H144330   4.446   1.642   4.340  1.3808  2.6756 -0.5882
 7613TIP3    H244331   4.388   1.692   4.470  1.3353  1.0173  0.0555
 7614TIP3   OH244332   6.346   5.260  13.437 -0.0129  0.4713  0.5918
 7614TIP3    H144333   6.285   5.282  13.508  1.3590 -0.7186  2.2277
 7614TIP3    H244334   6.295   5.205  13.378 -0.4456 -0.9398  2.2000
 7615TIP3   OH244335   4.221   3.895  14.565 -0.0459  0.2036  0.1198
 7615TIP3    H144336   4.296   3.954  14.555  1.1218 -1.2713 -0.1200
 7615TIP3    H244337   4.212   3.885  14.660 -0.9442  1.5675  0.2135
 7616TIP3   OH244338   1.676   3.431   1.910  0.3173  0.2419  0.4338
 7616TIP3    H144339   1.737   3.443   1.837  2.8416  1.5938  2.6030
 7616TIP3    H244340   1.635   3.516   1.921 -1.3582 -0.4212 -0.4293
 7617TIP3   OH244341   3.286   5.616  12.623  0.2163  0.3967  0.0223
 7617TIP3    H144342   3.299   5.658  12.538  0.1560 -1.2326 -0.8469
 7617TIP3    H244343   3.202   5.648  12.654 -0.9977 -0.8698 -1.7698
 7618TIP3   OH244344   2.305   3.970   2.016 -0.5505 -0.0465  0.4831
 7618TIP3    H144345   2.379   3.920   2.049  1.1813  0.9446 -1.6087
 7618TIP3    H244346   2.277   3.921   1.938 -1.8865 -0.2133  1.0524
 7619TIP3   OH244347   2.202   3.718  13.787  0.5716  0.0743  0.7428
 7619TIP3    H144348   2.191   3.795  13.844  0.8575  0.5513  0.1607
 7619TIP3    H244349   2.288   3.683  13.811  0.2528 -0.3407  1.3234
 7620TIP3   OH244350   0.222   0.819  16.316  0.0413 -0.3347  0.1659
 7620TIP3    H144351   0.197   0.910  16.333  1.2503 -0.0224  0.4176
 7620TIP3    H244352   0.176   0.796  16.235 -0.0869  0.5884 -0.0348
 7621TIP3   OH244353   1.311   3.769  14.263  0.0547  0.4355 -0.1007
 7621TIP3    H144354   1.348   3.721  14.188  1.3188  3.3822 -1.5521
 7621TIP3    H244355   1.335   3.716  14.339  0.6327 -1.5999 -1.5991
 7622TIP3   OH244356   1.331   0.527   2.294 -0.1905 -0.1751  0.7609
 7622TIP3    H144357   1.365   0.617   2.286  0.6008 -0.4846  0.5438
 7622TIP3    H244358   1.403   0.472   2.264 -0.7825 -0.8752  0.6021
 7623TIP3   OH244359   4.755   5.088   3.057 -0.6808 -0.2373  0.0685
 7623TIP3    H144360   4.850   5.084   3.072 -0.7164  0.2073  0.4297
 7623TIP3    H244361   4.717   5.063   3.142 -0.8881  0.1213  0.0819
 7624TIP3   OH244362   1.557   2.029   2.004  0.1888 -0.0888 -0.4094
 7624TIP3    H144363   1.588   2.108   2.047 -0.3476  0.4640 -1.0107
 7624TIP3    H244364   1.596   2.032   1.917  1.9668 -1.6375  0.2709
 7625TIP3   OH244365   1.782   6.646  16.148  0.2813  0.5106 -0.1831
 7625TIP3    H144366   1.842   6.630  16.222 -0.8422  1.2230  0.9091
 7625TIP3    H244367   1.697   6.616  16.180 -0.2878  1.1584 -1.0644
 7626TIP3   OH244368   1.712   5.666   2.135  0.6013  0.2272  0.3026
 7626TIP3    H144369   1.617   5.663   2.137  0.4681  1.6955 -1.4292
 7626TIP3    H244370   1.737   5.714   2.214 -0.1841  1.0304  0.0756
 7627TIP3   OH244371   5.198   2.227   5.462 -0.2919  0.0000 -0.5510
 7627TIP3    H144372   5.169   2.252   5.374  0.5381  1.4276 -0.4542
 7627TIP3    H244373   5.116   2.220   5.512 -0.8990 -2.3193 -1.7351
 7628TIP3   OH244374   0.242   5.371   3.942  0.7916  0.3349 -0.7310
 7628TIP3    H144375   0.305   5.388   3.872 -1.4980  1.1199 -2.7314
 7628TIP3    H244376   0.171   5.323   3.899 -1.0240  1.4461  0.8872
 7629TIP3   OH244377   2.076   2.635   6.382  0.5913  0.3611  0.3963
 7629TIP3    H144378   2.160   2.680   6.379  0.5308  0.4225 -0.4358
 7629TIP3    H244379   2.043   2.652   6.471  1.7044 -0.1466  0.9299
 7630TIP3   OH244380   3.879   4.267  13.278 -0.5128 -0.0930 -0.0867
 7630TIP3    H144381   3.843   4.182  13.305  0.1198 -0.9780 -1.8826
 7630TIP3    H244382   3.930   4.297  13.353 -0.6572 -1.3627  0.5360
 7631TIP3   OH244383   4.142   3.688  16.597 -0.6516  0.2451  0.1445
 7631TIP3    H144384   4.177   3.771  16.631  0.7671 -0.1563 -0.2704
 7631TIP3    H244385   4.112   3.641  16.674 -2.1638  1.4239  0.3258
 7632TIP3   OH244386   5.778   1.890   3.531 -0.2240 -0.7557  0.1459
 7632TIP3    H144387   5.748   1.861   3.445  0.4892  3.5944 -1.8480
 7632TIP3    H244388   5.704   1.873   3.589 -1.9367 -1.1270 -2.0006
 7633TIP3   OH244389   4.575   0.653  14.477  0.3140  0.2652 -0.4482
 7633TIP3    H144390   4.595   0.578  14.421  2.9861  1.1014 -0.7734
 7633TIP3    H244391   4.588   0.729  14.420 -1.9934  1.0434 -0.0316
 7634TIP3   OH244392   6.620   1.759  15.248  0.1173 -0.2136 -0.2189
 7634TIP3    H144393   6.663   1.805  15.175 -1.1228 -0.1237 -0.9225
 7634TIP3    H244394   6.631   1.667  15.228  2.1772 -0.2788  0.9401
 7635TIP3   OH244395   0.247   2.662  13.905  0.1133  1.1234  0.0054
 7635TIP3    H144396   0.280   2.724  13.839 -1.1644  1.0607 -0.7414
 7635TIP3    H244397   0.317   2.598  13.916  0.3380  1.1039 -1.3735
 7636TIP3   OH244398   3.277   2.959   3.826 -0.1845  0.3472 -0.0477
 7636TIP3    H144399   3.332   2.928   3.754  0.9056 -0.9937  1.2972
 7636TIP3    H244400   3.326   2.937   3.905 -0.8173  2.7949  1.1267
 7637TIP3   OH244401   0.987   6.013   4.593  0.3727 -0.0868  0.4765
 7637TIP3    H144402   1.023   5.932   4.630  1.9536  0.1953 -0.3360
 7637TIP3    H244403   1.014   6.011   4.501 -0.9358  0.6187  0.0614
 7638TIP3   OH244404   1.173   1.887   5.651 -0.3163 -0.1766  0.5323
 7638TIP3    H144405   1.241   1.923   5.709  1.1113 -0.2148 -1.0540
 7638TIP3    H244406   1.138   1.813   5.700  2.7166 -1.8856  0.3584
 7639TIP3   OH244407   6.720   0.490   2.980 -0.1688  0.2392  0.7608
 7639TIP3    H144408   6.637   0.531   3.006 -0.2790  0.0206  0.7564
 7639TIP3    H244409   6.742   0.531   2.896  0.7010  1.6701  1.6667
 7640TIP3   OH244410   2.976   1.832  11.962  0.0702 -0.1310  0.2632
 7640TIP3    H144411   3.053   1.797  11.918  0.2375  3.0942 -2.4016
 7640TIP3    H244412   3.002   1.920  11.989 -2.8598  1.5075 -1.7011
 7641TIP3   OH244413   4.343   0.408   0.590  0.4176  0.3381 -0.5303
 7641TIP3    H144414   4.357   0.314   0.587  0.8111  0.4126 -1.0812
 7641TIP3    H244415   4.252   0.420   0.561 -0.5111 -0.0466  1.9246
 7642TIP3   OH244416   6.482   0.393  11.381 -0.1803  0.2090  0.7206
 7642TIP3    H144417   6.414   0.415  11.318  1.6751  1.3781 -1.0018
 7642TIP3    H244418   6.482   0.467  11.443 -0.7506 -0.0113  0.9867
 7643TIP3   OH244419   6.350   1.064  15.313 -0.2162 -0.3210 -0.8915
 7643TIP3    H144420   6.258   1.073  15.289 -0.0397 -0.8528 -1.8192
 7643TIP3    H244421   6.374   0.977  15.281  0.7804  0.0829 -1.2824
 7644TIP3   OH244422   3.890   1.757   3.733  0.9411 -0.4559 -0.0124
 7644TIP3    H144423   3.857   1.723   3.815  0.9959 -0.2181  0.1109
 7644TIP3    H244424   3.848   1.704   3.665  2.5130 -2.0866  0.2160
 7645TIP3   OH244425   2.210   1.860  11.829 -0.2336  0.3242  0.6466
 7645TIP3    H144426   2.119   1.836  11.810  0.2061 -1.6383  0.8121
 7645TIP3    H244427   2.206   1.904  11.914 -1.0792  0.6017  0.4706
 7646TIP3   OH244428   3.026   0.158  11.672  0.3925 -0.8975 -0.2091
 7646TIP3    H144429   3.110   0.201  11.656  0.6732 -1.4458 -0.2476
 7646TIP3    H244430   3.049   0.066  11.687 -0.2160 -1.0863 -0.4013
 7647TIP3   OH244431   2.150   3.659  14.107 -0.1089  0.1123  0.3515
 7647TIP3    H144432   2.245   3.676  14.106  0.2722 -1.2416 -3.0045
 7647TIP3    H244433   2.129   3.640  14.198  2.5146  1.9278  1.4626
 7648TIP3   OH244434   5.641   4.738  14.209 -0.0925  0.2332  0.0345
 7648TIP3    H144435   5.577   4.797  14.170 -1.1768 -1.0626 -0.1937
 7648TIP3    H244436   5.698   4.712  14.136 -0.7006 -0.3740 -0.2317
 7649TIP3   OH244437   0.951   3.244   5.448 -0.2925  0.4973 -0.3332
 7649TIP3    H144438   0.883   3.308   5.465 -0.9895 -0.5887  1.2625
 7649TIP3    H244439   0.903   3.165   5.420  0.3524 -0.0044 -0.0558
 7650TIP3   OH244440   6.270   3.855  15.730 -0.4382 -0.0176  0.3159
 7650TIP3    H144441   6.294   3.866  15.822  0.2226 -0.8434  0.2600
 7650TIP3    H244442   6.308   3.770  15.706 -0.5875  0.2010 -0.7211
 7651TIP3   OH244443   1.271   6.661  11.445  0.2923 -0.3855 -0.1140
 7651TIP3    H144444   1.303   6.743  11.482 -1.0416 -0.0621  0.3989
 7651TIP3    H244445   1.334   6.638  11.377 -0.5165  2.3104 -1.9252
 7652TIP3   OH244446   5.297   3.468   4.600  0.1669  0.1261 -0.3785
 7652TIP3    H144447   5.310   3.424   4.684  0.9834  0.1988 -0.4554
 7652TIP3    H244448   5.236   3.412   4.552  0.5319 -0.4775 -0.1474
 7653TIP3   OH244449   4.866   4.096  14.911  0.0006  0.4343 -0.1865
 7653TIP3    H144450   4.865   4.162  14.981  0.6626 -0.0420  0.2871
 7653TIP3    H244451   4.934   4.034  14.938  0.2873  0.2558 -1.2695
 7654TIP3   OH244452   2.907   0.557   1.088 -0.3032  0.6411 -0.7055
 7654TIP3    H144453   2.819   0.584   1.112  0.0264  0.9928  0.1418
 7654TIP3    H244454   2.910   0.566   0.993 -1.4850 -0.3136 -0.8692
 7655TIP3   OH244455   3.696   6.074   3.078  0.1540  0.1139  0.0565
 7655TIP3    H144456   3.686   6.160   3.119 -0.1818 -0.6313  1.6157
 7655TIP3    H244457   3.728   6.093   2.990  3.5746  1.7486  1.4667
 7656TIP3   OH244458   2.932   5.096   1.426  0.5649  0.2309 -0.0476
 7656TIP3    H144459   2.858   5.147   1.457  0.9836  1.5188 -1.0743
 7656TIP3    H244460   2.895   5.037   1.361  0.4680  1.0973 -0.7972
 7657TIP3   OH244461   5.432   2.427   1.086 -0.5081  0.3662 -0.3629
 7657TIP3    H144462   5.439   2.517   1.055 -2.0204  0.5003 -0.3652
 7657TIP3    H244463   5.376   2.384   1.022 -0.8465 -0.2459  0.3315
 7658TIP3   OH244464   5.801   0.080  16.995 -0.3640  0.0810  0.0051
 7658TIP3    H144465   5.736   0.063  17.063 -0.6444  2.9335  0.5629
 7658TIP3    H244466   5.872   0.126  17.040  0.9628 -0.8406 -1.0562
 7659TIP3   OH244467   5.457   3.642   1.607 -0.1832  0.2399  0.0415
 7659TIP3    H144468   5.507   3.718   1.577 -0.2294  1.1920  2.1983
 7659TIP3    H244469   5.424   3.668   1.693  0.5815 -2.5488  1.2881
 7660TIP3   OH244470   4.162   3.273   3.921 -0.0531  0.0504 -0.1744
 7660TIP3    H144471   4.153   3.267   3.826  1.5196  0.3981 -0.3731
 7660TIP3    H244472   4.233   3.335   3.934  1.7147 -2.1021  1.1409
 7661TIP3   OH244473   3.231   6.711  14.991  0.1593 -0.2201 -0.5466
 7661TIP3    H144474   3.224   6.742  15.081 -0.2383 -0.8715 -0.3481
 7661TIP3    H244475   3.294   6.771  14.950 -0.5111  0.7908 -0.1547
 7662TIP3   OH244476   3.659   5.099   4.570 -0.0770 -0.6942  0.7761
 7662TIP3    H144477   3.744   5.079   4.529 -0.6915 -0.2580 -0.7862
 7662TIP3    H244478   3.679   5.169   4.632  0.3100  1.4780 -1.6340
 7663TIP3   OH244479   3.622   2.064   3.138  0.3259  0.7312  0.0001
 7663TIP3    H144480   3.567   2.049   3.061 -0.0240 -1.4763  0.6199
 7663TIP3    H244481   3.707   2.028   3.114  0.1852 -0.0697  0.6493
 7664TIP3   OH244482   0.281   6.225  14.378  0.8287  0.3299  0.4315
 7664TIP3    H144483   0.266   6.221  14.283  0.7826 -0.1994  0.4583
 7664TIP3    H244484   0.373   6.199  14.388  1.6227  2.7919  0.3306
 7665TIP3   OH244485   1.835   3.802  14.460 -0.0460 -0.5338  0.4832
 7665TIP3    H144486   1.798   3.858  14.529 -0.5445 -0.5868  0.2622
 7665TIP3    H244487   1.930   3.810  14.471 -0.1199 -1.0638  1.5998
 7666TIP3   OH244488   4.490   5.874  12.964 -0.0051 -0.4377 -0.1698
 7666TIP3    H144489   4.541   5.932  13.021 -1.2556  0.3129  0.2233
 7666TIP3    H244490   4.536   5.876  12.880  1.7690 -1.4010  0.7117
 7667TIP3   OH244491   2.873   0.178  11.423 -0.1793 -0.1263  0.1652
 7667TIP3    H144492   2.856   0.272  11.409  0.5128  0.0034  0.1538
 7667TIP3    H244493   2.931   0.176  11.500  0.1307 -0.5164 -0.0740
 7668TIP3   OH244494   4.530   2.897   4.789  0.4650 -0.0084 -0.2967
 7668TIP3    H144495   4.470   2.839   4.836  2.1662 -0.7332  1.0788
 7668TIP3    H244496   4.474   2.943   4.726 -1.6985  0.1961  1.6683
 7669TIP3   OH244497   6.383   3.124  16.252 -0.0763  0.5697  0.1471
 7669TIP3    H144498   6.428   3.180  16.189  0.0087  1.2838  0.8282
 7669TIP3    H244499   6.295   3.113  16.217  0.1794  0.3862 -0.4451
 7670TIP3   OH244500   4.238   0.588   5.670  0.2835  1.0940  0.3604
 7670TIP3    H144501   4.191   0.556   5.748  0.0995  2.6845  0.9446
 7670TIP3    H244502   4.168   0.618   5.611  0.4226 -0.0992 -0.4463
 7671TIP3   OH244503   2.507   0.181   4.208 -0.7041  0.6135 -0.2248
 7671TIP3    H144504   2.420   0.220   4.198  0.1020  2.3692 -0.7370
 7671TIP3    H244505   2.568   0.251   4.184  0.8523 -0.7207 -0.3364
 7672TIP3   OH244506   3.590   4.143   3.639  0.1993 -0.6518  1.1929
 7672TIP3    H144507   3.538   4.139   3.719 -1.1871  0.3395  0.3703
 7672TIP3    H244508   3.670   4.095   3.661 -0.4311 -0.9851  2.9460
 7673TIP3   OH244509   2.298   5.483   4.675 -0.4454 -0.1349 -0.0378
 7673TIP3    H144510   2.216   5.503   4.629 -1.0933 -2.1001  0.1617
 7673TIP3    H244511   2.269   5.450   4.760  0.6104 -0.0697  0.3514
 7674TIP3   OH244512   0.434   5.360   3.760 -0.3593 -0.3159  0.0789
 7674TIP3    H144513   0.507   5.347   3.821  0.2728 -3.2533 -1.1264
 7674TIP3    H244514   0.474   5.405   3.685 -0.6769  1.3814  0.8723
 7675TIP3   OH244515   4.307   1.582   2.656  0.0523 -0.3887 -0.3072
 7675TIP3    H144516   4.381   1.542   2.608 -0.3402  0.5347 -1.7609
 7675TIP3    H244517   4.342   1.664   2.689 -0.4985  0.4106 -1.6478
 7676TIP3   OH244518   6.307   1.394   2.442  0.5431  0.4024  0.1397
 7676TIP3    H144519   6.316   1.471   2.497  1.1568  1.7608 -1.7742
 7676TIP3    H244520   6.348   1.324   2.493  1.2515  1.6234  1.3203
 7677TIP3   OH244521   1.070   2.926  12.863 -0.3888  0.2928  0.0835
 7677TIP3    H144522   1.130   2.930  12.937 -0.7703 -1.3610  0.5450
 7677TIP3    H244523   1.121   2.885  12.793 -1.1815 -2.1066  0.8024
 7678TIP3   OH244524   0.234   4.150   1.823 -0.1144 -0.6843 -0.3550
 7678TIP3    H144525   0.246   4.235   1.780 -2.2156  0.0459  0.3706
 7678TIP3    H244526   0.191   4.096   1.757  1.3898 -1.2896 -0.8796
 7679TIP3   OH244527   3.770   4.058   4.356  0.2785 -0.4485  0.0668
 7679TIP3    H144528   3.758   4.127   4.291  1.7247 -0.0092  0.2377
 7679TIP3    H244529   3.682   4.043   4.391 -0.0832  1.2749 -0.0004
 7680TIP3   OH244530   5.805   4.661   5.791  0.5597  0.2701 -0.1377
 7680TIP3    H144531   5.807   4.577   5.836  0.1922 -0.0203 -0.6487
 7680TIP3    H244532   5.817   4.726   5.860  1.9692 -0.2332  0.1385
 7681TIP3   OH244533   6.820   2.332   2.127 -0.0193 -0.8039 -0.1787
 7681TIP3    H144534   6.744   2.391   2.126 -0.4708 -1.3625 -1.1639
 7681TIP3    H244535   6.886   2.377   2.074 -0.9409 -1.8313 -2.3516
 7682TIP3   OH244536   4.260   0.755  15.355 -0.5686 -0.4169  0.2722
 7682TIP3    H144537   4.290   0.801  15.433 -0.5297 -0.4578  0.2808
 7682TIP3    H244538   4.205   0.684  15.389  0.4556 -1.2056  0.3272
 7683TIP3   OH244539   1.458   3.524   2.411  0.3755 -0.0257  0.0536
 7683TIP3    H144540   1.510   3.603   2.426  0.9895 -0.5018  0.4534
 7683TIP3    H244541   1.367   3.556   2.410  0.6738  0.8406 -0.9239
 7684TIP3   OH244542   3.149   3.178  12.229  0.3550 -0.3294  0.4764
 7684TIP3    H144543   3.186   3.132  12.304  0.2513 -0.9145  0.1734
 7684TIP3    H244544   3.225   3.199  12.174  0.3370 -0.7402  0.2891
 7685TIP3   OH244545   3.691   1.282  12.181 -0.4024 -0.4545 -0.6447
 7685TIP3    H144546   3.774   1.325  12.161 -0.5844  1.0047  1.4972
 7685TIP3    H244547   3.625   1.338  12.141 -0.4628 -0.5233 -0.6413
 7686TIP3   OH244548   3.422   1.985  16.668  0.1023 -0.7046 -0.1425
 7686TIP3    H144549   3.385   2.062  16.626 -0.7549  0.1743  2.0982
 7686TIP3    H244550   3.348   1.943  16.711  0.8591 -1.8355  0.1036
 7687TIP3   OH244551   2.122   0.287   4.615  0.0193  0.8917  0.0374
 7687TIP3    H144552   2.198   0.252   4.662 -0.2099 -1.5630 -1.2823
 7687TIP3    H244553   2.155   0.307   4.528 -0.8902 -0.4963 -0.6450
 7688TIP3   OH244554   1.801   1.161   0.005 -0.0813  0.3780 -0.6252
 7688TIP3    H144555   1.789   1.158   0.100  0.3317  0.5808 -0.5638
 7688TIP3    H244556   1.891   1.189  -0.007 -0.2208  0.6489 -1.0819
 7689TIP3   OH244557   2.344   6.747   5.625  0.1561  0.0728  0.2721
 7689TIP3    H144558   2.327   6.799   5.704  3.7650  0.3449  1.0406
 7689TIP3    H244559   2.369   6.812   5.559  2.0311 -0.4198  0.4432
 7690TIP3   OH244560   6.267   3.051  12.466  0.2816  0.0234 -0.2308
 7690TIP3    H144561   6.332   3.100  12.516  1.0379 -0.6446 -0.5414
 7690TIP3    H244562   6.245   2.977  12.522  0.5019 -0.2709 -0.5343
 7691TIP3   OH244563   3.264   0.678  12.488 -0.6425 -0.0835  0.0717
 7691TIP3    H144564   3.306   0.596  12.460 -1.2194  0.0541 -1.3059
 7691TIP3    H244565   3.331   0.745  12.474 -0.4640 -0.2051  0.3457
 7692TIP3   OH244566   5.804   0.677  16.904  0.3383  0.7115 -0.6149
 7692TIP3    H144567   5.724   0.682  16.853  1.3384  2.5451 -2.1324
 7692TIP3    H244568   5.860   0.747  16.869  1.9110  0.6845  1.5860
 7693TIP3   OH244569   6.014   3.153   0.518 -0.2041 -0.1569  0.0257
 7693TIP3    H144570   5.926   3.117   0.511 -0.2640  0.0991 -0.6528
 7693TIP3    H244571   6.055   3.133   0.434 -0.4677  1.8881 -0.6438
 7694TIP3   OH244572   2.554   5.657  10.724  0.5984 -0.3942 -0.3593
 7694TIP3    H144573   2.472   5.657  10.675  0.0124 -1.2533  0.5953
 7694TIP3    H244574   2.622   5.654  10.656 -0.2030 -2.0790 -1.1456
 7695TIP3   OH244575   5.580   1.992   4.381 -0.0261  0.6083 -0.1980
 7695TIP3    H144576   5.579   1.964   4.290  0.8053  2.9579 -1.0116
 7695TIP3    H244577   5.671   1.982   4.409  0.0920  1.5007 -0.2152
 7696TIP3   OH244578   3.277   3.939   6.107  0.2482 -0.0837  0.3396
 7696TIP3    H144579   3.328   3.910   6.032  0.2555 -1.4546  0.8471
 7696TIP3    H244580   3.238   3.859   6.142 -3.6525  1.0236 -0.9645
 7697TIP3   OH244581   6.583   0.917   1.716 -0.2017  0.0356 -0.5889
 7697TIP3    H144582   6.638   0.899   1.792 -1.0350 -0.1800 -0.0215
 7697TIP3    H244583   6.556   0.831   1.685 -1.6541  0.1694  0.2279
 7698TIP3   OH244584   4.922   4.974   4.665  0.0506 -0.4565 -0.2898
 7698TIP3    H144585   4.972   4.951   4.586  0.2069  0.0836 -0.3539
 7698TIP3    H244586   4.884   5.059   4.645  1.5291  0.5311  0.8594
 7699TIP3   OH244587   1.252   1.557   1.742 -0.3459 -1.0488 -0.0191
 7699TIP3    H144588   1.319   1.606   1.694  0.0988 -0.3764  1.2501
 7699TIP3    H244589   1.301   1.498   1.799 -0.8506 -1.0661  0.4050
 7700TIP3   OH244590   3.844   1.530  11.548  0.0795 -0.2279 -0.7452
 7700TIP3    H144591   3.907   1.459  11.538  0.4913  0.0015  0.1100
 7700TIP3    H244592   3.877   1.599  11.490  0.4470 -0.2315 -0.5471
 7701TIP3   OH244593   0.842   0.160   2.572  0.0500  0.1527 -0.3102
 7701TIP3    H144594   0.854   0.077   2.526  1.1574  0.2418 -0.1978
 7701TIP3    H244595   0.848   0.137   2.664  2.5644  0.6231 -0.2793
 7702TIP3   OH244596   3.787   3.803  11.253 -0.1239  0.7303 -0.0286
 7702TIP3    H144597   3.865   3.785  11.306  0.4221  1.6497 -0.4889
 7702TIP3    H244598   3.732   3.725  11.263  1.2323 -0.2999 -0.3701
 7703TIP3   OH244599   4.081   0.406   0.520  0.2985  0.5399  0.2241
 7703TIP3    H144600   4.093   0.333   0.581  2.3909  2.1218  1.8452
 7703TIP3    H244601   3.993   0.437   0.538 -0.0426 -0.5817  0.6189
 7704TIP3   OH244602   2.249   6.127  15.804  0.3770 -0.1331 -0.9138
 7704TIP3    H144603   2.336   6.166  15.818  0.6716 -0.9047 -0.5429
 7704TIP3    H244604   2.192   6.171  15.866  0.9766 -1.1589  0.4043
 7705TIP3   OH244605   1.264   2.609  12.273  0.1164 -0.1593  0.0745
 7705TIP3    H144606   1.238   2.517  12.264  1.2899 -0.6790  1.5671
 7705TIP3    H244607   1.359   2.608  12.267  0.0671  1.1972 -1.4577
 7706TIP3   OH244608   2.120   5.591  12.441 -0.2604 -0.2212  0.2800
 7706TIP3    H144609   2.035   5.558  12.413  0.8072 -1.3283 -1.9671
 7706TIP3    H244610   2.183   5.526  12.410  1.7851  2.6612 -2.3600
 7707TIP3   OH244611   1.529   5.946   5.414 -0.0914  0.9821  0.7482
 7707TIP3    H144612   1.616   5.979   5.392  0.3509 -0.8143 -0.4511
 7707TIP3    H244613   1.541   5.900   5.497  0.0207  1.0492  0.7697
 7708TIP3   OH244614   6.214   4.483  13.304 -0.0451 -0.1401 -0.0440
 7708TIP3    H144615   6.227   4.393  13.332 -0.5904 -0.9086 -2.1230
 7708TIP3    H244616   6.296   4.528  13.327  0.7196 -1.4538 -0.1252
 7709TIP3   OH244617   1.199   4.354  14.538 -0.2387 -0.1712  0.2151
 7709TIP3    H144618   1.197   4.272  14.488  3.1185 -0.3179  0.0968
 7709TIP3    H244619   1.286   4.390  14.522 -0.3722  1.7101  3.0090
 7710TIP3   OH244620   0.163   6.240   3.655  0.1724 -0.2053 -0.0178
 7710TIP3    H144621   0.214   6.232   3.736  1.4165 -0.7701 -0.8249
 7710TIP3    H244622   0.088   6.294   3.680 -0.5514 -1.9794  2.0079
 7711TIP3   OH244623   4.205   0.031   3.937  0.1190 -0.0376  0.1533
 7711TIP3    H144624   4.156  -0.007   3.864 -0.5626  0.2081  0.4821
 7711TIP3    H244625   4.160   0.113   3.957  0.5250  0.0813  0.6139
 7712TIP3   OH244626   4.640   0.899  16.957 -0.1110 -0.0937  0.1037
 7712TIP3    H144627   4.635   0.989  16.987  2.8613 -0.0676  0.8631
 7712TIP3    H244628   4.598   0.899  16.871 -0.4571  1.9262  0.2445
 7713TIP3   OH244629   4.303   2.542   1.389 -0.6164 -0.0084  0.2367
 7713TIP3    H144630   4.301   2.591   1.307 -2.6479 -0.4567 -0.0473
 7713TIP3    H244631   4.229   2.576   1.439  0.1743 -0.2328  1.5976
 7714TIP3   OH244632   4.700   0.378   4.421 -0.2234 -0.3590 -0.0166
 7714TIP3    H144633   4.616   0.365   4.466  0.0182  0.1896  0.6087
 7714TIP3    H244634   4.686   0.457   4.368 -0.3480 -0.7204 -0.5305
 7715TIP3   OH244635   6.641   2.603  15.226 -0.0064 -0.0316 -0.2573
 7715TIP3    H144636   6.551   2.632  15.207 -0.8016 -1.1098  1.5949
 7715TIP3    H244637   6.690   2.623  15.146 -1.4316  2.3804 -0.6303
 7716TIP3   OH244638   2.529   1.252   2.091  0.8482  0.8401  0.0964
 7716TIP3    H144639   2.520   1.279   2.182 -1.2314  3.0013 -0.6517
 7716TIP3    H244640   2.450   1.202   2.073  1.3034  0.3192 -0.5271
 7717TIP3   OH244641   5.626   0.641  14.204 -0.8284  0.2910  0.4520
 7717TIP3    H144642   5.690   0.707  14.231  0.1725 -0.5991  0.3188
 7717TIP3    H244643   5.541   0.679  14.226 -0.1931  0.8962  1.9624
 7718TIP3   OH244644   3.687   5.233  13.000  0.3652 -0.1315  0.1221
 7718TIP3    H144645   3.691   5.304  12.937 -0.7219  0.6903  0.9474
 7718TIP3    H244646   3.614   5.178  12.971 -0.6848  0.7049  1.0845
 7719TIP3   OH244647   3.856   5.885  17.057 -0.6637 -0.8149 -0.4430
 7719TIP3    H144648   3.861   5.981  17.052  0.1351 -0.8673 -0.8898
 7719TIP3    H244649   3.762   5.866  17.056 -0.8246 -0.0577 -0.8300
 7720TIP3   OH244650   2.257   0.619  14.861  0.3290 -0.8002 -0.2432
 7720TIP3    H144651   2.322   0.668  14.911 -2.5085  3.0004  0.1380
 7720TIP3    H244652   2.292   0.616  14.772  1.1025  1.1272 -0.0398
 7721TIP3   OH244653   4.099   6.509   3.014 -0.4773 -0.4813 -0.2035
 7721TIP3    H144654   4.127   6.445   3.080 -0.5830  0.3981  0.7119
 7721TIP3    H244655   4.030   6.464   2.966 -0.4217 -1.1353  0.3083
 7722TIP3   OH244656   5.940   6.624  16.047  0.0557 -0.1013  0.0493
 7722TIP3    H144657   5.887   6.586  16.118  1.2200  1.9235  2.1401
 7722TIP3    H244658   6.006   6.558  16.028 -1.2669 -1.3523 -0.3601
 7723TIP3   OH244659   2.597   4.425   4.189  0.7148 -0.2949  0.1050
 7723TIP3    H144660   2.680   4.467   4.164  1.3324 -1.9074 -0.7011
 7723TIP3    H244661   2.582   4.360   4.121 -0.6494 -0.7892  0.8516
 7724TIP3   OH244662   5.856   3.633  14.262  0.1118  0.1882  0.1599
 7724TIP3    H144663   5.899   3.706  14.217  1.6008 -1.0910 -0.5835
 7724TIP3    H244664   5.777   3.672  14.300 -0.4553  1.6821 -2.2900
 7725TIP3   OH244665   0.132   0.781  13.906 -0.6140  0.0762  0.3667
 7725TIP3    H144666   0.168   0.833  13.977  0.5977  0.5049 -0.5178
 7725TIP3    H244667   0.165   0.692  13.922  1.4957  0.5769 -0.7677
 7726TIP3   OH244668   0.950   1.832  11.811  0.2316 -0.5777  0.1995
 7726TIP3    H144669   0.929   1.869  11.896  2.4406 -0.6024  0.8323
 7726TIP3    H244670   0.880   1.862  11.753 -1.7144 -1.1937  2.1521
 7727TIP3   OH244671   1.853   4.265  11.961 -0.0564  0.1766 -0.3692
 7727TIP3    H144672   1.849   4.354  11.925 -2.2707  1.1145  1.8867
 7727TIP3    H244673   1.855   4.209  11.883  2.6573  2.1319 -1.8818
 7728TIP3   OH244674   2.001   2.443   1.631 -0.4708 -0.4330 -0.2332
 7728TIP3    H144675   1.926   2.475   1.681 -0.9968  1.4483 -2.1100
 7728TIP3    H244676   1.972   2.359   1.595 -1.8760  0.4551 -1.2722
 7729TIP3   OH244677   0.954   1.009  12.518 -0.4259  0.4405 -0.1767
 7729TIP3    H144678   1.014   0.945  12.558 -3.4889 -2.5902  0.0119
 7729TIP3    H244679   0.918   1.058  12.593 -1.0104 -0.4181  0.1145
 7730TIP3   OH244680   6.540   6.727   0.546  0.0484 -0.9729  0.2380
 7730TIP3    H144681   6.586   6.648   0.576  0.0415 -0.7629  0.8010
 7730TIP3    H244682   6.509   6.704   0.458 -0.6837 -1.8934  0.7242
 7731TIP3   OH244683   5.535   4.284  13.820  0.0969  0.2244  0.5626
 7731TIP3    H144684   5.625   4.263  13.845  0.1518 -0.2204  0.0033
 7731TIP3    H244685   5.505   4.207  13.773 -0.8294  0.0653  1.3848
 7732TIP3   OH244686   3.756   0.537  16.199  0.2333  0.1311  0.3731
 7732TIP3    H144687   3.680   0.487  16.229  0.6183 -1.5393 -1.2266
 7732TIP3    H244688   3.831   0.479  16.215  0.6387 -0.1493 -2.0589
 7733TIP3   OH244689   3.561   5.325   3.562 -0.7190  0.2346  0.1718
 7733TIP3    H144690   3.482   5.286   3.598 -1.5094  0.9970 -0.6688
 7733TIP3    H244691   3.621   5.252   3.548 -1.2131 -0.3284  0.9724
 7734TIP3   OH244692   1.125   3.264   4.248 -0.0425  0.2516  0.3781
 7734TIP3    H144693   1.197   3.243   4.189 -0.2962  0.9459 -0.1959
 7734TIP3    H244694   1.166   3.274   4.333  0.3048 -0.9581  0.3672
 7735TIP3   OH244695   4.850   6.066   1.922  0.2660  0.2850  0.2511
 7735TIP3    H144696   4.823   6.082   2.012 -0.0384 -0.1899  0.2467
 7735TIP3    H244697   4.910   6.138   1.902  4.7980 -2.3340  2.6577
 7736TIP3   OH244698   1.569   0.643  12.754 -0.1197  0.1269 -0.5261
 7736TIP3    H144699   1.645   0.672  12.703  2.0101 -1.0953  1.7287
 7736TIP3    H244700   1.589   0.668  12.844 -1.0657 -2.5734  0.5525
 7737TIP3   OH244701   2.422   5.124   3.709 -0.2991 -0.1023 -0.8569
 7737TIP3    H144702   2.374   5.091   3.633 -0.3208  1.0679 -1.3802
 7737TIP3    H244703   2.355   5.131   3.778 -0.1095 -1.9793 -0.4327
 7738TIP3   OH244704   5.760   0.604   0.827  0.3538  0.4477  0.1999
 7738TIP3    H144705   5.732   0.683   0.873  1.1335  0.7711  0.1360
 7738TIP3    H244706   5.766   0.630   0.735 -0.7577 -0.0763 -0.0425
 7739TIP3   OH244707   1.180   6.112   2.398 -0.3180  0.2220 -0.0715
 7739TIP3    H144708   1.190   6.193   2.448  0.4147  0.5915 -0.8170
 7739TIP3    H244709   1.190   6.043   2.464 -0.9162  0.7200  0.5625
 7740TIP3   OH244710   0.289   6.379  15.402  0.3679 -0.2031 -0.7048
 7740TIP3    H144711   0.277   6.470  15.428 -2.4571  0.0223 -2.4213
 7740TIP3    H244712   0.262   6.329  15.479 -1.3753  0.4597 -0.8317
 7741TIP3   OH244713   2.825   2.215  14.270  0.4899  0.1461 -0.0512
 7741TIP3    H144714   2.883   2.249  14.338 -0.0587 -1.3924  1.2584
 7741TIP3    H244715   2.825   2.283  14.202  1.8916  1.2586  0.9948
 7742TIP3   OH244716   5.912   5.803   5.303  0.2265  0.3389  0.4132
 7742TIP3    H144717   5.857   5.829   5.229 -0.1473 -0.7783  0.2711
 7742TIP3    H244718   5.869   5.839   5.380  0.6604  1.5795  0.0891
 7743TIP3   OH244719   6.817   0.893   4.890  0.0203  0.4632  0.5872
 7743TIP3    H144720   6.806   0.820   4.950  0.9530 -0.9059 -0.8512
 7743TIP3    H244721   6.740   0.890   4.833  0.3959  0.1786  0.0930
 7744TIP3   OH244722   4.273   4.372   2.317  0.2677 -0.1266 -0.6700
 7744TIP3    H144723   4.183   4.364   2.348  0.1055 -0.3159 -1.1892
 7744TIP3    H244724   4.306   4.283   2.315  0.4808 -0.0538 -0.4418
 7745TIP3   OH244725   4.930   5.168   4.296  0.1978  0.4814  0.0225
 7745TIP3    H144726   4.958   5.104   4.361  2.3177  0.6968 -0.6203
 7745TIP3    H244727   4.967   5.251   4.326  0.5687  0.7214 -1.0257
 7746TIP3   OH244728   3.846   2.403  14.146 -0.6427  0.6616  0.1597
 7746TIP3    H144729   3.781   2.351  14.099 -0.4710  0.6793 -0.1032
 7746TIP3    H244730   3.926   2.395  14.093 -0.1878 -0.0532  0.9231
 7747TIP3   OH244731   0.481   1.243  16.455 -0.0451 -0.4497  0.3162
 7747TIP3    H144732   0.461   1.168  16.512  2.7930 -0.5001  1.3765
 7747TIP3    H244733   0.524   1.204  16.379 -1.0519 -0.0899 -0.4619
 7748TIP3   OH244734   6.804   5.251   0.095  0.4003 -0.3474 -0.1516
 7748TIP3    H144735   6.862   5.176   0.086 -0.2650 -0.9651  0.5641
 7748TIP3    H244736   6.722   5.225   0.053  0.1204 -0.0844  0.2127
 7749TIP3   OH244737   4.928   5.947  13.934 -0.0937 -0.2978  0.1979
 7749TIP3    H144738   4.933   6.001  13.854  1.1803  0.4899  0.7897
 7749TIP3    H244739   5.014   5.906  13.941 -0.6607 -1.4906  0.4264
 7750TIP3   OH244740   3.615   2.618  13.707  0.2476  0.3742  0.1673
 7750TIP3    H144741   3.644   2.663  13.787  2.1842  1.6765 -1.1786
 7750TIP3    H244742   3.586   2.689  13.649  1.7452 -0.1915 -1.3710
 7751TIP3   OH244743   5.895   6.487   5.502 -0.1543 -0.5452  0.0920
 7751TIP3    H144744   5.850   6.459   5.583 -0.2549 -2.6364 -0.6360
 7751TIP3    H244745   5.882   6.415   5.441  1.1243  0.3922 -1.3620
 7752TIP3   OH244746   5.307   4.658   5.776  0.2495  0.1709 -0.0762
 7752TIP3    H144747   5.315   4.608   5.695  1.7251 -0.1079  0.2014
 7752TIP3    H244748   5.218   4.642   5.806 -0.0177 -0.4646 -1.1615
 7753TIP3   OH244749   3.789   5.478   3.456 -0.4113 -0.2343 -0.3194
 7753TIP3    H144750   3.722   5.428   3.502 -1.4866  0.1973 -1.3712
 7753TIP3    H244751   3.766   5.569   3.470 -0.4580 -0.0912 -1.2741
 7754TIP3   OH244752   5.154   1.778   5.990  0.0467  0.2223  0.1836
 7754TIP3    H144753   5.224   1.721   5.956  0.6457  1.6632 -1.1338
 7754TIP3    H244754   5.178   1.794   6.081  0.2114 -1.0907  0.3942
 7755TIP3   OH244755   1.863   0.533   4.226  0.2119  0.0372  0.0219
 7755TIP3    H144756   1.903   0.530   4.139  1.8707 -3.4140  0.7320
 7755TIP3    H244757   1.933   0.563   4.284 -0.8852  2.3261  0.2782
 7756TIP3   OH244758   4.467   5.750   5.237 -0.0459  0.6661  0.0712
 7756TIP3    H144759   4.524   5.827   5.243  1.1835 -0.1220 -0.9760
 7756TIP3    H244760   4.435   5.752   5.147 -1.2170  0.7602  0.4775
 7757TIP3   OH244761   5.020   1.477   5.840 -0.1002  0.2231  0.2025
 7757TIP3    H144762   5.078   1.407   5.811 -1.1801 -0.2551 -0.9201
 7757TIP3    H244763   5.075   1.555   5.843  0.4098  0.0019 -1.8865
 7758TIP3   OH244764   4.166   1.628   6.410  0.0508 -0.0927  0.0058
 7758TIP3    H144765   4.240   1.571   6.388  2.1632  2.1579  0.8111
 7758TIP3    H244766   4.118   1.579   6.477  2.6211 -0.4565  1.7547
 7759TIP3   OH244767   1.976   2.783   1.222 -0.2430 -0.5356 -0.1606
 7759TIP3    H144768   1.971   2.845   1.295 -2.0312 -0.2078 -0.4978
 7759TIP3    H244769   2.004   2.701   1.262 -2.5336 -0.7561  1.2402
 7760TIP3   OH244770   0.575   3.127  10.862 -0.2085  0.2458 -0.1222
 7760TIP3    H144771   0.649   3.067  10.849  0.1294 -0.0403  2.5161
 7760TIP3    H244772   0.515   3.106  10.791 -0.3323 -3.6615  0.8829
 7761TIP3   OH244773   3.747   4.368  14.382 -0.4375 -0.0436  0.0554
 7761TIP3    H144774   3.711   4.451  14.350 -4.1122 -1.9734 -1.3681
 7761TIP3    H244775   3.706   4.355  14.468 -1.6881 -1.3338 -0.6938
 7762TIP3   OH244776   5.794   5.360  13.183  0.1599 -0.0427 -0.0446
 7762TIP3    H144777   5.855   5.305  13.133 -0.8899 -1.8023  0.4968
 7762TIP3    H244778   5.743   5.297  13.234 -0.5115  1.5423  1.2973
 7763TIP3   OH244779   6.774   1.495  12.269  0.7646 -0.3863  0.0466
 7763TIP3    H144780   6.859   1.483  12.313  0.7106  0.4864  0.4201
 7763TIP3    H244781   6.757   1.411  12.227  1.9526 -0.4850 -0.2791
 7764TIP3   OH244782   1.539   1.490   0.414 -0.3521 -0.1329 -0.2797
 7764TIP3    H144783   1.491   1.503   0.332  0.0465 -3.6856 -1.2521
 7764TIP3    H244784   1.477   1.443   0.471 -0.5128  1.9970  1.4299
 7765TIP3   OH244785   5.225   2.651  11.781  0.9585  0.5366  0.0442
 7765TIP3    H144786   5.281   2.648  11.859 -0.4047 -2.8201  1.0678
 7765TIP3    H244787   5.278   2.611  11.712  1.2781  1.1893 -0.0905
 7766TIP3   OH244788   3.708   1.006  13.212 -0.0843 -0.2526  0.0683
 7766TIP3    H144789   3.734   0.916  13.194  0.8142 -0.0708  0.3916
 7766TIP3    H244790   3.646   1.028  13.143  0.6468 -0.7100 -0.7527
 7767TIP3   OH244791   5.929   4.650  12.035 -0.0836  0.1121  0.1730
 7767TIP3    H144792   5.864   4.653  11.965 -0.1727  0.3075  0.2640
 7767TIP3    H244793   5.902   4.718  12.096  0.3542  0.3790  0.0797
 7768TIP3   OH244794   1.895   4.108   4.226  0.1150  0.4872 -0.1630
 7768TIP3    H144795   1.936   4.041   4.172  0.3057  1.8555 -1.7864
 7768TIP3    H244796   1.851   4.166   4.164  0.1743  2.0249  1.1558
 7769TIP3   OH244797   4.090   5.065  13.624 -0.5140  0.5605 -0.4193
 7769TIP3    H144798   4.086   5.051  13.718  0.0920 -0.6737 -0.5639
 7769TIP3    H244799   4.178   5.037  13.599 -1.1821 -0.6018 -1.5817
 7770TIP3   OH244800   1.297   2.893  12.256  0.3634 -0.1819  0.9048
 7770TIP3    H144801   1.392   2.895  12.270  0.4606 -1.5082  0.5685
 7770TIP3    H244802   1.276   2.800  12.251 -0.9351  0.1064  0.7937
 7771TIP3   OH244803   5.179   4.538  16.967  0.0050 -0.3988 -0.1497
 7771TIP3    H144804   5.116   4.525  17.037 -0.5063  1.2927 -0.2376
 7771TIP3    H244805   5.136   4.503  16.889  0.0730 -1.1945  0.1707
 7772TIP3   OH244806   4.027   0.891   4.420 -0.3176 -0.0836 -0.0001
 7772TIP3    H144807   4.060   0.980   4.425 -0.2421 -0.0172 -1.4642
 7772TIP3    H244808   3.932   0.900   4.412 -0.3853 -0.1726  0.6179
 7773TIP3   OH244809   3.210   5.646  13.656  0.3960 -0.2480  0.0362
 7773TIP3    H144810   3.133   5.700  13.671 -0.3386 -0.3533 -2.6783
 7773TIP3    H244811   3.256   5.689  13.583  1.4728 -1.6025 -0.1362
 7774TIP3   OH244812   1.681   4.088  15.740 -0.6322  0.4141 -0.0565
 7774TIP3    H144813   1.735   4.158  15.775 -0.3266  2.1217 -3.5316
 7774TIP3    H244814   1.743   4.018  15.720 -0.3213  0.7157 -0.1602
 7775TIP3   OH244815   4.330   0.779   6.160 -0.0092 -0.2392 -0.2091
 7775TIP3    H144816   4.331   0.748   6.251 -1.4178 -2.1888 -0.7843
 7775TIP3    H244817   4.409   0.833   6.153  0.5942 -0.7134  1.9365
 7776TIP3   OH244818   3.567   0.355  12.417  0.1123  0.4728 -0.3162
 7776TIP3    H144819   3.587   0.271  12.457  0.8930  2.0978  3.0197
 7776TIP3    H244820   3.472   0.355  12.406  0.1103 -0.8377 -0.3999
 7777TIP3   OH244821   2.574   3.935  14.458 -0.0386  0.5093 -0.1218
 7777TIP3    H144822   2.484   3.904  14.467  0.0375  0.6887  1.6513
 7777TIP3    H244823   2.568   4.030  14.465  0.3213  0.5005  0.3671
 7778TIP3   OH244824   6.677   3.321  15.619 -0.6062 -0.0363  0.3547
 7778TIP3    H144825   6.678   3.305  15.525  0.8263 -1.1482  0.5166
 7778TIP3    H244826   6.741   3.258  15.655  0.5845  1.8728  1.8021
 7779TIP3   OH244827   1.005   3.031  16.391 -0.0721 -0.1553 -0.1368
 7779TIP3    H144828   0.970   3.034  16.302 -0.8781  1.8168  0.1777
 7779TIP3    H244829   0.938   3.076  16.444  0.7617 -0.5697  1.3190
 7780TIP3   OH244830   1.741   1.931   4.518  0.1628 -0.4537 -0.0445
 7780TIP3    H144831   1.812   1.893   4.569 -1.4625 -0.4649  2.3628
 7780TIP3    H244832   1.667   1.873   4.533 -1.6138  2.0127  1.3860
 7781TIP3   OH244833   1.975   2.531   2.628  0.2031  0.6819  0.1631
 7781TIP3    H144834   1.904   2.486   2.582  1.2072  0.2315 -0.9945
 7781TIP3    H244835   1.976   2.492   2.715 -0.5073  0.1965 -0.0353
 7782TIP3   OH244836   5.321   5.310   1.736 -0.2407 -0.3022  0.2017
 7782TIP3    H144837   5.350   5.361   1.812  0.7877 -0.8409  0.1862
 7782TIP3    H244838   5.226   5.306   1.745 -0.5046  2.5367 -0.3618
 7783TIP3   OH244839   4.365   5.932   2.726 -0.3917  0.0913  0.2387
 7783TIP3    H144840   4.424   5.905   2.655 -2.4449 -0.4819 -1.3585
 7783TIP3    H244841   4.368   5.860   2.789  0.9993  0.3292  0.4827
 7784TIP3   OH244842   1.794   5.932   6.171 -0.5781 -0.5411  0.2108
 7784TIP3    H144843   1.863   5.903   6.231 -1.4238 -1.4391  0.7921
 7784TIP3    H244844   1.713   5.903   6.213 -1.3152  0.5688 -0.4170
 7785TIP3   OH244845   3.011   5.989  14.143  0.7835  0.0478 -0.0987
 7785TIP3    H144846   3.103   5.970  14.160  1.1267  1.1625 -0.5845
 7785TIP3    H244847   3.007   6.006  14.049  0.1728  0.4371 -0.0090
 7786TIP3   OH244848   1.115   4.620  16.019  0.0549  0.3043 -0.6525
 7786TIP3    H144849   1.051   4.624  16.090 -0.6003  1.2498 -1.2689
 7786TIP3    H244850   1.071   4.571  15.950  0.5487 -0.2908 -0.5487
 7787TIP3   OH244851   0.163   4.627  14.845  0.1379 -0.0877  0.5961
 7787TIP3    H144852   0.097   4.640  14.913 -0.0260  0.3675  0.3515
 7787TIP3    H244853   0.121   4.568  14.782  0.7478 -1.5782  1.5139
 7788TIP3   OH244854   6.827   1.355  10.963  0.1134  0.8106  0.4045
 7788TIP3    H144855   6.732   1.355  10.951  0.1911  0.4079 -0.2413
 7788TIP3    H244856   6.850   1.265  10.984  0.7472  0.0418 -2.9724
 7789TIP3   OH244857   6.009   3.059   4.275 -0.1973  0.5037  0.6592
 7789TIP3    H144858   5.985   2.979   4.229  1.1101  0.6350 -0.3049
 7789TIP3    H244859   6.097   3.041   4.310  0.6035  1.8553 -0.5189
 7790TIP3   OH244860   4.134   6.017  12.864  0.7877 -0.4087  0.1602
 7790TIP3    H144861   4.197   6.087  12.847 -0.5296  1.2337  1.6558
 7790TIP3    H244862   4.165   5.976  12.944  0.9158 -0.7569 -0.0678
 7791TIP3   OH244863   6.773   5.754  13.337 -0.6271  0.3153  0.1618
 7791TIP3    H144864   6.820   5.765  13.254  0.6445 -3.6584  0.1417
 7791TIP3    H244865   6.831   5.793  13.403  0.5014 -0.3896 -0.3887
 7792TIP3   OH244866   2.971   2.614  12.700  0.3931  0.3460 -0.2337
 7792TIP3    H144867   2.913   2.651  12.766  0.2735  0.2402 -0.2795
 7792TIP3    H244868   2.966   2.519  12.713  0.8593  0.3520  0.0173
 7793TIP3   OH244869   5.346   4.676   3.982 -0.0319 -0.5935  0.0427
 7793TIP3    H144870   5.349   4.615   4.055 -0.4418 -1.2545 -0.4781
 7793TIP3    H244871   5.275   4.643   3.926  3.0027 -2.7602 -2.9305
 7794TIP3   OH244872   3.521   4.360   4.302  0.0412 -0.4683  0.3911
 7794TIP3    H144873   3.588   4.310   4.256 -1.4451 -0.1340 -2.3407
 7794TIP3    H244874   3.447   4.300   4.312 -0.8262  0.3907 -0.6121
 7795TIP3   OH244875   0.467   2.135   0.439  0.0035 -0.4032  0.3204
 7795TIP3    H144876   0.500   2.061   0.388 -2.1213 -1.3530  0.1965
 7795TIP3    H244877   0.540   2.197   0.442  1.1714 -1.6048 -1.3339
 7796TIP3   OH244878   1.087   0.738   2.258 -0.0385 -0.0393 -0.3752
 7796TIP3    H144879   1.067   0.779   2.342  1.2920  0.6297 -0.3541
 7796TIP3    H244880   1.107   0.647   2.280 -0.4466 -0.0602 -0.0748
 7797TIP3   OH244881   4.341   0.144   3.668  0.5312  0.1715  0.2220
 7797TIP3    H144882   4.281   0.168   3.739  0.4262  1.3366 -0.2406
 7797TIP3    H244883   4.401   0.218   3.661  0.3293  0.2299 -1.1264
 7798TIP3   OH244884   2.571   5.027   2.951  0.0585  0.1150 -0.1563
 7798TIP3    H144885   2.515   4.955   2.921 -1.2965  0.3688  1.6556
 7798TIP3    H244886   2.585   5.010   3.044 -0.8466  2.5191  0.4835
 7799TIP3   OH244887   1.575   0.077   2.003 -0.1607  0.8525 -0.2194
 7799TIP3    H144888   1.529   0.020   2.065  2.1446 -0.2423  0.6115
 7799TIP3    H244889   1.659   0.034   1.989  1.1756  3.3975 -0.6002
 7800TIP3   OH244890   3.019   6.055  15.989 -0.3555  0.0080 -0.4524
 7800TIP3    H144891   3.048   6.141  16.019  0.5784  0.2595 -1.9484
 7800TIP3    H244892   3.097   6.000  15.994 -0.0948  0.1095 -2.4717
 7801TIP3   OH244893   4.975   3.466   2.086  0.7216 -0.6136  0.3249
 7801TIP3    H144894   5.050   3.523   2.101 -0.2451  0.6910  0.4618
 7801TIP3    H244895   4.910   3.495   2.151 -0.7790 -0.0163 -1.3520
 7802TIP3   OH244896   5.908   2.373   3.801 -0.2082 -0.4411  0.5290
 7802TIP3    H144897   6.002   2.392   3.793  0.4128 -1.9677  2.8756
 7802TIP3    H244898   5.890   2.312   3.729  0.4264  0.3780 -0.3483
 7803TIP3   OH244899   2.499   2.792  12.950  0.4647 -0.4578  0.2114
 7803TIP3    H144900   2.459   2.745  12.878  0.4839  1.1708 -0.9136
 7803TIP3    H244901   2.442   2.868  12.965  0.8063 -0.4153  1.4800
 7804TIP3   OH244902   4.846   1.965  11.794 -0.7359  0.2807 -0.8021
 7804TIP3    H144903   4.884   2.051  11.777 -1.7726  0.5549 -1.8895
 7804TIP3    H244904   4.921   1.909  11.813  0.1120  1.0737 -1.6746
 7805TIP3   OH244905   6.745   4.058   2.956 -0.2211 -1.0054 -0.3555
 7805TIP3    H144906   6.722   3.992   2.890 -3.8196  0.2536 -0.6135
 7805TIP3    H244907   6.711   4.023   3.038  0.0039 -0.5200 -0.0500
 7806TIP3   OH244908   6.571   2.614  13.230 -0.5105 -0.5059  0.4576
 7806TIP3    H144909   6.530   2.566  13.157  1.8166  0.1417 -1.3843
 7806TIP3    H244910   6.578   2.704  13.199  1.0331 -0.3235  1.2392
 7807TIP3   OH244911   4.457   3.247  11.670 -0.0481  0.4323 -0.0447
 7807TIP3    H144912   4.499   3.192  11.736 -1.0002 -1.9046 -1.2451
 7807TIP3    H244913   4.519   3.247  11.597  0.0696  1.2042  0.0556
 7808TIP3   OH244914   1.915   5.768  11.645 -0.5400  0.3550 -0.1475
 7808TIP3    H144915   1.908   5.847  11.590 -0.0215  0.1510 -0.5220
 7808TIP3    H244916   1.948   5.800  11.729 -0.7665  0.5963 -0.1490
 7809TIP3   OH244917   0.428   4.581   2.637 -0.3539  0.9865  0.3045
 7809TIP3    H144918   0.406   4.535   2.556  1.1543 -0.3492  0.6155
 7809TIP3    H244919   0.360   4.555   2.699  0.1946 -0.4776  0.3259
 7810TIP3   OH244920   2.672   0.946  12.115 -0.1727  0.4466  0.0667
 7810TIP3    H144921   2.625   1.021  12.079  1.3230  0.8313 -1.1993
 7810TIP3    H244922   2.692   0.892  12.038  1.0205  0.0642  0.6253
 7811TIP3   OH244923   2.132   5.069  16.272  0.4891  0.4564 -0.1092
 7811TIP3    H144924   2.047   5.072  16.228 -0.4609  0.2509  1.6244
 7811TIP3    H244925   2.187   5.016  16.215 -1.0950 -0.9348 -0.4141
 7812TIP3   OH244926   2.510   2.876  16.101  0.0393 -0.4046 -0.3475
 7812TIP3    H144927   2.550   2.855  16.186 -0.9321  0.4136  0.3317
 7812TIP3    H244928   2.469   2.794  16.074  1.2882 -0.9806 -0.5803
 7813TIP3   OH244929   5.741   6.825   5.303  0.0629 -0.1745 -0.0747
 7813TIP3    H144930   5.695   6.908   5.299  1.2693  0.4895 -0.7752
 7813TIP3    H244931   5.715   6.786   5.387 -1.3838  0.3723 -0.2523
 7814TIP3   OH244932   1.223   5.664  13.284 -0.0690 -0.4777  0.8750
 7814TIP3    H144933   1.278   5.734  13.318 -0.6766 -0.3124  1.5604
 7814TIP3    H244934   1.168   5.639  13.358 -1.1621 -0.3823  0.1268
 7815TIP3   OH244935   6.449   4.950   6.335 -0.3694 -0.1350 -0.1948
 7815TIP3    H144936   6.384   5.020   6.327  0.3488  0.3671 -1.9339
 7815TIP3    H244937   6.513   4.984   6.398 -0.5937  0.3169 -0.2047
 7816TIP3   OH244938   6.540   6.243   2.126  0.1068  0.3874  0.5150
 7816TIP3    H144939   6.630   6.273   2.115  0.4177 -0.5153  0.5028
 7816TIP3    H244940   6.537   6.159   2.080 -0.9126  0.6926 -0.0169
 7817TIP3   OH244941   2.728   2.152  13.224  0.2859  0.0518 -0.1768
 7817TIP3    H144942   2.819   2.166  13.199  1.2128 -0.8406  2.3006
 7817TIP3    H244943   2.691   2.240  13.233  1.4517  0.5009  0.4571
 7818TIP3   OH244944   6.007   0.974   3.014 -0.2120  0.2700 -0.5082
 7818TIP3    H144945   6.053   1.004   2.935  1.6352  0.9280  0.7657
 7818TIP3    H244946   5.934   1.035   3.023  1.7378  2.6121  0.3274
 7819TIP3   OH244947   6.240   2.443   4.769  0.2521  0.2756 -0.0085
 7819TIP3    H144948   6.162   2.437   4.714  0.5252  0.8419 -0.4830
 7819TIP3    H244949   6.218   2.395   4.849 -0.8583  1.0553  0.1843
 7820TIP3   OH244950   5.296   4.116   0.360 -0.2590  0.0797  0.0375
 7820TIP3    H144951   5.354   4.041   0.347  0.3048  0.1509  1.8997
 7820TIP3    H244952   5.354   4.192   0.355 -0.0633  0.1315  2.2687
 7821TIP3   OH244953   0.707   0.899  16.517  0.0735  0.1584  0.0463
 7821TIP3    H144954   0.624   0.863  16.483  0.0822 -0.7054  0.8926
 7821TIP3    H244955   0.693   0.906  16.612  1.0109 -0.1338  0.2171
 7822TIP3   OH244956   5.549   1.532   2.874  0.3957 -0.0252  0.6158
 7822TIP3    H144957   5.644   1.526   2.865  0.4190  0.8685  0.2337
 7822TIP3    H244958   5.516   1.475   2.804  0.6429  0.5688  0.0083
 7823TIP3   OH244959   4.904   2.215  11.704  0.0108 -0.5659 -0.3618
 7823TIP3    H144960   4.891   2.296  11.754 -0.1127 -1.2274  0.7046
 7823TIP3    H244961   4.852   2.227  11.625  0.3125  0.5551 -0.4090
 7824TIP3   OH244962   3.769   5.284  13.254 -0.0146 -0.3855  0.1483
 7824TIP3    H144963   3.701   5.307  13.317  0.7167 -1.0687  1.2209
 7824TIP3    H244964   3.722   5.257  13.175 -0.9681 -0.4618  0.7346
 7825TIP3   OH244965   0.133   4.724   1.622 -0.1424 -0.2431 -0.6113
 7825TIP3    H144966   0.226   4.749   1.613 -0.1144 -0.4325 -0.8569
 7825TIP3    H244967   0.124   4.697   1.713 -0.4275  1.7282 -0.0011
 7826TIP3   OH244968   6.174   3.326   0.647 -0.0835 -0.2911  0.0317
 7826TIP3    H144969   6.140   3.256   0.592 -0.3186 -0.2607  0.1346
 7826TIP3    H244970   6.096   3.364   0.688 -0.0864  0.8513 -0.9823
 7827TIP3   OH244971   3.341   3.998   5.643  0.0452  0.1770  0.0499
 7827TIP3    H144972   3.257   3.956   5.626 -0.1872 -0.1314  1.7656
 7827TIP3    H244973   3.385   4.000   5.558 -0.8062 -1.6254 -0.4710
 7828TIP3   OH244974   6.616   5.333  14.269 -0.6243 -0.1806  0.8041
 7828TIP3    H144975   6.578   5.384  14.197 -1.4082 -1.0002  0.6126
 7828TIP3    H244976   6.605   5.389  14.346  1.5065  1.3208  0.1063
 7829TIP3   OH244977   2.618   6.187  14.410  0.0915 -0.1214  0.3139
 7829TIP3    H144978   2.699   6.151  14.375  1.1371  2.1597  0.2163
 7829TIP3    H244979   2.592   6.254  14.347 -2.1456 -1.0581  0.1271
 7830TIP3   OH244980   3.575   4.585   0.397 -0.0653 -0.2206 -0.8076
 7830TIP3    H144981   3.520   4.654   0.435  0.2905 -1.2015  1.6401
 7830TIP3    H244982   3.664   4.613   0.416  0.1172 -0.8673 -0.7101
 7831TIP3   OH244983   2.859   6.248  12.215 -0.0585 -0.0662  0.2119
 7831TIP3    H144984   2.887   6.157  12.200  1.1572  0.0057  1.8016
 7831TIP3    H244985   2.776   6.241  12.262 -0.5218 -0.3238 -0.6193
 7832TIP3   OH244986   5.743   5.682  12.893  0.0809 -0.1279  0.2717
 7832TIP3    H144987   5.800   5.709  12.966  2.3445 -0.0988 -1.3925
 7832TIP3    H244988   5.794   5.617  12.846  0.5945  2.7146 -3.6001
 7833TIP3   OH244989   2.864   3.354  11.833  0.2087 -0.7233 -0.0804
 7833TIP3    H144990   2.790   3.294  11.843 -0.2163 -0.0478  1.0426
 7833TIP3    H244991   2.879   3.358  11.738 -0.7286 -1.4110 -0.2751
 7834TIP3   OH244992   4.329   0.114  12.462 -0.2697  0.3378  0.2375
 7834TIP3    H144993   4.374   0.098  12.380 -0.3381 -0.9016  0.4303
 7834TIP3    H244994   4.241   0.142  12.436  0.2772  1.8319 -0.1177
 7835TIP3   OH244995   5.202   6.002  11.301 -0.0318  0.9091  0.2668
 7835TIP3    H144996   5.236   6.022  11.214  1.9067 -1.2679  0.4238
 7835TIP3    H244997   5.279   5.975  11.352 -1.5792 -1.8927  1.4025
 7836TIP3   OH244998   3.253   3.073   0.064  0.5428  0.0705  0.0117
 7836TIP3    H144999   3.297   3.096   0.146  0.4245  1.6398 -0.3316
 7836TIP3    H245000   3.307   3.004   0.027  2.7350  1.8629 -0.3587
 7837TIP3   OH245001   5.919   5.471  12.868  0.1549 -0.0616  0.2418
 7837TIP3    H145002   5.985   5.533  12.838  0.8990 -1.5089 -1.2923
 7837TIP3    H245003   5.964   5.417  12.934 -0.5372  1.0682  1.6979
 7838TIP3   OH245004   5.404   1.244  12.649 -0.1758 -0.4013  0.2181
 7838TIP3    H145005   5.489   1.210  12.678  1.2436  0.9662 -2.0340
 7838TIP3    H245006   5.417   1.263  12.556 -2.4484  1.3981  0.1996
 7839TIP3   OH245007   5.399   0.976  17.117 -0.5801  0.6851 -0.1367
 7839TIP3    H145008   5.332   0.944  17.177 -0.2776  0.5088  0.1118
 7839TIP3    H245009   5.397   0.914  17.044 -1.1587  1.0765 -0.4552
 7840TIP3   OH245010   0.258   4.458  12.627  0.2373 -0.2873  0.2288
 7840TIP3    H145011   0.282   4.434  12.717 -0.6045 -2.8785 -0.1654
 7840TIP3    H245012   0.329   4.422  12.573 -0.1852 -0.3583 -0.2833
 7841TIP3   OH245013   4.136   0.533   4.807  0.1185  0.6929  0.0175
 7841TIP3    H145014   4.229   0.534   4.829  0.7828 -0.3382 -2.3944
 7841TIP3    H245015   4.123   0.612   4.754 -0.6480  1.3436  1.1172
 7842TIP3   OH245016   0.310   1.881   0.866 -0.0612  0.2524 -0.5533
 7842TIP3    H145017   0.238   1.826   0.897  0.0329  0.7752  0.6076
 7842TIP3    H245018   0.274   1.923   0.787 -0.2302 -1.2230 -1.3005
 7843TIP3   OH245019   5.067   6.805  13.518  0.7531  0.1242 -0.5147
 7843TIP3    H145020   4.995   6.866  13.535  1.4089  0.5942  0.6966
 7843TIP3    H245021   5.136   6.833  13.577  0.9562 -1.9877  0.3287
 7844TIP3   OH245022   5.499   3.199  15.629  0.1578 -0.0136  0.0059
 7844TIP3    H145023   5.439   3.231  15.562  0.7032  0.3267 -0.3257
 7844TIP3    H245024   5.457   3.222  15.712  0.7782  2.1251 -0.1977
 7845TIP3   OH245025   0.740   5.417  12.970 -0.7560  0.5468 -0.1890
 7845TIP3    H145026   0.777   5.393  13.055  2.0557  0.8635 -1.2274
 7845TIP3    H245027   0.720   5.510  12.978  0.8165  0.9175 -0.2588
 7846TIP3   OH245028   5.014   5.640   2.821 -0.3399  0.3851  0.2304
 7846TIP3    H145029   5.005   5.686   2.904 -0.5427  1.8076 -0.5559
 7846TIP3    H245030   5.107   5.620   2.815 -0.1592  1.1530  0.3535
 7847TIP3   OH245031   4.673   0.025   5.598 -0.6074 -0.5185  0.1241
 7847TIP3    H145032   4.677   0.023   5.693  0.3694 -1.3254  0.0864
 7847TIP3    H245033   4.678   0.118   5.576  0.4262 -0.3880  0.8339
 7848TIP3   OH245034   4.447   0.250   5.784 -0.3018 -0.1517  0.1985
 7848TIP3    H145035   4.357   0.267   5.811 -0.0892  0.0727  0.7777
 7848TIP3    H245036   4.456   0.155   5.786 -0.5554 -0.1792  0.0321
 7849TIP3   OH245037   4.349   3.363  13.181  0.6352 -0.2177 -0.0091
 7849TIP3    H145038   4.441   3.389  13.182  1.3408 -2.4822 -0.4895
 7849TIP3    H245039   4.350   3.272  13.152 -1.9214  0.3298 -2.2309
 7850TIP3   OH245040   4.078   1.593  15.871 -0.1488 -0.1061 -0.3167
 7850TIP3    H145041   4.056   1.536  15.796 -1.6035 -1.4876  1.0729
 7850TIP3    H245042   3.995   1.604  15.917  0.2933  2.4644 -0.0225
 7851TIP3   OH245043   5.351   5.003   2.252 -0.0586  0.3924  0.4653
 7851TIP3    H145044   5.397   4.928   2.216  3.7362  1.7280  1.9447
 7851TIP3    H245045   5.356   5.070   2.184  0.8433  0.7205  0.8319
 7852TIP3   OH245046   6.007   3.736  13.694 -0.2930 -0.0170  0.2023
 7852TIP3    H145047   5.950   3.786  13.753 -0.4167  0.2427 -0.1337
 7852TIP3    H245048   6.093   3.777  13.703  0.3175 -1.5595  2.1151
 7853TIP3   OH245049   2.683   5.339  13.407 -0.4469  0.5392  0.2122
 7853TIP3    H145050   2.746   5.385  13.463  1.0646 -1.1118 -0.0616
 7853TIP3    H245051   2.655   5.265  13.460  2.9182 -2.5639 -1.8710
 7854TIP3   OH245052   5.357   4.411  14.636 -0.1824 -0.1996 -0.2271
 7854TIP3    H145053   5.327   4.501  14.633  1.9192  0.5398 -1.1145
 7854TIP3    H245054   5.370   4.387  14.544 -2.4667 -2.1100 -0.1666
 7855TIP3   OH245055   0.009   1.964   4.974 -0.3160 -0.7663  0.8965
 7855TIP3    H145056  -0.027   2.045   5.007 -1.6324 -0.9986  0.0945
 7855TIP3    H245057   0.016   1.907   5.051 -0.5719 -0.3218  1.2508
 7856TIP3   OH245058   6.771   1.253   6.379 -0.3870  0.0012  0.5604
 7856TIP3    H145059   6.822   1.177   6.351  0.4602  0.6335  0.3408
 7856TIP3    H245060   6.708   1.267   6.309  0.8338  0.7587 -0.4314
 7857TIP3   OH245061   3.456   2.241  11.458 -0.0655 -0.5340  0.1786
 7857TIP3    H145062   3.477   2.318  11.511  0.7824  0.1615 -1.1370
 7857TIP3    H245063   3.541   2.200  11.440 -0.3174 -0.6299 -0.8324
 7858TIP3   OH245064   6.239   2.890  13.935  0.0604  0.1360 -0.0957
 7858TIP3    H145065   6.319   2.889  13.881 -1.0075  0.7331 -1.7903
 7858TIP3    H245066   6.218   2.798  13.949  0.4291 -0.0341 -0.6213
 7859TIP3   OH245067   3.343   4.149  12.576  0.1335 -0.0923 -0.0498
 7859TIP3    H145068   3.405   4.080  12.554  1.2394  0.3328  1.5841
 7859TIP3    H245069   3.303   4.119  12.658 -0.1342  0.7333  0.1244
 7860TIP3   OH245070   5.321   4.385  16.303  1.0567  0.1921 -0.2427
 7860TIP3    H145071   5.309   4.381  16.209 -0.3913 -1.1684 -0.0391
 7860TIP3    H245072   5.257   4.450  16.333  0.8101 -0.1185 -0.0949
 7861TIP3   OH245073   0.421   1.439  15.906  0.5876 -0.6752 -0.0256
 7861TIP3    H145074   0.461   1.499  15.844  0.7491 -0.7774 -0.0208
 7861TIP3    H245075   0.476   1.361  15.904 -0.1422 -1.1967 -0.7255
 7862TIP3   OH245076   1.588   4.080   6.388 -0.5959 -0.0322 -0.0125
 7862TIP3    H145077   1.680   4.103   6.391 -0.0421 -1.7845 -1.4003
 7862TIP3    H245078   1.546   4.139   6.450  1.3079  1.4096 -0.0102
 7863TIP3   OH245079   5.942   3.087  11.534 -0.3173 -0.0065 -0.4337
 7863TIP3    H145080   5.958   3.033  11.612  0.3330  1.0613  0.1920
 7863TIP3    H245081   5.939   3.177  11.567  1.2429  0.5954 -1.7997
 7864TIP3   OH245082   5.258   6.693   0.539 -0.3132 -0.5473  0.2584
 7864TIP3    H145083   5.274   6.776   0.494  1.0203 -1.5371 -1.2067
 7864TIP3    H245084   5.189   6.713   0.602 -0.2554  1.5864 -0.2686
 7865TIP3   OH245085   1.150   4.282  12.933 -0.3391 -0.2701 -0.4357
 7865TIP3    H145086   1.191   4.195  12.934  1.8923  0.4501 -4.6973
 7865TIP3    H245087   1.223   4.343  12.921 -1.9227  2.2382  1.5973
 7866TIP3   OH245088   6.212   3.017  16.825  0.1545 -0.0512  0.3407
 7866TIP3    H145089   6.155   2.969  16.765 -1.1083  0.4983  1.0453
 7866TIP3    H245090   6.272   3.065  16.769 -2.8785  2.8639 -0.7770
 7867TIP3   OH245091   1.945   4.264   0.257 -0.1175 -0.4843 -0.5128
 7867TIP3    H145092   1.946   4.172   0.229 -0.0565 -1.2829  1.9116
 7867TIP3    H245093   1.874   4.268   0.321  0.1812  1.0819 -0.2542
 7868TIP3   OH245094   5.997   2.761   4.172  0.1906 -0.8314  0.0387
 7868TIP3    H145095   5.994   2.789   4.081  0.0076  0.3516  0.3958
 7868TIP3    H245096   5.943   2.682   4.174 -1.7253  0.3817 -0.4790
 7869TIP3   OH245097   0.065   5.357  16.306  0.8034  0.3541  0.0233
 7869TIP3    H145098   0.071   5.306  16.387 -0.9594  0.4514  0.2588
 7869TIP3    H245099   0.008   5.305  16.249  0.1591  1.3449 -0.2732
 7870TIP3   OH245100   2.641   3.343  16.739 -0.0847 -0.0151 -0.2137
 7870TIP3    H145101   2.675   3.341  16.829  0.6380 -0.2182 -0.4899
 7870TIP3    H245102   2.631   3.251  16.715 -1.0227  0.0378 -0.0707
 7871TIP3   OH245103   3.797   4.066  11.387  0.0564 -0.8345  0.1415
 7871TIP3    H145104   3.860   3.994  11.381 -1.2062 -1.8741 -1.5129
 7871TIP3    H245105   3.726   4.030  11.441  0.7354  0.2862  1.8933
 7872TIP3   OH245106   5.386   2.024   1.903  0.6659 -0.0276  0.4998
 7872TIP3    H145107   5.340   1.981   1.975  0.9814 -0.6068  0.3607
 7872TIP3    H245108   5.370   1.968   1.827  1.7208 -0.3234  0.4809
 7873TIP3   OH245109   0.199   2.709   2.660  0.1640 -0.3542  0.7074
 7873TIP3    H145110   0.268   2.729   2.722  0.0671 -0.3597  0.8184
 7873TIP3    H245111   0.241   2.714   2.574  0.7762 -2.1898  0.8517
 7874TIP3   OH245112   2.456   6.340  15.224 -0.0326 -0.3324  0.2666
 7874TIP3    H145113   2.493   6.256  15.251  0.6936  0.3692  1.5563
 7874TIP3    H245114   2.499   6.404  15.280  1.6221  1.2777 -2.6062
 7875TIP3   OH245115   2.657   1.674   6.682  0.1885 -0.8443 -0.1991
 7875TIP3    H145116   2.673   1.580   6.694  1.3825 -0.6213  0.0437
 7875TIP3    H245117   2.562   1.680   6.670  0.2178 -2.2085 -1.4500
 7876TIP3   OH245118   4.039   6.735   4.232 -0.4206  0.0401 -0.3710
 7876TIP3    H145119   3.975   6.665   4.221 -0.5087  0.0992 -0.2238
 7876TIP3    H245120   3.999   6.811   4.192 -0.3691  0.0345 -0.4345
 7877TIP3   OH245121   4.347   4.513   0.120  0.5327 -0.2648 -0.4205
 7877TIP3    H145122   4.338   4.491   0.213 -2.4039 -0.9160 -0.7437
 7877TIP3    H245123   4.351   4.609   0.118  0.8162 -0.2506  0.3742
 7878TIP3   OH245124   3.195   5.827   2.053 -0.0333 -0.1774  0.1078
 7878TIP3    H145125   3.157   5.746   2.089  0.9275 -0.4732  0.4925
 7878TIP3    H245126   3.288   5.807   2.043  0.0380  0.5572 -0.7475
 7879TIP3   OH245127   4.724   4.013   1.048  0.3159 -0.1423  0.4050
 7879TIP3    H145128   4.724   3.966   0.965 -3.1535 -0.3236  0.3849
 7879TIP3    H245129   4.783   4.086   1.034  1.6087 -1.4437 -1.3927
 7880TIP3   OH245130   4.309   5.178  15.154 -0.2851 -0.6132 -0.8544
 7880TIP3    H145131   4.226   5.226  15.161  0.1325  0.6666 -3.5578
 7880TIP3    H245132   4.356   5.222  15.084  2.7138 -1.3541  0.5438
 7881TIP3   OH245133   2.861   3.174  12.291 -0.0333 -0.0650 -0.3024
 7881TIP3    H145134   2.861   3.259  12.249 -2.5275  0.1391 -0.0706
 7881TIP3    H245135   2.916   3.185  12.369 -0.5945  1.4574 -0.0925
 7882TIP3   OH245136   1.520   4.967  16.585 -0.1306  0.5581 -0.1840
 7882TIP3    H145137   1.510   4.886  16.534  1.6166  0.7899 -0.9507
 7882TIP3    H245138   1.430   4.992  16.607 -0.6949 -1.8604  0.5390
 7883TIP3   OH245139   2.729   5.909  13.677  0.1893  0.0713 -0.1569
 7883TIP3    H145140   2.659   5.875  13.623 -1.2987  0.0345  1.6957
 7883TIP3    H245141   2.726   6.004  13.663 -2.1830  0.4146  1.9818
 7884TIP3   OH245142   2.476   6.704  14.582 -0.1652  0.1227  0.3408
 7884TIP3    H145143   2.520   6.748  14.509 -1.1008  0.8236  0.1850
 7884TIP3    H245144   2.386   6.692  14.552 -0.6506  0.7181  1.4866
 7885TIP3   OH245145   3.901   5.672   0.850  0.2799 -0.0703 -0.3768
 7885TIP3    H145146   3.900   5.647   0.943  0.5372 -1.4212 -0.7292
 7885TIP3    H245147   3.810   5.691   0.830  0.2353  0.3508  0.1709
 7886TIP3   OH245148   5.483   2.785  12.769  0.0441  0.6133  0.2158
 7886TIP3    H145149   5.448   2.745  12.689  0.7805 -0.4644  0.4165
 7886TIP3    H245150   5.414   2.773  12.834 -1.7365  3.8460 -0.8157
 7887TIP3   OH245151   5.172   2.454   3.940 -0.2011 -0.2763 -0.0302
 7887TIP3    H145152   5.164   2.499   4.024 -2.2895 -1.1817  0.2940
 7887TIP3    H245153   5.168   2.361   3.961 -1.6981 -0.5063 -1.1811
 7888TIP3   OH245154   6.231   6.107   6.002 -0.0510  0.1817 -0.3937
 7888TIP3    H145155   6.245   6.090   5.909 -1.4267  1.1787 -0.8124
 7888TIP3    H245156   6.226   6.203   6.008  0.6620  0.1573  0.8141
 7889TIP3   OH245157   6.475   0.127  12.059 -1.0089 -0.0886  0.2712
 7889TIP3    H145158   6.443   0.037  12.057 -0.9591 -0.0948 -0.5136
 7889TIP3    H245159   6.570   0.119  12.068 -1.0762 -0.0941  1.0517
 7890TIP3   OH245160   4.988   1.001   3.298  0.3520  0.2807  0.0163
 7890TIP3    H145161   4.987   1.091   3.265  1.4632 -0.0612 -1.0001
 7890TIP3    H245162   4.997   0.947   3.220  1.7094 -0.6230  0.7630
 7891TIP3   OH245163   3.959   3.562   3.099 -0.0108  0.2245  0.3139
 7891TIP3    H145164   3.870   3.587   3.077  0.2733 -1.1080 -3.0444
 7891TIP3    H245165   4.012   3.640   3.080 -0.3177  0.6638  1.2302
 7892TIP3   OH245166   0.832   1.695   1.977  0.2451  0.2554 -0.3150
 7892TIP3    H145167   0.820   1.764   1.912  0.9604  0.8939  0.2019
 7892TIP3    H245168   0.923   1.666   1.965  0.5093  0.6523  0.6323
 7893TIP3   OH245169   5.463   5.878   2.230  0.0877 -0.6298 -0.6828
 7893TIP3    H145170   5.438   5.967   2.205  1.7877 -0.3318 -1.4937
 7893TIP3    H245171   5.546   5.888   2.277 -0.0216 -1.7332 -0.2203
 7894TIP3   OH245172   4.205   3.897   0.455 -0.3943 -0.1728  0.3531
 7894TIP3    H145173   4.288   3.907   0.410 -0.1241 -2.9407  0.0289
 7894TIP3    H245174   4.146   3.960   0.413  1.1245  0.7420 -0.4600
 7895TIP3   OH245175   0.521   3.081   3.519 -0.3188  0.2180  0.4792
 7895TIP3    H145176   0.563   3.058   3.436  0.3120 -2.5548  1.4574
 7895TIP3    H245177   0.589   3.129   3.567 -1.1980  3.2597 -1.0865
 7896TIP3   OH245178   5.142   1.997  16.739 -0.2419  0.7028 -0.2698
 7896TIP3    H145179   5.165   1.959  16.824 -0.8110  0.9256 -0.0066
 7896TIP3    H245180   5.066   2.052  16.758 -1.1101 -0.1691 -1.1309
 7897TIP3   OH245181   3.791   4.966  13.865 -0.3852 -1.1018  0.0446
 7897TIP3    H145182   3.702   4.929  13.871 -0.8275  0.0139  0.6213
 7897TIP3    H245183   3.782   5.037  13.802 -0.2172 -0.1141  1.1119
 7898TIP3   OH245184   6.011   1.675   2.519 -0.7193  0.4416  0.3173
 7898TIP3    H145185   6.004   1.586   2.554  0.5336  0.5697  0.9440
 7898TIP3    H245186   5.995   1.732   2.594 -0.3328  0.7367  0.1809
 7899TIP3   OH245187   4.688   0.808  12.343 -0.4285 -0.7210  0.2660
 7899TIP3    H145188   4.646   0.844  12.265  1.8870  0.0458 -0.6930
 7899TIP3    H245189   4.668   0.715  12.339 -2.4646 -0.3270  0.1729
 7900TIP3   OH245190   3.756   4.493  16.385  0.1894 -0.6090 -0.2202
 7900TIP3    H145191   3.688   4.522  16.446  1.3373 -0.8603  1.2162
 7900TIP3    H245192   3.725   4.407  16.356 -0.6037 -0.2826 -0.3895
 7901TIP3   OH245193   2.654   1.251   2.528 -0.1975  0.2293 -0.0846
 7901TIP3    H145194   2.709   1.209   2.595 -0.8888 -0.2288  0.2047
 7901TIP3    H245195   2.689   1.219   2.445  1.1652  1.3958 -0.0115
 7902TIP3   OH245196   6.034   6.516  11.108 -0.5715 -0.1666 -0.0765
 7902TIP3    H145197   5.945   6.495  11.137 -0.5292 -0.9537 -0.4920
 7902TIP3    H245198   6.049   6.459  11.033  0.1495  0.2363 -0.2516
 7903TIP3   OH245199   0.012   1.261   1.059 -0.1922  0.2091  0.4692
 7903TIP3    H145200  -0.045   1.335   1.039  0.1760 -0.1312 -2.3068
 7903TIP3    H245201   0.003   1.247   1.153 -5.0430 -0.0990  0.2113
 7904TIP3   OH245202   1.845   2.241  14.348  0.3994  0.2527 -0.0310
 7904TIP3    H145203   1.752   2.219  14.342  0.3654  0.3978 -0.0561
 7904TIP3    H245204   1.884   2.170  14.399  0.0021  0.9471  1.3061
 7905TIP3   OH245205   1.381   2.318  13.295 -0.3096 -0.3335 -0.5534
 7905TIP3    H145206   1.415   2.281  13.213 -0.7809 -0.7511 -0.5592
 7905TIP3    H245207   1.289   2.334  13.278 -0.8672 -2.1609  0.4893
 7906TIP3   OH245208   2.267   3.515   5.923 -0.0979 -0.4248 -0.2124
 7906TIP3    H145209   2.181   3.520   5.883 -0.4561 -1.5266  0.3809
 7906TIP3    H245210   2.250   3.486   6.013  0.9461 -1.4686 -0.3324
 7907TIP3   OH245211   4.230   6.490   0.779 -0.5298 -0.3017 -0.6796
 7907TIP3    H145212   4.265   6.558   0.722 -2.6530  0.2172 -1.4409
 7907TIP3    H245213   4.177   6.537   0.843 -1.7972 -1.1707 -1.0458
 7908TIP3   OH245214   2.796   0.452   5.143 -0.3226  0.2586  0.3539
 7908TIP3    H145215   2.800   0.415   5.055  2.5965 -1.0963  0.9482
 7908TIP3    H245216   2.746   0.533   5.132 -2.3204 -1.1463 -1.9994
 7909TIP3   OH245217   1.565   0.781   0.121  0.2735  0.6886  0.1272
 7909TIP3    H145218   1.481   0.781   0.167 -0.0239  2.0514 -0.3624
 7909TIP3    H245219   1.621   0.723   0.172 -1.5485 -1.9924 -0.6889
 7910TIP3   OH245220   4.785   0.330   1.331 -0.6724 -0.0683  0.0484
 7910TIP3    H145221   4.793   0.348   1.424 -0.8974 -0.6864  0.1900
 7910TIP3    H245222   4.842   0.394   1.289  0.5806 -0.7104  0.7075
 7911TIP3   OH245223   4.607   5.070  16.132  0.0854  0.3778  0.2766
 7911TIP3    H145224   4.524   5.053  16.177  0.9782 -1.6973  1.2727
 7911TIP3    H245225   4.653   4.986  16.133  1.6505  1.1349 -1.4546
 7912TIP3   OH245226   5.339   3.550   1.371 -0.3046 -0.4666 -0.2118
 7912TIP3    H145227   5.244   3.554   1.359 -0.1471 -0.5424 -1.6798
 7912TIP3    H245228   5.355   3.600   1.451 -1.6374 -1.0526  0.4483
 7913TIP3   OH245229   0.360   5.481  12.801 -0.3060 -0.3819  0.4311
 7913TIP3    H145230   0.375   5.394  12.839 -0.6176  0.0911  1.6913
 7913TIP3    H245231   0.447   5.513  12.779 -0.0526 -0.4133  1.3619
 7914TIP3   OH245232   6.657   1.421  14.032 -0.4436 -0.1900 -0.1107
 7914TIP3    H145233   6.593   1.414  13.960  1.0136 -0.7751 -1.4223
 7914TIP3    H245234   6.694   1.508  14.022 -0.2696 -0.2571 -0.0518
 7915TIP3   OH245235   5.567   5.827   1.822  0.1961 -0.7569 -0.1796
 7915TIP3    H145236   5.500   5.812   1.755  0.9147  0.0581 -1.0972
 7915TIP3    H245237   5.628   5.889   1.783  3.0543 -3.4949 -0.4888
 7916TIP3   OH245238   1.952   4.491  11.834  0.2742  0.0979 -0.3016
 7916TIP3    H145239   1.913   4.539  11.907  2.0640  0.2118  0.6273
 7916TIP3    H245240   1.989   4.558  11.777 -0.2376 -0.0358 -0.7972
 7917TIP3   OH245241   6.055   0.927   1.315  0.7146  0.0987 -0.1665
 7917TIP3    H145242   5.968   0.967   1.306  1.1097  1.3545  1.3767
 7917TIP3    H245243   6.115   1.000   1.329  2.5121 -0.4795 -3.7463
 7918TIP3   OH245244   2.022   4.856   4.842 -0.7311 -0.6921 -0.2014
 7918TIP3    H145245   2.098   4.822   4.890  0.1637  0.6086 -0.6639
 7918TIP3    H245246   1.947   4.821   4.891  0.1467 -1.3363  0.7499
 7919TIP3   OH245247   2.911   5.408   1.585  1.0828 -0.4890 -0.2118
 7919TIP3    H145248   2.831   5.426   1.633  2.0213 -1.0470  1.6491
 7919TIP3    H245249   2.881   5.375   1.500 -0.7154 -2.0467  0.9365
 7920TIP3   OH245250   4.980   6.178  15.648 -0.2269 -1.0001  0.3813
 7920TIP3    H145251   4.991   6.242  15.718 -2.9917 -0.6597  0.6197
 7920TIP3    H245252   5.061   6.126  15.650  1.9824  2.1739  0.3992
 7921TIP3   OH245253   3.259   6.216   4.034 -0.3711 -0.5138 -0.5431
 7921TIP3    H145254   3.244   6.124   4.055 -0.7961 -0.1515  0.8390
 7921TIP3    H245255   3.192   6.263   4.082  0.8633  0.6446  0.1275
 7922TIP3   OH245256   3.375   1.439   1.706  0.1478  0.0937 -0.0185
 7922TIP3    H145257   3.315   1.364   1.711  0.9783 -0.6072 -0.2227
 7922TIP3    H245258   3.462   1.399   1.704  0.6595  1.1131  1.0642
 7923TIP3   OH245259   3.982   4.412  14.079  0.2838 -0.5095 -1.0793
 7923TIP3    H145260   4.019   4.461  14.006  0.2752  1.4658  0.1515
 7923TIP3    H245261   3.923   4.348  14.039 -0.0341  0.7978 -2.7751
 7924TIP3   OH245262   4.232   0.315   1.391  0.2826  0.0674 -0.1210
 7924TIP3    H145263   4.309   0.371   1.392  1.2780 -1.2491  0.6563
 7924TIP3    H245264   4.184   0.339   1.470  1.7295 -1.4496  1.3067
 7925TIP3   OH245265   4.413   4.671  16.100  0.1113 -0.1036 -0.4552
 7925TIP3    H145266   4.503   4.647  16.079  0.3309  0.0635  0.2977
 7925TIP3    H245267   4.418   4.713  16.185 -0.8863 -1.6364  0.4162
 7926TIP3   OH245268   6.053   4.236   0.242  0.7031 -0.0308  0.0309
 7926TIP3    H145269   6.006   4.268   0.165  1.5080 -1.2519 -1.0078
 7926TIP3    H245270   5.996   4.169   0.279  1.0375 -0.6040 -0.4776
 7927TIP3   OH245271   2.052   0.387  16.885 -0.2085  0.1351  0.1737
 7927TIP3    H145272   2.119   0.413  16.822 -0.8657  1.5923  0.0173
 7927TIP3    H245273   2.048   0.292  16.879  1.2038  0.0927 -0.4616
 7928TIP3   OH245274   4.421   0.995   3.766  0.2475 -0.2642  0.1089
 7928TIP3    H145275   4.434   1.002   3.672 -0.2385 -0.2327  0.0444
 7928TIP3    H245276   4.412   1.085   3.797  1.3499 -0.2079  0.3299
 7929TIP3   OH245277   0.245   1.635   2.684 -0.4709  0.2412  0.3403
 7929TIP3    H145278   0.188   1.690   2.630 -1.7321 -0.0974  1.2821
 7929TIP3    H245279   0.186   1.571   2.724  0.7272 -0.7441  0.5755
 7930TIP3   OH245280   0.980   4.301  16.056 -0.2558  0.5297 -0.0772
 7930TIP3    H145281   0.896   4.342  16.079 -0.4251  0.7836 -1.1060
 7930TIP3    H245282   1.010   4.350  15.980 -0.4512 -1.2246 -1.3274
 7931TIP3   OH245283   1.485   0.709   4.759 -0.2491  0.8750 -0.6153
 7931TIP3    H145284   1.553   0.725   4.823 -0.2309 -0.1150 -0.3637
 7931TIP3    H245285   1.526   0.650   4.695 -1.1980 -0.7006  0.1805
 7932TIP3   OH245286   1.950   5.308  12.842  0.0473  0.6835 -0.2146
 7932TIP3    H145287   1.900   5.332  12.919 -0.5290  0.7576 -0.6102
 7932TIP3    H245288   1.976   5.217  12.858 -0.4672  0.5463 -0.1404
 7933TIP3   OH245289   0.858   3.679  14.292 -0.9149  0.0618  0.4751
 7933TIP3    H145290   0.850   3.771  14.319 -0.5440  0.2506 -0.0280
 7933TIP3    H245291   0.884   3.684  14.200 -0.3566 -0.5383  0.5911
 7934TIP3   OH245292   2.784   2.609  13.344 -0.1995  0.4710  0.1271
 7934TIP3    H145293   2.728   2.649  13.410 -0.4916  0.3983 -0.0767
 7934TIP3    H245294   2.742   2.525  13.324 -2.5805  2.2192 -3.2644
 7935TIP3   OH245295   5.752   5.690   3.151  0.0817  0.4148  0.0785
 7935TIP3    H145296   5.675   5.695   3.208  0.4083 -0.3277  0.6008
 7935TIP3    H245297   5.809   5.626   3.193  0.7380  0.5316 -0.6085
 7936TIP3   OH245298   4.505   1.427   4.239  0.1700 -0.1857  0.4234
 7936TIP3    H145299   4.530   1.341   4.203  1.5362 -0.3037  1.5558
 7936TIP3    H245300   4.517   1.418   4.333 -2.1683  0.4870  0.8571
 7937TIP3   OH245301   5.363   3.162  11.264  0.5407  0.1374  0.4496
 7937TIP3    H145302   5.309   3.237  11.238  0.9173  0.9405  1.9014
 7937TIP3    H245303   5.315   3.086  11.231  0.3034  1.0005 -1.3315
 7938TIP3   OH245304   0.924   2.330  13.653  0.3992 -0.1072  0.9136
 7938TIP3    H145305   0.860   2.345  13.723 -1.7194 -2.3108 -0.3560
 7938TIP3    H245306   0.883   2.367  13.575  1.9472  0.8130  0.4987
 7939TIP3   OH245307   5.666   4.850   4.504  0.1094 -0.4383 -0.3946
 7939TIP3    H145308   5.677   4.788   4.576  1.7490  0.7916  0.4568
 7939TIP3    H245309   5.681   4.936   4.543  1.2213  0.2499 -2.2296
 7940TIP3   OH245310   6.262   0.791  12.303 -0.9426  0.3294  0.2069
 7940TIP3    H145311   6.338   0.845  12.282  0.3545 -0.5479  2.2981
 7940TIP3    H245312   6.289   0.702  12.282 -2.0741  0.1794 -0.6945
 7941TIP3   OH245313   6.033   3.824   3.913  0.1119  0.0129  0.1558
 7941TIP3    H145314   6.029   3.789   3.824 -1.3502  0.2587  0.1055
 7941TIP3    H245315   6.038   3.919   3.901 -0.3685  0.0615  0.3360
 7942TIP3   OH245316   4.282   4.904   5.624 -0.3886  0.1416  0.2589
 7942TIP3    H145317   4.212   4.928   5.685 -0.9123 -1.1527  0.2085
 7942TIP3    H245318   4.293   4.982   5.569 -0.4193  1.0562  1.5162
 7943TIP3   OH245319   6.751   6.233   5.018  0.3662 -0.1082  0.0811
 7943TIP3    H145320   6.808   6.297   5.061  1.1616 -0.5971 -0.2106
 7943TIP3    H245321   6.804   6.199   4.946 -0.0261 -1.1178  0.2540
 7944TIP3   OH245322   5.280   5.380  11.530 -0.0755 -0.1297  0.2399
 7944TIP3    H145323   5.224   5.456  11.517  1.7019  1.1605 -0.2259
 7944TIP3    H245324   5.234   5.327  11.596 -0.6660  2.0659  1.6787
 7945TIP3   OH245325   0.532   1.539   5.960 -0.2898  0.9188 -0.3798
 7945TIP3    H145326   0.472   1.533   6.034  0.8622 -0.6068  0.4985
 7945TIP3    H245327   0.619   1.522   5.998  0.0538 -3.0966 -2.4132
 7946TIP3   OH245328   1.190   2.305   1.990  0.0217 -0.1278  0.2701
 7946TIP3    H145329   1.215   2.332   2.079  0.0268  0.3379  0.1291
 7946TIP3    H245330   1.158   2.215   2.001 -0.0374 -0.0536  0.7533
 7947TIP3   OH245331   4.012   1.039  14.733  0.2104 -0.0505 -0.2011
 7947TIP3    H145332   4.004   1.104  14.802  0.8397 -1.1769  0.9620
 7947TIP3    H245333   3.931   0.989  14.738 -1.1721  1.7489 -2.3600
 7948TIP3   OH245334   3.237   4.312  10.926  0.4682  0.3183 -0.2669
 7948TIP3    H145335   3.160   4.262  10.954  0.4850 -0.1240 -0.9810
 7948TIP3    H245336   3.234   4.392  10.979 -1.6034  1.2530 -1.6471
 7949TIP3   OH245337   1.198   1.237   4.402  0.0039 -0.2347 -0.7165
 7949TIP3    H145338   1.120   1.184   4.388  0.1368 -0.1057 -2.0490
 7949TIP3    H245339   1.184   1.278   4.487 -0.7043 -1.3497 -0.2685
 7950TIP3   OH245340   3.196   3.933   5.008  0.2706  0.2411 -0.1490
 7950TIP3    H145341   3.157   3.903   4.925  0.5940 -0.0468 -0.1983
 7950TIP3    H245342   3.145   4.011   5.031 -0.1969 -0.0044 -0.3244
 7951TIP3   OH245343   1.662   3.774  16.890 -0.5274  0.0119  0.3155
 7951TIP3    H145344   1.580   3.736  16.920 -0.8926  1.7139  1.6690
 7951TIP3    H245345   1.716   3.780  16.969  0.7824 -0.7420 -0.4805
 7952TIP3   OH245346   0.922   2.371   0.132  0.0336 -0.0528  0.0124
 7952TIP3    H145347   0.931   2.293   0.186 -1.2186  0.3278  0.8210
 7952TIP3    H245348   0.999   2.424   0.155 -0.5065  0.1337  1.5201
 7953TIP3   OH245349   4.096   1.975  14.115 -0.0757 -0.0105  0.5189
 7953TIP3    H145350   4.064   2.036  14.049  0.3250 -2.7638 -2.4571
 7953TIP3    H245351   4.032   1.904  14.116 -0.8696  0.5458  4.3289
 7954TIP3   OH245352   3.463   3.678  11.474  0.0393 -0.6874 -0.0294
 7954TIP3    H145353   3.374   3.705  11.495  0.1323  2.7335 -3.0009
 7954TIP3    H245354   3.453   3.608  11.409 -0.4485 -0.8219  0.1848
 7955TIP3   OH245355   3.466   3.607  13.837  0.4013 -1.1079 -1.0729
 7955TIP3    H145356   3.410   3.668  13.789  0.7050 -0.1369 -0.2281
 7955TIP3    H245357   3.526   3.663  13.886  0.3984 -2.0808  0.0901
 7956TIP3   OH245358   4.371   4.944   3.292  0.3807  0.5262 -0.0954
 7956TIP3    H145359   4.420   5.026   3.287  1.5472 -0.1165  0.5201
 7956TIP3    H245360   4.370   4.923   3.385  0.1546 -0.2019 -0.2598
 7957TIP3   OH245361   4.755   3.407   4.182 -0.4186  0.4427 -0.5394
 7957TIP3    H145362   4.734   3.488   4.134 -0.0588  0.7174 -0.2323
 7957TIP3    H245363   4.692   3.405   4.254 -2.7719 -1.3092 -2.4501
 7958TIP3   OH245364   1.149   0.807   5.627 -0.4953  0.8463 -0.0878
 7958TIP3    H145365   1.148   0.857   5.545 -1.0753  0.5918 -0.2405
 7958TIP3    H245366   1.103   0.863   5.690 -1.5567  0.3187 -0.3776
 7959TIP3   OH245367   2.124   5.389  13.906  0.6499 -0.0891  0.4010
 7959TIP3    H145368   2.211   5.351  13.914  0.9602  0.5767  0.2620
 7959TIP3    H245369   2.084   5.377  13.992  1.1450  0.2450  0.6806
 7960TIP3   OH245370   0.882   6.153   5.764  0.2008 -0.1971 -0.2516
 7960TIP3    H145371   0.849   6.172   5.851  0.8141 -0.7725  0.1176
 7960TIP3    H245372   0.972   6.184   5.764  0.5521 -1.1877 -0.3113
 7961TIP3   OH245373   6.840   3.231  11.614  0.0171  0.1794  0.1649
 7961TIP3    H145374   6.747   3.251  11.602  0.1706  0.4991 -0.5501
 7961TIP3    H245375   6.847   3.137  11.599 -0.1926  0.1454  0.2734
 7962TIP3   OH245376   3.534   0.636   0.211  0.3658  0.1474  0.4930
 7962TIP3    H145377   3.587   0.560   0.234  3.2960  1.2183 -1.9426
 7962TIP3    H245378   3.533   0.636   0.115 -3.6132  0.6477  0.3628
 7963TIP3   OH245379   1.241   4.718   0.792  0.1975 -0.0138 -0.2187
 7963TIP3    H145380   1.317   4.660   0.787  0.1479 -0.3028  1.7246
 7963TIP3    H245381   1.171   4.664   0.827 -0.3190  0.7877  0.0113
 7964TIP3   OH245382   1.657   0.080  16.783  0.1599  0.5108 -0.3918
 7964TIP3    H145383   1.649   0.151  16.846  0.2979  0.6012 -0.4758
 7964TIP3    H245384   1.627   0.002  16.830 -0.5200  0.7177 -0.4704
 7965TIP3   OH245385   3.710   6.748   0.926  0.1041 -0.2075  0.3190
 7965TIP3    H145386   3.769   6.779   0.994 -0.5863 -1.7727  1.7405
 7965TIP3    H245387   3.734   6.656   0.914  0.9396  0.2773 -2.4338
 7966TIP3   OH245388   6.444   4.567   2.083 -0.2626 -0.2151  0.1907
 7966TIP3    H145389   6.429   4.635   2.148 -0.6705  0.1224 -0.2433
 7966TIP3    H245390   6.532   4.535   2.101 -0.6083 -0.5665  1.2927
 7967TIP3   OH245391   1.007   5.330  14.195  0.0367  0.3783 -0.3266
 7967TIP3    H145392   0.933   5.303  14.140 -0.5611 -0.4679  0.8417
 7967TIP3    H245393   0.996   5.279  14.275  2.3724 -0.3992 -0.4370
 7968TIP3   OH245394   1.045   6.352   4.781 -0.2288 -0.6225  0.1880
 7968TIP3    H145395   0.961   6.325   4.817 -0.1733 -0.4171  0.4735
 7968TIP3    H245396   1.108   6.291   4.818 -0.4894 -2.0020 -1.5297
 7969TIP3   OH245397   4.775   2.721   1.504 -0.0245 -0.5646  0.2404
 7969TIP3    H145398   4.844   2.766   1.454  1.1678 -1.3433  1.1176
 7969TIP3    H245399   4.818   2.643   1.538 -1.2783 -0.9075  1.0897
 7970TIP3   OH245400   2.765   0.141  12.309 -0.3671 -0.0621 -0.0910
 7970TIP3    H145401   2.704   0.102  12.246 -0.0839 -0.7356  0.0451
 7970TIP3    H245402   2.851   0.107  12.285 -0.3296 -0.7931  0.9956
 7971TIP3   OH245403   6.672   4.982  13.969 -0.0802  0.0222 -0.0562
 7971TIP3    H145404   6.604   4.975  14.036 -1.1684 -0.3914 -1.1844
 7971TIP3    H245405   6.676   5.075  13.948  0.5035  0.2070  0.7930
 7972TIP3   OH245406   0.318   0.064   3.614  0.3919 -0.3759  0.2168
 7972TIP3    H145407   0.231   0.031   3.633  0.4827  0.0325  1.4092
 7972TIP3    H245408   0.349   0.011   3.540 -0.4529 -1.2031  0.4499
 7973TIP3   OH245409   2.332   4.167  16.494 -0.4147 -0.5153 -0.0989
 7973TIP3    H145410   2.295   4.212  16.418  3.1949  0.7335 -1.3555
 7973TIP3    H245411   2.289   4.208  16.569 -1.7108  0.6061 -1.3845
 7974TIP3   OH245412   6.504   6.097  16.544  0.3008 -0.3219  0.2354
 7974TIP3    H145413   6.462   6.021  16.585  0.7344  0.1551  1.6124
 7974TIP3    H245414   6.513   6.160  16.615 -1.0524  1.4711 -1.1013
 7975TIP3   OH245415   6.304   2.988   0.129  0.3467 -0.7589 -0.5376
 7975TIP3    H145416   6.348   2.904   0.126 -0.7358 -1.3543 -3.2701
 7975TIP3    H245417   6.321   3.027   0.043 -0.5481  1.0769  0.0562
 7976TIP3   OH245418   1.757   2.894   3.127  0.2069  0.0470  0.9862
 7976TIP3    H145419   1.665   2.875   3.142  0.0169  0.3778  0.2981
 7976TIP3    H245420   1.779   2.961   3.192 -0.3452  0.7838  0.4306
 7977TIP3   OH245421   2.439   0.842  13.241 -0.2024 -0.3201  0.0872
 7977TIP3    H145422   2.468   0.751  13.242 -0.9544 -0.6165 -1.4068
 7977TIP3    H245423   2.501   0.886  13.183  0.0482  0.0901  0.6546
 7978TIP3   OH245424   0.134   5.241   4.247 -0.8291  0.3816  0.0104
 7978TIP3    H145425   0.065   5.278   4.191  1.2284  2.0179 -1.5812
 7978TIP3    H245426   0.133   5.296   4.325 -2.1236 -0.4258  0.6109
 7979TIP3   OH245427   3.238   4.408  14.859 -0.4581 -0.7857  0.2405
 7979TIP3    H145428   3.200   4.436  14.942  1.1146 -0.4639  0.9058
 7979TIP3    H245429   3.299   4.338  14.884  0.9678  0.1759 -0.4441
 7980TIP3   OH245430   1.627   0.837  10.639  0.6345  0.3346  0.2316
 7980TIP3    H145431   1.687   0.877  10.575  1.5770 -1.2133  0.1028
 7980TIP3    H245432   1.560   0.795  10.585 -1.2516  2.8876  0.3779
 7981TIP3   OH245433   4.445   2.509  11.985 -0.5836 -0.4011 -0.0005
 7981TIP3    H145434   4.352   2.520  12.004 -0.5138 -0.4490  0.3782
 7981TIP3    H245435   4.475   2.445  12.049 -0.3614 -0.6411 -0.3410
 7982TIP3   OH245436   3.297   4.668  15.776 -0.1438  0.1955 -0.0153
 7982TIP3    H145437   3.276   4.577  15.798  1.2369  0.3554  2.3376
 7982TIP3    H245438   3.223   4.718  15.808 -1.1651 -0.0747 -1.8073
 7983TIP3   OH245439   1.140   6.400   6.111  0.4678 -0.1269 -0.3131
 7983TIP3    H145440   1.047   6.420   6.122  0.6798  1.3419 -1.1013
 7983TIP3    H245441   1.147   6.308   6.140 -0.6570  0.6075  2.7263
 7984TIP3   OH245442   1.807   5.411   0.802 -0.2564 -0.0420  0.4552
 7984TIP3    H145443   1.858   5.491   0.812 -0.7504  0.2084  1.0800
 7984TIP3    H245444   1.745   5.413   0.875 -2.0658  0.3223 -1.0120
 7985TIP3   OH245445   5.618   2.221  11.979 -0.3268  0.4686  0.3060
 7985TIP3    H145446   5.584   2.207  11.890  0.3426 -0.1214  0.1317
 7985TIP3    H245447   5.542   2.248  12.030 -1.2665 -1.6362  0.1361
 7986TIP3   OH245448   1.137   4.888  14.420  0.1782  0.0269  0.3089
 7986TIP3    H145449   1.090   4.920  14.497 -1.6458  0.7949 -1.0445
 7986TIP3    H245450   1.215   4.943  14.414 -1.7005  2.7753 -0.6229
 7987TIP3   OH245451   2.505   2.130   2.400  0.2502 -0.0042 -0.1687
 7987TIP3    H145452   2.523   2.039   2.422 -1.2905 -0.3313 -0.1502
 7987TIP3    H245453   2.445   2.125   2.325  0.8743  1.0189 -0.7575
 7988TIP3   OH245454   6.363   6.182  14.149 -0.2655  0.4372  0.0748
 7988TIP3    H145455   6.378   6.091  14.125 -0.5415  0.4773 -0.2523
 7988TIP3    H245456   6.392   6.188  14.240  0.7417  0.2692 -0.2192
 7989TIP3   OH245457   1.106   4.751  11.336 -0.1218 -0.0369  0.1284
 7989TIP3    H145458   1.169   4.699  11.286 -2.6159 -3.7247  0.4081
 7989TIP3    H245459   1.107   4.837  11.293  1.9660 -1.2316 -2.5279
 7990TIP3   OH245460   5.162   4.767  13.561  0.0667  0.1973 -0.1201
 7990TIP3    H145461   5.211   4.738  13.484 -0.8120 -0.6264 -0.3868
 7990TIP3    H245462   5.220   4.830  13.604  0.3632  1.0688 -1.7241
 7991TIP3   OH245463   3.608   2.204  16.694 -0.6500 -0.0276 -0.4686
 7991TIP3    H145464   3.537   2.140  16.699 -0.1268 -0.6199 -0.4945
 7991TIP3    H245465   3.664   2.173  16.623  1.1862 -1.1989  1.3883
 7992TIP3   OH245466   0.076   0.396   3.731 -0.5154  0.7229 -0.1720
 7992TIP3    H145467   0.009   0.454   3.695  0.8028  2.0586 -0.5587
 7992TIP3    H245468   0.130   0.453   3.786  0.2319 -0.3431  0.2259
 7993TIP3   OH245469   6.553   6.502   2.560  0.2419  0.1228  0.1382
 7993TIP3    H145470   6.504   6.434   2.513  0.9781  0.4928 -1.2010
 7993TIP3    H245471   6.576   6.566   2.494 -0.2015  1.5845  1.3400
 7994TIP3   OH245472   3.463   4.413   5.625 -0.7255  0.2013 -0.6814
 7994TIP3    H145473   3.417   4.351   5.681  1.0098 -0.9289 -0.4112
 7994TIP3    H245474   3.533   4.448   5.680 -1.2195  1.8858 -1.0585
 7995TIP3   OH245475   2.452   0.826  12.220 -0.2995 -0.5726 -0.0256
 7995TIP3    H145476   2.537   0.852  12.183  0.2666 -1.3375  0.6836
 7995TIP3    H245477   2.474   0.755  12.281 -1.4070 -0.4951  0.4810
 7996TIP3   OH245478   4.591   6.373  12.075 -0.2910  0.4933  0.6197
 7996TIP3    H145479   4.510   6.380  12.024  0.2211  1.7595 -0.0447
 7996TIP3    H245480   4.660   6.368  12.010  0.2156 -0.1895  1.1903
 7997TIP3   OH245481   5.670   1.804   2.855  0.2781  0.2075 -0.5667
 7997TIP3    H145482   5.720   1.856   2.917 -0.9625 -1.3602  1.9382
 7997TIP3    H245483   5.723   1.726   2.840 -0.3198 -0.3659  0.2147
 7998TIP3   OH245484   5.035   5.669   3.181 -0.8550  0.6100  0.2845
 7998TIP3    H145485   5.065   5.690   3.269  2.1743 -0.3500 -0.3913
 7998TIP3    H245486   5.025   5.754   3.137  0.5118  1.0017  0.7086
 7999TIP3   OH245487   1.955   0.135  15.761  0.3057 -0.7802 -0.5731
 7999TIP3    H145488   1.882   0.197  15.760  0.7638 -0.2299 -1.0362
 7999TIP3    H245489   1.922   0.059  15.807 -0.0928  0.0479  0.5544
 8000TIP3   OH245490   3.737   4.851  12.737 -0.2236  0.0272 -0.3329
 8000TIP3    H145491   3.648   4.880  12.759  0.6557  1.8607  1.1704
 8000TIP3    H245492   3.764   4.800  12.813  0.3772  0.4220 -0.2777
 8001TIP3   OH245493   2.942   4.900   0.461  0.8636  0.3753  0.1509
 8001TIP3    H145494   3.003   4.970   0.440  1.1714  0.2756  0.6860
 8001TIP3    H245495   2.936   4.902   0.556  1.8927 -1.1615  0.2815
 8002TIP3   OH245496   3.677   6.335  13.013  0.1159  0.4808 -0.3043
 8002TIP3    H145497   3.715   6.369  13.093  0.9730 -0.8855 -0.0873
 8002TIP3    H245498   3.732   6.371  12.943 -0.4609  1.4426 -0.2868
 8003TIP3   OH245499   5.401   1.007   0.829 -0.3467 -0.0540  0.0338
 8003TIP3    H145500   5.385   1.053   0.911  0.7681 -0.1911  0.3333
 8003TIP3    H245501   5.314   0.980   0.800 -1.1681  2.7129 -0.4513
 8004TIP3   OH245502   0.755   4.195  12.754  0.4093 -0.2720 -0.0317
 8004TIP3    H145503   0.710   4.164  12.832 -1.7428  0.5354 -0.8727
 8004TIP3    H245504   0.772   4.288  12.771 -0.0035 -0.1096 -0.4836
 8005TIP3   OH245505   5.965   5.854   3.198  0.5850 -0.1533  0.1047
 8005TIP3    H145506   6.027   5.858   3.125 -0.2248  2.2122 -0.5709
 8005TIP3    H245507   5.887   5.814   3.161  1.1232 -1.6860  0.5364
 8006TIP3   OH245508   2.305   5.007   0.562 -0.5060 -0.2462 -0.0802
 8006TIP3    H145509   2.395   5.020   0.591 -0.7913  1.8396  0.0186
 8006TIP3    H245510   2.311   4.934   0.499  0.9434 -1.2708  1.1648
 8007TIP3   OH245511   4.433   3.262   3.016 -0.3411 -0.3867 -0.4289
 8007TIP3    H145512   4.379   3.187   3.040 -0.0274  0.1721  2.2529
 8007TIP3    H245513   4.375   3.337   3.026  0.6718  0.1618  1.8935
 8008TIP3   OH245514   0.948   3.908  17.081  0.4697  0.1508  0.1573
 8008TIP3    H145515   0.905   3.964  17.016  1.3827  0.5609 -0.1141
 8008TIP3    H245516   0.940   3.956  17.163 -2.8352 -1.4473  0.9490
 8009TIP3   OH245517   2.947   4.483   1.442  0.4408 -0.0984  0.1568
 8009TIP3    H145518   2.953   4.407   1.501  0.8925 -0.5596 -0.4724
 8009TIP3    H245519   3.031   4.528   1.453  0.2187  0.2446  0.4424
 8010TIP3   OH245520   1.201   5.652   6.549 -0.4068  0.5472  0.0763
 8010TIP3    H145521   1.115   5.648   6.506 -0.5130  2.4611  0.0140
 8010TIP3    H245522   1.180   5.667   6.642 -0.1400 -0.0425  0.2347
 8011TIP3   OH245523   4.706   1.097  12.352  0.1671  0.2202  0.0353
 8011TIP3    H145524   4.660   1.092  12.436 -0.1458  0.1462 -0.1376
 8011TIP3    H245525   4.728   1.007  12.331  1.5975  0.3695  0.7631
 8012TIP3   OH245526   0.834   0.655   2.763 -0.4276  0.0151  0.1947
 8012TIP3    H145527   0.828   0.642   2.668  1.8956 -0.7527  0.0801
 8012TIP3    H245528   0.805   0.572   2.800  0.0561 -0.2148  0.0718
 8013TIP3   OH245529   6.694   2.221   4.398  0.0817 -0.1446 -0.3349
 8013TIP3    H145530   6.638   2.205   4.323  0.5767  1.8706 -1.2171
 8013TIP3    H245531   6.650   2.178   4.471 -1.0014 -1.1882 -1.5506
 8014TIP3   OH245532   5.758   6.439   0.800  0.1275  0.1322 -0.4832
 8014TIP3    H145533   5.707   6.401   0.871  0.9304 -0.1273 -0.0303
 8014TIP3    H245534   5.818   6.500   0.843  0.6913 -0.1003 -0.9187
 8015TIP3   OH245535   6.031   6.602   4.458 -0.1448 -0.1430  0.2286
 8015TIP3    H145536   5.982   6.683   4.474 -1.4202 -0.5551 -1.3152
 8015TIP3    H245537   6.078   6.617   4.376  1.0195 -0.3567  0.8372
 8016TIP3   OH245538   2.614   4.960  12.727 -0.3521  0.1966  0.0469
 8016TIP3    H145539   2.577   5.027  12.785 -1.3631 -0.4860  0.2188
 8016TIP3    H245540   2.672   4.910  12.783 -0.7376  0.0142  0.2862
 8017TIP3   OH245541   5.101   4.294   1.376 -0.2872  0.7023 -0.6426
 8017TIP3    H145542   5.166   4.282   1.446  0.0452 -2.2633 -1.3243
 8017TIP3    H245543   5.051   4.371   1.403  1.6352  1.3429  1.3997
 8018TIP3   OH245544   2.699   5.567  14.960 -0.5085  0.0142  0.0102
 8018TIP3    H145545   2.664   5.513  15.030  0.4852 -0.3896  0.2120
 8018TIP3    H245546   2.794   5.556  14.966 -0.4122 -1.6963 -2.6642
 8019TIP3   OH245547   1.739   2.442  15.241 -0.6068 -0.1885 -0.5321
 8019TIP3    H145548   1.697   2.528  15.245  1.7661  1.0656 -0.1643
 8019TIP3    H245549   1.722   2.404  15.327 -0.4293  0.5879 -0.1400
 8020TIP3   OH245550   0.928   5.507  14.751  0.2892 -0.4779  0.1638
 8020TIP3    H145551   1.012   5.498  14.707  1.6024  0.2536  2.3724
 8020TIP3    H245552   0.927   5.438  14.816 -0.4707  0.0165  0.7014
 8021TIP3   OH245553   6.340   5.765  12.223  0.5312 -0.1068 -0.8041
 8021TIP3    H145554   6.365   5.677  12.194 -0.7236 -0.7789  0.0613
 8021TIP3    H245555   6.277   5.750  12.293  0.0440  1.4933 -0.8624
 8022TIP3   OH245556   5.852   4.417   4.925  0.1456  0.3416 -0.0113
 8022TIP3    H145557   5.760   4.418   4.950  0.0004  0.9261 -0.5520
 8022TIP3    H245558   5.896   4.467   4.995  0.3261 -1.4545  1.2110
 8023TIP3   OH245559   4.070   1.474  14.543  0.1102  0.3919 -0.0898
 8023TIP3    H145560   4.013   1.502  14.471 -1.9774 -0.2118  1.2261
 8023TIP3    H245561   4.122   1.552  14.563  0.5087  0.6675 -2.0077
 8024TIP3   OH245562   5.150   1.328  13.825 -0.0146  0.2669  0.2036
 8024TIP3    H145563   5.075   1.382  13.848  0.1336  0.1189  1.0577
 8024TIP3    H245564   5.183   1.295  13.908  0.8234  0.0938 -0.1827
 8025TIP3   OH245565   4.170   1.467   4.530 -0.1182 -0.3220 -0.3802
 8025TIP3    H145566   4.175   1.562   4.514 -1.4266 -0.2548 -0.5382
 8025TIP3    H245567   4.078   1.445   4.513  0.1183 -1.5846 -0.1207
 8026TIP3   OH245568   6.690   1.652   1.466  0.2081  0.2839  0.4335
 8026TIP3    H145569   6.781   1.655   1.496  0.0627 -2.1032  1.2478
 8026TIP3    H245570   6.645   1.714   1.524  1.0226  0.2875  1.0955
 8027TIP3   OH245571   3.072   0.107  14.919  0.3680  0.2972 -0.3047
 8027TIP3    H145572   3.128   0.036  14.951  2.1087  1.9919  0.6525
 8027TIP3    H245573   3.108   0.130  14.834 -0.4143 -0.1845 -0.7724
 8028TIP3   OH245574   6.003   6.119   5.423  0.0570  0.2921  0.4444
 8028TIP3    H145575   6.057   6.119   5.344 -1.9061  0.1204 -0.9529
 8028TIP3    H245576   5.936   6.186   5.407 -0.1776  0.5125  2.1327
 8029TIP3   OH245577   6.369   5.294   4.025  0.0050  0.3168  0.5799
 8029TIP3    H145578   6.434   5.320   3.961 -0.2402 -0.5768 -0.0494
 8029TIP3    H245579   6.419   5.248   4.093  0.0727 -0.0834  0.2609
 8030TIP3   OH245580   6.004   5.834  12.008  1.0347  0.3508  0.0940
 8030TIP3    H145581   6.073   5.896  12.031  0.3128  1.0695  0.3810
 8030TIP3    H245582   5.978   5.795  12.092  1.7040 -0.5881 -0.1224
 8031TIP3   OH245583   6.548   6.050  13.289  0.3154 -0.3051 -0.2972
 8031TIP3    H145584   6.608   6.068  13.361 -0.4962  0.0523  0.2929
 8031TIP3    H245585   6.527   5.957  13.297 -1.3950  0.1552  1.2094
 8032TIP3   OH245586   0.906   6.251  12.079  0.0149  0.0993 -0.6281
 8032TIP3    H145587   0.980   6.307  12.054  0.0723  0.5853  0.5840
 8032TIP3    H245588   0.831   6.310  12.078 -0.1135 -0.0635 -0.4096
 8033TIP3   OH245589   2.527   4.006   3.425 -0.2119  0.3605  0.5744
 8033TIP3    H145590   2.611   4.011   3.471  0.1704  2.5812 -0.2878
 8033TIP3    H245591   2.493   4.095   3.426 -0.8885  0.2128 -2.1560
 8034TIP3   OH245592   2.614   0.862   1.389 -0.2189  0.0094 -0.0666
 8034TIP3    H145593   2.569   0.941   1.418 -1.1524 -0.5061 -0.0858
 8034TIP3    H245594   2.561   0.790   1.424  0.0318 -0.6129 -0.9412
 8035TIP3   OH245595   6.225   1.773  16.640 -0.0771  0.6553 -0.1684
 8035TIP3    H145596   6.303   1.719  16.652  0.1487  0.8287 -0.8344
 8035TIP3    H245597   6.240   1.850  16.694 -0.2978  0.1699  0.6091
 8036TIP3   OH245598   4.323   5.566   1.656  0.2950  0.4631  0.0597
 8036TIP3    H145599   4.230   5.548   1.644  0.5119 -1.9541  1.4589
 8036TIP3    H245600   4.335   5.569   1.751  2.0605 -2.3006  0.0430
 8037TIP3   OH245601   5.465   5.492  10.197 -0.2867 -0.1068 -0.1773
 8037TIP3    H145602   5.547   5.527  10.232  0.1821 -0.6591 -0.6951
 8037TIP3    H245603   5.396   5.541  10.242  0.3363  1.4327 -0.8260
 8038TIP3   OH245604   3.605   5.514   1.213 -0.2810 -0.4106  0.4901
 8038TIP3    H145605   3.592   5.512   1.308 -3.1798 -1.1227  0.1733
 8038TIP3    H245606   3.545   5.581   1.181 -0.0485 -0.8283 -0.9199
 8039TIP3   OH245607   1.250   0.298   3.694 -0.1195 -0.2127  0.3131
 8039TIP3    H145608   1.241   0.358   3.620  1.0293  1.6709  1.5918
 8039TIP3    H245609   1.302   0.225   3.660  2.0401  1.5069 -0.3465
 8040TIP3   OH245610   5.390   6.086  16.674 -0.2511 -0.1115 -0.3995
 8040TIP3    H145611   5.425   6.111  16.759  0.1079  0.8055 -0.8060
 8040TIP3    H245612   5.331   6.014  16.693 -1.0203  0.7893  0.7815
 8041TIP3   OH245613   1.977   2.530   0.662  0.4738 -0.0739 -0.2142
 8041TIP3    H145614   2.062   2.491   0.643  0.0902 -1.5282  0.8915
 8041TIP3    H245615   1.977   2.542   0.757 -0.3652  0.4014 -0.2641
 8042TIP3   OH245616   4.021   5.570  12.719 -0.2650 -0.0705 -0.0431
 8042TIP3    H145617   4.026   5.665  12.713 -4.6777  0.2974 -1.8437
 8042TIP3    H245618   4.026   5.551  12.812 -3.7286  2.5475  0.8919
 8043TIP3   OH245619   6.141   0.791   3.940 -0.1344  0.3711 -0.0375
 8043TIP3    H145620   6.167   0.717   3.994  1.4000  1.3907  0.6885
 8043TIP3    H245621   6.208   0.797   3.873 -1.4551 -0.2274 -1.4819
 8044TIP3   OH245622   4.747   6.229   4.557  0.3959  0.2256 -0.3455
 8044TIP3    H145623   4.754   6.145   4.602  2.0446  1.2756  1.5131
 8044TIP3    H245624   4.741   6.293   4.627  0.5716  1.7933 -1.7044
 8045TIP3   OH245625   6.145   5.709  15.453  0.0059  0.3364 -0.3117
 8045TIP3    H145626   6.196   5.790  15.447 -2.0572  1.7161 -0.1074
 8045TIP3    H245627   6.079   5.717  15.384 -1.3115 -0.3430  0.8197
 8046TIP3   OH245628   0.076   0.985   1.510 -0.2546  0.5194  0.2086
 8046TIP3    H145629   0.072   1.046   1.583 -1.6225  0.5011  0.1788
 8046TIP3    H245630   0.150   0.928   1.530  1.3378  2.4052  0.0263
 8047TIP3   OH245631   1.865   2.306  16.363 -0.0078 -0.3180 -0.1804
 8047TIP3    H145632   1.789   2.247  16.361 -0.4541  0.2218  0.4715
 8047TIP3    H245633   1.861   2.353  16.279 -0.3135 -0.3869 -0.2043
 8048TIP3   OH245634   2.442   6.660   3.816  0.2766  0.7483  0.3715
 8048TIP3    H145635   2.439   6.745   3.860 -1.8719  0.4723  0.8619
 8048TIP3    H245636   2.423   6.680   3.724  0.4239  0.8471  0.3611
 8049TIP3   OH245637   4.651   4.970  17.131 -0.5746 -0.1438  0.3920
 8049TIP3    H145638   4.613   4.964  17.043  0.0735 -0.1429  0.1087
 8049TIP3    H245639   4.576   4.986  17.188 -1.2350 -1.7882  0.0541
 8050TIP3   OH245640   1.647   6.447  12.714  0.5154 -0.6899  0.5753
 8050TIP3    H145641   1.742   6.436  12.702  0.1693 -1.0146 -3.1653
 8050TIP3    H245642   1.631   6.540  12.700  0.1125 -0.9782 -1.0652
 8051TIP3   OH245643   1.131   3.669   0.113  0.3177  0.1480  0.5658
 8051TIP3    H145644   1.190   3.726   0.064 -0.8925  2.0132  1.1623
 8051TIP3    H245645   1.045   3.710   0.103 -0.5947 -1.5367  1.1277
 8052TIP3   OH245646   6.821   3.175  14.725  0.5095 -0.6930 -0.4742
 8052TIP3    H145647   6.761   3.242  14.758  0.5374 -0.8402 -0.1170
 8052TIP3    H245648   6.888   3.224  14.677  1.1476 -0.3582  0.7227
 8053TIP3   OH245649   0.300   0.643   5.344 -0.1150  0.2515  0.0048
 8053TIP3    H145650   0.265   0.723   5.384 -1.4432  0.5873 -1.7303
 8053TIP3    H245651   0.379   0.672   5.298 -0.4169  0.4964 -0.3577
 8054TIP3   OH245652   5.584   2.078   6.135  0.0252 -0.0263  0.2029
 8054TIP3    H145653   5.511   2.063   6.195 -1.3751  1.2449 -1.1046
 8054TIP3    H245654   5.619   2.163   6.162  2.2062 -1.3515  1.9105
 8055TIP3   OH245655   6.713   3.826  11.109  0.0943 -0.0699  0.3960
 8055TIP3    H145656   6.663   3.795  11.184 -1.3514  1.4872  0.1135
 8055TIP3    H245657   6.659   3.805  11.033  0.9754 -0.4946 -0.1431
 8056TIP3   OH245658   4.822   2.607  10.791 -0.6767 -0.5160  0.1795
 8056TIP3    H145659   4.880   2.681  10.810  0.7931 -1.3095 -1.0026
 8056TIP3    H245660   4.857   2.536  10.845 -1.6313 -0.5691  0.7540
 8057TIP3   OH245661   0.676   2.503   4.090 -0.3283 -0.0739 -0.2057
 8057TIP3    H145662   0.585   2.492   4.119 -0.1393  0.9604  0.8887
 8057TIP3    H245663   0.692   2.430   4.030 -1.7827 -0.4387 -0.1847
 8058TIP3   OH245664   2.532   5.058  14.132  0.3213 -0.1165  0.3453
 8058TIP3    H145665   2.534   4.992  14.063 -1.8790  1.2601 -1.1674
 8058TIP3    H245666   2.611   5.110  14.118  0.2938 -0.3295 -0.6529
 8059TIP3   OH245667   1.715   5.902   6.540 -0.3053  0.0517  0.1679
 8059TIP3    H145668   1.630   5.863   6.560 -0.6956  0.5539 -0.4851
 8059TIP3    H245669   1.703   5.996   6.555  0.5916 -0.0217  1.6118
 8060TIP3   OH245670   6.395   0.500  14.879  0.4104  0.4230  0.2301
 8060TIP3    H145671   6.468   0.444  14.852  0.8718  0.9947  0.2840
 8060TIP3    H245672   6.374   0.552  14.801  0.1536  0.3617  0.2571
 8061TIP3   OH245673   1.109   5.846   1.173  0.0814 -0.8746  0.3949
 8061TIP3    H145674   1.202   5.828   1.182  0.1075 -0.5977  0.7188
 8061TIP3    H245675   1.090   5.834   1.080  1.0892  1.9871 -0.2981
 8062TIP3   OH245676   5.582   1.856   1.408  0.2046  0.0612  0.0511
 8062TIP3    H145677   5.607   1.836   1.318 -1.6825 -1.2701 -0.2454
 8062TIP3    H245678   5.603   1.776   1.457  0.7329  0.5860  0.7114
 8063TIP3   OH245679   2.744   6.435  10.417  0.3757 -0.5300 -0.2112
 8063TIP3    H145680   2.662   6.484  10.421 -0.2916 -1.6249  3.1971
 8063TIP3    H245681   2.810   6.497  10.448  0.8026  0.1412 -2.3094
 8064TIP3   OH245682   5.683   1.014  16.459  0.6246 -0.3181  0.2669
 8064TIP3    H145683   5.643   1.030  16.544  1.7688  0.5492  0.6663
 8064TIP3    H245684   5.657   1.089  16.405  0.2485 -0.6518 -0.0161
 8065TIP3   OH245685   5.250   3.642  11.270 -0.6274  0.0462 -0.2097
 8065TIP3    H145686   5.182   3.576  11.260 -0.6948  0.3151 -1.8009
 8065TIP3    H245687   5.326   3.595  11.304 -0.1507 -1.2562 -2.7874
 8066TIP3   OH245688   1.244   1.619   2.841 -0.3257 -0.3570 -1.1295
 8066TIP3    H145689   1.262   1.585   2.929  0.4840  1.6145 -0.4761
 8066TIP3    H245690   1.311   1.686   2.828 -0.3423 -0.7106 -3.3401
 8067TIP3   OH245691   1.906   4.124  13.107 -0.6078  0.3149  0.1926
 8067TIP3    H145692   1.933   4.205  13.063  1.0089  0.0526  0.6363
 8067TIP3    H245693   1.920   4.141  13.200 -1.1013 -0.1713  0.3607
 8068TIP3   OH245694   6.085   5.295  15.316 -0.1366 -0.0663 -0.3148
 8068TIP3    H145695   6.060   5.351  15.243 -0.1034 -0.5437 -0.6918
 8068TIP3    H245696   6.020   5.316  15.384  0.7633  1.5311  0.1113
 8069TIP3   OH245697   2.798   0.045   3.961 -0.7218 -0.3019  0.0199
 8069TIP3    H145698   2.850  -0.018   3.910  0.4582  0.5905  0.0747
 8069TIP3    H245699   2.718   0.057   3.910 -0.9793 -1.8373  0.0078
 8070TIP3   OH245700   6.502   4.260  15.589  0.1325  1.0315  0.4460
 8070TIP3    H145701   6.408   4.263  15.604 -0.0507  0.1343 -0.3968
 8070TIP3    H245702   6.515   4.310  15.508  0.4475  1.5571  0.8153
 8071TIP3   OH245703   4.335   3.085   5.540  0.8109 -0.0711  0.9339
 8071TIP3    H145704   4.301   3.023   5.475  0.6527 -0.0678  1.0124
 8071TIP3    H245705   4.308   3.171   5.507  0.3792 -0.0975  1.2105
 8072TIP3   OH245706   0.164   1.325   3.661 -0.0660  0.0078 -0.7517
 8072TIP3    H145707   0.086   1.359   3.617  0.1325 -0.6676 -1.6490
 8072TIP3    H245708   0.174   1.381   3.738 -0.9952  0.5851 -1.0314
 8073TIP3   OH245709   2.549   6.257   3.083  0.1661 -0.0966  0.0038
 8073TIP3    H145710   2.616   6.226   3.144 -0.3660  0.7046  1.0318
 8073TIP3    H245711   2.574   6.219   2.999  2.3932  0.8076  0.1677
 8074TIP3   OH245712   3.459   3.093  14.521 -0.3106 -0.0049  0.2131
 8074TIP3    H145713   3.417   3.166  14.475  0.8384  0.0053 -0.8791
 8074TIP3    H245714   3.409   3.016  14.494  0.9648 -0.1545 -1.9936
 8075TIP3   OH245715   3.434   5.419   4.894  0.1292  0.1786 -0.2122
 8075TIP3    H145716   3.444   5.469   4.813 -0.6037  0.5766 -0.0710
 8075TIP3    H245717   3.411   5.330   4.864  2.9212 -0.5326 -0.5044
 8076TIP3   OH245718   6.814   3.749  12.918  0.0220  0.6723  0.2102
 8076TIP3    H145719   6.792   3.692  12.992 -0.3272 -1.3928 -1.3788
 8076TIP3    H245720   6.909   3.746  12.913 -0.0563 -1.0869 -0.7826
 8077TIP3   OH245721   0.880   3.659   7.049  0.2903 -0.0435 -0.2609
 8077TIP3    H145722   0.894   3.564   7.047  2.9636  0.2503  0.7926
 8077TIP3    H245723   0.930   3.692   6.974 -0.3189  0.5967 -0.3969
 8078TIP3   OH245724   3.727   1.017  12.002 -0.0122  0.5020 -0.0709
 8078TIP3    H145725   3.794   1.086  12.008 -0.1087  0.6174 -0.3299
 8078TIP3    H245726   3.659   1.055  11.947 -0.6183  0.6556  0.7546
 8079TIP3   OH245727   4.616   2.172   1.016  0.1023 -0.1881 -0.2305
 8079TIP3    H145728   4.679   2.236   0.984  0.2058  0.2148  0.7734
 8079TIP3    H245729   4.542   2.179   0.954  0.9737 -0.6044 -1.3570
 8080TIP3   OH245730   0.911   6.012  13.077 -0.4917  0.1472 -0.3651
 8080TIP3    H145731   0.949   6.074  13.015  0.1839  0.0221 -0.0933
 8080TIP3    H245732   0.940   5.926  13.047 -0.1765  0.0831  0.0976
 8081TIP3   OH245733   1.729   2.640   4.173 -0.4024 -0.6161 -0.2395
 8081TIP3    H145734   1.636   2.648   4.155 -0.1572 -1.8132 -2.2698
 8081TIP3    H245735   1.739   2.554   4.213 -0.2186 -0.2621  0.4975
 8082TIP3   OH245736   2.828   2.559   3.816  0.0442  0.1648  0.7656
 8082TIP3    H145737   2.876   2.512   3.884 -1.5387 -0.5937  1.4088
 8082TIP3    H245738   2.737   2.561   3.848 -0.5223  0.7863 -0.7991
 8083TIP3   OH245739   6.325   2.784   5.370 -0.3581 -0.2257  0.2329
 8083TIP3    H145740   6.261   2.835   5.418 -0.6621  1.5517 -1.8870
 8083TIP3    H245741   6.274   2.717   5.324 -0.5623  0.3648 -0.4219
 8084TIP3   OH245742   4.239   2.909  14.444  0.0690  0.2314  0.2208
 8084TIP3    H145743   4.209   2.823  14.472  2.0403 -0.8486 -0.8201
 8084TIP3    H245744   4.309   2.931  14.505  1.2707 -0.0692 -1.0128
 8085TIP3   OH245745   5.773   6.345  13.085 -0.2243  0.7630  0.0869
 8085TIP3    H145746   5.793   6.252  13.079 -1.1113  0.4472  1.6149
 8085TIP3    H245747   5.768   6.374  12.994  0.5807 -0.5522 -0.4050
 8086TIP3   OH245748   2.980   6.062  15.708  0.2606  0.1136  0.1119
 8086TIP3    H145749   2.988   6.070  15.803  0.2886 -0.6741  0.1833
 8086TIP3    H245750   3.004   5.971  15.689  1.8625  0.6908 -0.8265
 8087TIP3   OH245751   6.768   4.532   1.592  0.1278 -0.1974  0.3903
 8087TIP3    H145752   6.838   4.596   1.599  0.8623 -1.1000  1.6694
 8087TIP3    H245753   6.689   4.584   1.574  0.5724  1.1499  2.0888
 8088TIP3   OH245754   2.152   4.437  15.053  0.3120 -0.1941 -0.4998
 8088TIP3    H145755   2.057   4.437  15.042  0.1015  2.4212  0.6480
 8088TIP3    H245756   2.172   4.523  15.088  3.0638 -0.9336 -0.0357
 8089TIP3   OH245757   6.576   4.106   5.805 -0.4387  0.3813  0.2414
 8089TIP3    H145758   6.651   4.081   5.858 -0.1879  2.1249  0.7647
 8089TIP3    H245759   6.584   4.054   5.725  0.4013 -0.6528  0.9754
 8090TIP3   OH245760   6.805   3.630  12.156  0.1151 -0.4988  0.0311
 8090TIP3    H145761   6.792   3.549  12.107  0.7645  0.0290 -1.0273
 8090TIP3    H245762   6.889   3.665  12.125  0.6075 -0.2066  1.6007
 8091TIP3   OH245763   5.232   5.579   3.643  0.7706  0.0169  0.6696
 8091TIP3    H145764   5.247   5.672   3.659  0.4193  0.6075 -2.0237
 8091TIP3    H245765   5.195   5.547   3.725 -0.4379  2.5473  1.2175
 8092TIP3   OH245766   1.929   0.754  16.261  0.3838  0.9861 -0.2186
 8092TIP3    H145767   1.867   0.727  16.193  1.3492  0.7523 -1.0212
 8092TIP3    H245768   1.881   0.739  16.343 -0.1421 -0.4997 -0.7527
 8093TIP3   OH245769   3.161   5.252  15.429 -0.1971  0.9405  0.0941
 8093TIP3    H145770   3.250   5.218  15.427 -0.6423 -0.2401 -0.8012
 8093TIP3    H245771   3.120   5.210  15.504 -0.2245  0.8669  0.0388
 8094TIP3   OH245772   0.313   1.917  13.000 -0.2130 -0.0841 -0.1674
 8094TIP3    H145773   0.399   1.886  13.031 -1.4720 -1.5001  2.2288
 8094TIP3    H245774   0.253   1.845  13.021 -2.0654  1.0244 -1.4370
 8095TIP3   OH245775   2.417   5.136  14.365 -0.4961 -0.2927 -0.1107
 8095TIP3    H145776   2.447   5.090  14.287  0.5730 -1.7199  1.0728
 8095TIP3    H245777   2.476   5.211  14.373  1.3348 -1.7206  0.8297
 8096TIP3   OH245778   3.581   2.723  15.662 -0.0250 -0.0547 -0.3394
 8096TIP3    H145779   3.568   2.628  15.666  0.3683 -0.0723  0.8494
 8096TIP3    H245780   3.495   2.760  15.677  0.0425 -0.2256  0.5210
 8097TIP3   OH245781   0.172   3.627  14.711 -0.1119  0.4393 -0.8573
 8097TIP3    H145782   0.213   3.580  14.783  0.5038  1.4142 -0.5546
 8097TIP3    H245783   0.092   3.577  14.692 -0.0324 -0.1062  0.1644
 8098TIP3   OH245784   4.381   3.346  14.377  0.1067 -0.2293 -0.2086
 8098TIP3    H145785   4.403   3.292  14.301 -0.8001 -2.4000  0.9689
 8098TIP3    H245786   4.459   3.343  14.432  0.0557 -0.3644 -0.1424
 8099TIP3   OH245787   3.073   5.654   4.588  0.5123 -0.1260 -0.1458
 8099TIP3    H145788   3.097   5.624   4.676 -2.2030  0.2650  0.8225
 8099TIP3    H245789   3.084   5.577   4.532  0.8446 -0.7991  0.8204
 8100TIP3   OH245790   1.912   4.690  16.799  0.5361 -0.2183 -0.7745
 8100TIP3    H145791   1.879   4.737  16.723  2.7939  0.9102 -1.1196
 8100TIP3    H245792   1.859   4.723  16.872 -0.6047 -0.1671 -1.5871
 8101TIP3   OH245793   4.151   3.988  16.932 -0.1941  0.7875 -0.6423
 8101TIP3    H145794   4.174   3.898  16.957  2.2861  1.2591 -0.9849
 8101TIP3    H245795   4.116   4.027  17.012  1.2606  0.2782  0.2888
 8102TIP3   OH245796   0.140   3.786   0.526  0.0530  0.2400 -0.3726
 8102TIP3    H145797   0.105   3.875   0.526 -1.4377 -0.3122 -0.1728
 8102TIP3    H245798   0.116   3.750   0.611  0.2361 -0.5045 -0.6239
 8103TIP3   OH245799   0.112   1.005   4.001  0.2014  0.0525 -0.0105
 8103TIP3    H145800   0.049   1.020   3.931  0.5489  0.0393 -0.3256
 8103TIP3    H245801   0.189   1.056   3.976  0.1018  0.5481  0.6735
 8104TIP3   OH245802   6.267   0.044  15.710 -0.2467  0.2035  0.4968
 8104TIP3    H145803   6.272   0.016  15.801  2.6451 -0.7777  0.1291
 8104TIP3    H245804   6.326  -0.016  15.663 -0.2329  1.8331 -1.7256
 8105TIP3   OH245805   5.814   4.245  13.810  0.1753 -0.5713  0.2136
 8105TIP3    H145806   5.826   4.165  13.759  1.1513 -0.5097  0.3219
 8105TIP3    H245807   5.885   4.244  13.874  0.4892  0.5963 -0.0800
 8106TIP3   OH245808   2.272   1.640  12.801 -0.1737 -0.4279  0.0176
 8106TIP3    H145809   2.204   1.663  12.864  1.1619  0.0121  1.3670
 8106TIP3    H245810   2.307   1.724  12.771  0.0532 -0.6488 -0.3462
 8107TIP3   OH245811   5.795   3.687  16.279  0.0132 -0.0122 -0.5337
 8107TIP3    H145812   5.865   3.731  16.230  0.6388 -1.1044 -0.6743
 8107TIP3    H245813   5.715   3.727  16.247  0.5449  0.9314 -0.7352
 8108TIP3   OH245814   0.331   2.001  13.782 -0.3117  0.5615 -0.2424
 8108TIP3    H145815   0.375   2.032  13.703 -1.5575  2.3237 -0.2861
 8108TIP3    H245816   0.395   1.943  13.824  1.2637  1.4702 -1.3115
 8109TIP3   OH245817   6.616   3.076   3.410  0.3426  0.1720 -0.0765
 8109TIP3    H145818   6.653   3.060   3.497 -1.0454  0.9636  0.6999
 8109TIP3    H245819   6.537   3.127   3.427  0.4233  0.9481 -1.8699
 8110TIP3   OH245820   2.088   5.935  13.725 -0.0055  0.4847  0.4306
 8110TIP3    H145821   2.142   5.946  13.647 -0.3797  1.7124  0.3349
 8110TIP3    H245822   2.145   5.962  13.797  0.1960 -0.2412  0.5549
 8111TIP3   OH245823   1.898   4.823   0.158  0.2868  0.2643  0.1213
 8111TIP3    H145824   1.890   4.895   0.221 -1.4954 -0.6187  0.9741
 8111TIP3    H245825   1.812   4.818   0.117  0.8443 -0.4334 -0.9949
 8112TIP3   OH245826   0.282   5.701   3.375  0.1440  0.1071 -0.1022
 8112TIP3    H145827   0.233   5.737   3.301 -0.3327 -0.2718  0.0238
 8112TIP3    H245828   0.244   5.743   3.452 -1.5573 -1.8241  0.2008
 8113TIP3   OH245829   4.453   5.058   4.530  0.2375  0.6333 -0.5961
 8113TIP3    H145830   4.531   5.079   4.478  0.7255 -0.4520 -0.3351
 8113TIP3    H245831   4.474   4.975   4.572 -2.2167 -1.3660 -2.9461
 8114TIP3   OH245832   3.738   3.945   0.937 -0.5191 -0.0164 -0.1894
 8114TIP3    H145833   3.692   4.027   0.916 -1.3913 -0.0288  1.4892
 8114TIP3    H245834   3.811   3.942   0.875 -1.6046  1.0334 -1.5855
 8115TIP3   OH245835   1.393   0.597   1.168  0.0297  0.2472  0.3094
 8115TIP3    H145836   1.477   0.640   1.183 -0.0287  0.5659 -0.2484
 8115TIP3    H245837   1.394   0.574   1.075 -0.8928  1.1337  0.0610
 8116TIP3   OH245838   1.016   1.245  13.201  0.6373 -0.0024 -0.1798
 8116TIP3    H145839   0.955   1.193  13.253  0.4557  1.5693  1.2836
 8116TIP3    H245840   0.964   1.279  13.129 -0.2489  1.1995  0.9684
 8117TIP3   OH245841   4.970   6.000  12.974  0.0875  0.4753 -0.1050
 8117TIP3    H145842   4.992   6.081  13.019 -1.0105  0.5241  0.3883
 8117TIP3    H245843   4.882   5.978  13.006  0.6059 -1.2471  0.2866
 8118TIP3   OH245844   5.095   0.552  13.106 -0.4569 -0.0497  0.3590
 8118TIP3    H145845   5.110   0.606  13.183  0.2785  1.1631 -0.5869
 8118TIP3    H245846   5.086   0.615  13.034 -0.3778 -1.1618 -0.6610
 8119TIP3   OH245847   3.023   1.911   1.930  0.1104  0.3278 -0.5383
 8119TIP3    H145848   2.960   1.877   1.867 -0.9825  0.9332  0.1874
 8119TIP3    H245849   2.969   1.946   2.001  1.2705  0.8558  0.1117
 8120TIP3   OH245850   4.223   3.937   5.470  0.3770  0.3605 -0.2742
 8120TIP3    H145851   4.180   3.926   5.555 -0.6185 -1.4902 -0.9651
 8120TIP3    H245852   4.152   3.957   5.409  1.0221  1.1774 -0.7739
 8121TIP3   OH245853   4.566   6.288  13.601  0.2364 -0.4144  1.0175
 8121TIP3    H145854   4.485   6.298  13.551  0.5087  0.5722  0.7496
 8121TIP3    H245855   4.549   6.335  13.683  0.2605 -0.9131  1.3193
 8122TIP3   OH245856   6.170   4.377   5.917 -0.1115  0.1713 -0.2584
 8122TIP3    H145857   6.179   4.345   5.827  1.4070 -0.3145  0.0337
 8122TIP3    H245858   6.250   4.347   5.961 -0.0429  1.8137  0.8160
 8123TIP3   OH245859   2.910   1.260   1.352 -0.1002 -0.2265 -0.1745
 8123TIP3    H145860   2.970   1.305   1.411  0.9133 -0.9229 -0.6490
 8123TIP3    H245861   2.864   1.197   1.408 -0.7784  0.6553  0.2869
 8124TIP3   OH245862   1.518   1.567   2.668  0.0089  0.0360  0.0513
 8124TIP3    H145863   1.533   1.500   2.733  0.6805 -1.1452 -1.2638
 8124TIP3    H245864   1.453   1.529   2.609 -0.8460  1.2150  0.1986
 8125TIP3   OH245865   1.380   4.400  16.964  0.0167  0.2250 -0.0425
 8125TIP3    H145866   1.289   4.427  16.956  0.2321  0.8160 -0.6597
 8125TIP3    H245867   1.419   4.420  16.879 -0.0148 -3.0086 -0.9633
 8126TIP3   OH245868   3.741   6.495   4.685 -0.1349 -0.4668 -0.4055
 8126TIP3    H145869   3.664   6.507   4.740 -0.2338  0.1119 -0.6634
 8126TIP3    H245870   3.723   6.545   4.606  0.5289 -0.2671 -0.4429
 8127TIP3   OH245871   5.105   5.878   5.316  0.5468 -0.1499 -0.2224
 8127TIP3    H145872   5.091   5.792   5.356 -1.2130  0.0704 -0.3079
 8127TIP3    H245873   5.141   5.931   5.387  1.5244 -0.9004 -0.1297
 8128TIP3   OH245874   4.212   5.887  15.954 -0.5656 -0.1859  0.1115
 8128TIP3    H145875   4.217   5.881  15.859  2.6366  0.1571  0.1468
 8128TIP3    H245876   4.187   5.799  15.983 -0.3580 -0.6173 -0.9865
 8129TIP3   OH245877   4.303   6.332  12.180 -0.3908  0.2086  0.5940
 8129TIP3    H145878   4.290   6.305  12.089  0.4502 -0.4578  0.6654
 8129TIP3    H245879   4.245   6.275  12.230  1.8985 -2.0756  0.8149
 8130TIP3   OH245880   4.858   2.479   2.750  0.2218 -0.1743 -0.8591
 8130TIP3    H145881   4.851   2.421   2.826 -2.3095 -1.0828 -1.6896
 8130TIP3    H245882   4.807   2.436   2.682  0.6925  1.6342 -2.4425
 8131TIP3   OH245883   6.312   0.402   0.608 -0.0292  0.3894 -0.4197
 8131TIP3    H145884   6.264   0.391   0.690  0.1107  1.3044 -0.1999
 8131TIP3    H245885   6.315   0.315   0.570 -0.3772  0.0112  0.3928
 8132TIP3   OH245886   2.742   5.000  16.353  0.1019  0.2356 -0.0678
 8132TIP3    H145887   2.815   4.945  16.327 -0.1572 -0.0422 -0.2090
 8132TIP3    H245888   2.761   5.086  16.314  2.0511  1.1730  2.5827
 8133TIP3   OH245889   2.386   4.433   1.234  0.4040  0.1159  0.5084
 8133TIP3    H145890   2.425   4.351   1.264 -2.0852 -1.4402 -0.2190
 8133TIP3    H245891   2.291   4.419   1.240 -0.2027  1.4999 -3.2050
 8134TIP3   OH245892   4.969   2.432  14.873 -0.4443  0.2689  0.0460
 8134TIP3    H145893   5.057   2.437  14.912 -0.8904  1.6857  0.9725
 8134TIP3    H245894   4.970   2.352  14.821  1.4319  0.3088 -0.0550
 8135TIP3   OH245895   0.654   2.502  13.101 -0.4330  0.1502  0.1998
 8135TIP3    H145896   0.669   2.439  13.030  0.1367 -1.2200  1.4811
 8135TIP3    H245897   0.581   2.465  13.150  0.7560 -0.2546  1.7450
 8136TIP3   OH245898   5.923   4.825   4.307  0.2258 -0.6179  0.3035
 8136TIP3    H145899   5.858   4.881   4.351  0.4670 -0.5779  0.6091
 8136TIP3    H245900   5.953   4.765   4.375  1.4232  0.1653  0.4906
 8137TIP3   OH245901   4.777   2.548  12.965 -0.4184 -0.2140  0.2496
 8137TIP3    H145902   4.753   2.494  13.041 -0.2536  0.0730  0.5078
 8137TIP3    H245903   4.862   2.514  12.937 -0.5068 -0.3597  0.1532
 8138TIP3   OH245904   1.140   1.581   4.051  0.0329 -0.3680  0.4827
 8138TIP3    H145905   1.127   1.530   4.131  0.7761  0.2000  0.9786
 8138TIP3    H245906   1.056   1.624   4.036  0.0135 -0.1524  1.1889
 8139TIP3   OH245907   4.597   4.256  13.264 -0.0769  0.1360  0.0035
 8139TIP3    H145908   4.566   4.215  13.345  2.2613  0.6074  1.2254
 8139TIP3    H245909   4.636   4.338  13.292  0.9636  0.2207 -1.5722
 8140TIP3   OH245910   3.598   1.849  15.881 -0.2283  0.1100 -0.5183
 8140TIP3    H145911   3.529   1.874  15.819  1.0185  1.1198 -1.5737
 8140TIP3    H245912   3.652   1.786  15.833  0.3266  0.3386 -0.2089
 8141TIP3   OH245913   6.640   3.301   5.376 -0.4347  0.0071 -0.1007
 8141TIP3    H145914   6.693   3.231   5.339  0.3151  0.7687 -0.5009
 8141TIP3    H245915   6.551   3.265   5.381 -0.2701 -0.5877 -1.3128
 8142TIP3   OH245916   2.422   3.793  10.654  0.7556  0.1259 -0.1847
 8142TIP3    H145917   2.387   3.805  10.742  1.9118  0.2267  0.2808
 8142TIP3    H245918   2.507   3.837  10.656  2.7043 -3.2362 -0.0744
 8143TIP3   OH245919   4.789   6.739   2.576 -0.3549 -0.0990  0.3479
 8143TIP3    H145920   4.734   6.807   2.616 -1.7173 -0.6061 -0.5600
 8143TIP3    H245921   4.878   6.761   2.603 -0.7689  1.9216  0.2618
 8144TIP3   OH245922   0.319   3.789  11.482 -0.3580 -0.2718 -0.7946
 8144TIP3    H145923   0.362   3.704  11.470 -1.4810 -0.5984 -2.9318
 8144TIP3    H245924   0.228   3.773  11.460 -0.3234  1.7900 -2.8097
 8145TIP3   OH245925   4.810   3.047  11.301 -0.0922 -0.1895 -0.3105
 8145TIP3    H145926   4.812   3.026  11.208 -1.2383  2.8090 -1.1406
 8145TIP3    H245927   4.902   3.042  11.329  0.3091 -0.8423 -1.6806
 8146TIP3   OH245928   2.624   0.886  14.611 -0.2661  0.0660 -0.1417
 8146TIP3    H145929   2.531   0.878  14.631  0.0186 -0.1918  1.2040
 8146TIP3    H245930   2.665   0.815  14.661  0.4018 -1.6023 -2.8604
 8147TIP3   OH245931   6.622   5.753   1.178  0.8466  1.2012  0.4905
 8147TIP3    H145932   6.646   5.828   1.123  2.8383  0.0291 -0.3228
 8147TIP3    H245933   6.704   5.724   1.217  0.7178 -2.3060 -1.4893
 8148TIP3   OH245934   4.698   1.699  13.691  0.4745 -0.4402  1.0742
 8148TIP3    H145935   4.672   1.608  13.676  0.0740 -0.1259 -0.3430
 8148TIP3    H245936   4.793   1.694  13.703  0.4835 -1.0298  0.8190
 8149TIP3   OH245937   3.540   5.376   5.411 -0.3781 -0.0636 -0.4154
 8149TIP3    H145938   3.617   5.319   5.416 -1.5704 -1.7120  0.3973
 8149TIP3    H245939   3.574   5.459   5.379  1.5065 -1.1423 -1.4693
 8150TIP3   OH245940   3.885   4.311   4.736  0.3003  0.6950 -0.5206
 8150TIP3    H145941   3.807   4.256   4.736  0.3016  0.6336  1.1743
 8150TIP3    H245942   3.882   4.357   4.652  1.0835 -2.9003 -2.7294
 8151TIP3   OH245943   2.997   6.115   1.063 -0.1154 -0.1599  0.6943
 8151TIP3    H145944   3.010   6.200   1.104 -1.9136  0.6190 -0.2138
 8151TIP3    H245945   2.980   6.135   0.971 -1.3539 -1.4043  0.6041
 8152TIP3   OH245946   2.930   2.749   2.606  0.3278  0.1877  0.1208
 8152TIP3    H145947   2.884   2.718   2.684  0.2906  0.9195  0.3933
 8152TIP3    H245948   2.866   2.803   2.560  0.9989  1.4892  0.6729
 8153TIP3   OH245949   1.600   0.005   0.783  0.5379 -0.2584 -0.3280
 8153TIP3    H145950   1.674   0.024   0.840 -0.2649 -0.3989  0.7813
 8153TIP3    H245951   1.533   0.069   0.807  0.9573  1.1939 -2.7028
 8154TIP3   OH245952   3.378   2.171   3.822  0.0820 -0.1363  0.2821
 8154TIP3    H145953   3.422   2.174   3.907 -0.9656  1.3531  0.8087
 8154TIP3    H245954   3.320   2.095   3.827 -0.5927  0.4206  1.2360
 8155TIP3   OH245955   2.355   5.345   5.104 -0.1956  0.6229  0.0434
 8155TIP3    H145956   2.406   5.421   5.131  1.1557 -0.0891 -0.3826
 8155TIP3    H245957   2.280   5.344   5.162  2.0348 -0.2642  3.1435
 8156TIP3   OH245958   4.032   0.192   0.045  0.0024  0.1791  0.7852
 8156TIP3    H145959   4.003   0.252   0.113 -0.9432 -0.9241  1.3991
 8156TIP3    H245960   3.962   0.193  -0.020  0.5578  0.6616  0.1788
 8157TIP3   OH245961   3.582   1.418   3.143  0.4796 -0.2085 -0.2276
 8157TIP3    H145962   3.536   1.372   3.073  0.5972 -0.9440  0.1727
 8157TIP3    H245963   3.619   1.349   3.197  0.8041  0.3608  0.2905
 8158TIP3   OH245964   0.926   3.822   0.232 -0.3269  0.4557  0.1944
 8158TIP3    H145965   1.009   3.872   0.235  0.2098 -0.1675 -2.1901
 8158TIP3    H245966   0.924   3.775   0.316  0.6378  2.1264  1.2308
 8159TIP3   OH245967   2.538   2.472   2.121 -0.2780  0.2802 -0.1725
 8159TIP3    H145968   2.585   2.512   2.194  0.4280 -2.4779  1.0244
 8159TIP3    H245969   2.453   2.447   2.157 -0.5573  0.3288 -0.7724
 8160TIP3   OH245970   1.331   5.830   3.546  0.0614  0.2857 -0.0271
 8160TIP3    H145971   1.351   5.912   3.590  0.5471  0.9518 -1.4060
 8160TIP3    H245972   1.252   5.848   3.495 -1.2677 -0.8597  1.5126
 8161TIP3   OH245973   2.940   5.161   0.827 -0.0461 -0.3213 -0.7591
 8161TIP3    H145974   3.001   5.095   0.859 -0.4362  0.2969  1.4663
 8161TIP3    H245975   2.935   5.225   0.898  0.8701  2.5450 -3.0775
 8162TIP3   OH245976   5.269   4.393  11.983 -0.4053 -0.0454  0.2124
 8162TIP3    H145977   5.263   4.411  11.889  0.7261 -0.3589  0.0628
 8162TIP3    H245978   5.211   4.457  12.024 -1.2893 -0.2262 -0.7309
 8163TIP3   OH245979   4.431   6.312   5.829 -0.5859  0.0091  0.0155
 8163TIP3    H145980   4.472   6.360   5.758 -0.1045  0.2732  0.4647
 8163TIP3    H245981   4.463   6.222   5.819 -2.1982 -0.4676 -1.3707
 8164TIP3   OH245982   5.305   4.446  13.162 -0.3156  0.6264 -0.2796
 8164TIP3    H145983   5.247   4.370  13.171  0.0693  0.4525  0.7876
 8164TIP3    H245984   5.354   4.428  13.081 -2.4247  1.2651 -1.7957
 8165TIP3   OH245985   5.490   4.926  14.041  0.2432  0.0650 -0.1859
 8165TIP3    H145986   5.456   4.915  13.952 -1.5474  0.7324  0.3727
 8165TIP3    H245987   5.564   4.985  14.031  0.4202 -0.3160 -1.2886
 8166TIP3   OH245988   0.937   6.424   4.016  0.0948  0.1666 -0.0311
 8166TIP3    H145989   1.032   6.415   4.009  0.1711  0.6275  0.3202
 8166TIP3    H245990   0.905   6.334   4.025  0.5041  0.0122 -0.0837
 8167TIP3   OH245991   6.432   3.860   3.261  0.5471 -0.1504 -0.3439
 8167TIP3    H145992   6.485   3.799   3.210 -0.8546 -0.4694 -1.4983
 8167TIP3    H245993   6.347   3.816   3.271  0.4509  0.3415  1.4260
 8168TIP3   OH245994   3.297   1.502   5.565 -0.3541  0.8463 -0.1138
 8168TIP3    H145995   3.388   1.473   5.576 -0.7150 -1.1537 -1.6682
 8168TIP3    H245996   3.246   1.422   5.574 -1.8463  1.7003 -0.6876
 8169TIP3   OH245997   0.696   2.454  11.957 -0.3849  0.1554 -0.0195
 8169TIP3    H145998   0.665   2.468  12.046  0.4356  0.0565  0.2902
 8169TIP3    H245999   0.624   2.408  11.913 -0.8728  0.3930  0.5266
 8170TIP3   OH246000   5.321   5.686   2.439 -0.4873 -0.3700  0.4966
 8170TIP3    H146001   5.230   5.711   2.455 -0.3462  0.4402  0.0960
 8170TIP3    H246002   5.353   5.749   2.375  0.0081 -1.3892 -0.2956
 8171TIP3   OH246003   2.511   1.461  14.723 -0.3903  0.4655 -0.0214
 8171TIP3    H146004   2.434   1.408  14.741 -0.7928  1.2199  0.5481
 8171TIP3    H246005   2.578   1.429  14.784 -0.6007  0.5432  0.2523
 8172TIP3   OH246006   3.951   0.948   3.273 -0.2913 -0.4417  0.9894
 8172TIP3    H146007   3.896   0.925   3.197  0.2692 -0.3204  0.5372
 8172TIP3    H246008   3.988   1.033   3.250  0.6054 -0.8237  0.9873
 8173TIP3   OH246009   0.456   5.002  11.627 -0.7198  0.2095 -0.0097
 8173TIP3    H146010   0.420   5.084  11.593  1.6504  0.9663 -0.8701
 8173TIP3    H246011   0.393   4.936  11.600 -2.5092  1.6761  0.3860
 8174TIP3   OH246012   4.177   0.891   3.568 -0.3644 -1.1057 -0.0740
 8174TIP3    H146013   4.220   0.809   3.542  0.2732 -0.9093  0.3381
 8174TIP3    H246014   4.152   0.876   3.659  1.4533 -0.1789  0.6191
 8175TIP3   OH246015   4.309   4.184  16.807 -0.5476 -0.2362 -0.0004
 8175TIP3    H146016   4.263   4.197  16.724  0.2393 -0.2628 -0.4460
 8175TIP3    H246017   4.264   4.109  16.847 -0.3713 -0.7836 -0.8067
 8176TIP3   OH246018   4.267   6.711  11.055  0.1166 -0.5749  0.0830
 8176TIP3    H146019   4.269   6.687  10.962  0.6556  0.6941 -0.2559
 8176TIP3    H246020   4.194   6.772  11.063  1.5626  1.2850 -0.0660
 8177TIP3   OH246021   5.553   0.945  14.104 -0.3570  0.0265  0.2992
 8177TIP3    H146022   5.578   0.927  14.014 -0.2272  0.8153  0.1666
 8177TIP3    H246023   5.472   0.896  14.117 -0.0439 -0.5941 -0.0399
 8178TIP3   OH246024   3.390   0.417  14.520 -0.1956 -0.4091  0.4726
 8178TIP3    H146025   3.459   0.363  14.481 -0.6019 -1.6565  1.4108
 8178TIP3    H246026   3.435   0.495  14.551  0.4458 -0.2767 -0.7340
 8179TIP3   OH246027   0.437   4.459   4.661 -0.4411  0.5827 -0.2784
 8179TIP3    H146028   0.402   4.391   4.719 -1.7901  0.9137 -0.6796
 8179TIP3    H246029   0.501   4.413   4.606  0.7229  0.2291  1.3142
 8180TIP3   OH246030   1.111   2.245  14.339  0.0727  0.2135  0.8350
 8180TIP3    H146031   1.055   2.298  14.396 -0.5025 -2.3244  2.7870
 8180TIP3    H246032   1.050   2.191  14.289  0.6917 -0.2023  0.5231
 8181TIP3   OH246033   4.849   0.772  14.510 -0.3428 -0.1357 -0.2195
 8181TIP3    H146034   4.764   0.816  14.510  0.5006  1.5779 -1.1600
 8181TIP3    H246035   4.856   0.736  14.421 -0.5799 -1.3434  0.2302
 8182TIP3   OH246036   2.620   2.351   2.709  0.3674  0.3365  0.0046
 8182TIP3    H146037   2.587   2.379   2.624 -1.2386  0.9992  0.7973
 8182TIP3    H246038   2.550   2.374   2.771  1.4499 -0.1917  1.4955
 8183TIP3   OH246039   2.220   4.550   1.042 -0.1982 -0.2308  0.3276
 8183TIP3    H146040   2.172   4.501   0.975 -1.1453  1.7157 -0.5132
 8183TIP3    H246041   2.237   4.486   1.111 -2.0493 -1.5659 -0.3568
 8184TIP3   OH246042   5.652   4.344  14.924  0.8371 -0.2533  0.7680
 8184TIP3    H146043   5.734   4.336  14.876 -0.2418 -1.3756 -1.0196
 8184TIP3    H246044   5.602   4.266  14.898 -0.6866  0.2778  1.9943
 8185TIP3   OH246045   4.387   0.559   2.027  0.2691  0.6093  0.1647
 8185TIP3    H146046   4.353   0.548   2.116 -0.3893  0.9620 -0.0304
 8185TIP3    H246047   4.481   0.568   2.037  0.1995  0.6065  0.8224
 8186TIP3   OH246048   5.372   4.864  13.724  0.2675 -0.0122 -0.0811
 8186TIP3    H146049   5.460   4.827  13.714  0.1593 -0.0742 -0.9177
 8186TIP3    H246050   5.322   4.794  13.766  1.0735  0.7241  2.2339
 8187TIP3   OH246051   0.252   1.562   0.851 -0.5000 -0.2701 -0.3645
 8187TIP3    H146052   0.178   1.564   0.791 -0.2715  1.3844 -0.6465
 8187TIP3    H246053   0.213   1.543   0.937 -1.7339  3.2784  0.0105
 8188TIP3   OH246054   6.338   1.783   1.994 -0.4205  0.0474  0.5646
 8188TIP3    H146055   6.254   1.761   2.035  0.1328  0.5100  2.0103
 8188TIP3    H246056   6.339   1.879   1.992 -1.7814  0.1299 -3.4958
 8189TIP3   OH246057   6.084   5.594   0.538  0.0250  0.5494 -0.3812
 8189TIP3    H146058   6.012   5.590   0.601 -0.7819 -0.2271 -1.3309
 8189TIP3    H246059   6.042   5.613   0.454  0.7786 -1.0454 -1.1560
 8190TIP3   OH246060   3.849   4.682  12.063  0.0661 -0.1501  0.4907
 8190TIP3    H146061   3.818   4.770  12.087 -3.0948 -1.0914  0.2972
 8190TIP3    H246062   3.771   4.627  12.067  1.4330 -2.4814 -1.8021
 8191TIP3   OH246063   5.899   1.051  12.782  0.3434 -0.3519 -0.3559
 8191TIP3    H146064   5.847   0.972  12.764 -0.8726 -0.4131  2.7765
 8191TIP3    H246065   5.958   1.025  12.853  1.2278  1.0903 -0.5331
 8192TIP3   OH246066   2.686   5.974   0.986 -0.0193 -0.4219  0.1114
 8192TIP3    H146067   2.642   5.890   0.997 -0.2234 -0.3235  0.0625
 8192TIP3    H246068   2.780   5.954   0.990 -0.0379 -0.8181 -1.1009
 8193TIP3   OH246069   4.516   4.257  14.146  0.2923  0.1565 -0.5922
 8193TIP3    H146070   4.493   4.263  14.239 -0.3934  0.4306 -0.7774
 8193TIP3    H246071   4.433   4.254  14.100  0.6287 -0.1703 -1.1931
 8194TIP3   OH246072   5.576   6.742  13.924  0.0396  0.2359 -0.0527
 8194TIP3    H146073   5.609   6.752  14.014  1.4389  1.2692 -0.6491
 8194TIP3    H246074   5.504   6.805  13.918 -0.5656 -0.3780  0.5586
 8195TIP3   OH246075   3.321   2.494  15.280  0.1274 -0.0868  0.4811
 8195TIP3    H146076   3.330   2.528  15.191 -0.9373 -0.9315  0.0319
 8195TIP3    H246077   3.408   2.505  15.319  0.5041  0.6468 -0.5276
 8196TIP3   OH246078   2.998   0.700   6.164  0.0652  0.1322 -0.5048
 8196TIP3    H146079   2.921   0.731   6.116 -1.9101 -2.1027  0.9659
 8196TIP3    H246080   3.037   0.633   6.108  0.2283  0.4262 -0.7427
 8197TIP3   OH246081   1.477   5.848  14.857 -0.5469  0.1877 -0.1654
 8197TIP3    H146082   1.439   5.850  14.945  0.8221 -0.4915  0.4647
 8197TIP3    H246083   1.571   5.854  14.871 -0.3188  0.4227 -1.6204
 8198TIP3   OH246084   0.066   5.512  14.505  0.2962 -0.6511  0.0382
 8198TIP3    H146085   0.031   5.519  14.594 -0.7478  0.7849 -0.4608
 8198TIP3    H246086   0.114   5.594  14.492  1.7741 -1.5150 -0.1979
 8199TIP3   OH246087   1.927   4.583  13.220 -0.0082 -0.3868  0.1789
 8199TIP3    H146088   1.998   4.612  13.164  0.2364  0.3735  0.8703
 8199TIP3    H246089   1.971   4.548  13.298 -0.3865  1.4526  1.2717
 8200TIP3   OH246090   4.663   3.507  16.867  0.5998  0.0486  0.2141
 8200TIP3    H146091   4.707   3.496  16.783  0.5326 -0.8131  0.2811
 8200TIP3    H246092   4.722   3.464  16.930 -0.0511 -0.5929  0.3902
 8201TIP3   OH246093   2.826   6.711   1.713  0.5251 -0.3316 -0.0801
 8201TIP3    H146094   2.769   6.659   1.769 -0.9389  0.4527 -0.7785
 8201TIP3    H246095   2.768   6.776   1.673  1.9299  0.5673 -0.7654
 8202TIP3   OH246096   0.209   3.207   0.586  0.3624  0.1435  0.1314
 8202TIP3    H146097   0.279   3.266   0.615 -0.2531 -0.1549  2.4533
 8202TIP3    H246098   0.188   3.155   0.664 -0.7968 -1.4503 -1.1755
 8203TIP3   OH246099   2.699   3.452   5.033  0.2083 -0.2987  0.0166
 8203TIP3    H146100   2.612   3.418   5.010 -0.2727  0.0164  1.2874
 8203TIP3    H246101   2.728   3.498   4.955 -0.9486 -0.0656 -0.2965
 8204TIP3   OH246102   5.874   1.090  13.373 -0.0923  0.4649 -0.1732
 8204TIP3    H146103   5.914   1.009  13.406  0.3851  0.7116 -0.1432
 8204TIP3    H246104   5.820   1.121  13.446 -0.6396 -0.0577 -0.3393
 8205TIP3   OH246105   5.593   3.070  15.290  0.1662 -0.3704  0.3565
 8205TIP3    H146106   5.508   3.042  15.323 -0.6123 -0.0516 -1.2670
 8205TIP3    H246107   5.652   2.998  15.310 -1.2836 -2.2885 -1.6921
 8206TIP3   OH246108   0.707   3.991  15.599 -0.5279 -0.5668  0.3212
 8206TIP3    H146109   0.734   3.925  15.536 -0.8361 -0.2536 -0.1545
 8206TIP3    H246110   0.704   4.073  15.548 -0.7157 -0.2978  0.7541
 8207TIP3   OH246111   3.774   3.546   2.579 -0.6306 -0.0726  0.3111
 8207TIP3    H146112   3.847   3.543   2.642 -0.4101  0.8629  0.1239
 8207TIP3    H246113   3.699   3.572   2.632 -0.4127  0.8704  0.1851
 8208TIP3   OH246114   4.163   3.293  11.608  0.1147  0.2251 -0.0609
 8208TIP3    H146115   4.254   3.323  11.608  0.1074  0.2884 -1.4837
 8208TIP3    H246116   4.111   3.373  11.607  0.0563  0.1823 -0.3861
 8209TIP3   OH246117   4.116   3.786  14.320  0.0274 -0.2498  0.3222
 8209TIP3    H146118   4.114   3.691  14.332  0.1122 -0.0408  2.2038
 8209TIP3    H246119   4.147   3.820  14.403 -0.2749  1.4634 -0.2311
 8210TIP3   OH246120   2.240   6.347   5.657 -0.3929  0.2621  0.0820
 8210TIP3    H146121   2.232   6.325   5.750  1.4817  0.5302  0.3558
 8210TIP3    H246122   2.161   6.312   5.617 -1.0742 -0.1718  1.7251
 8211TIP3   OH246123   6.541   0.897  17.103  0.3968 -0.1306  0.5854
 8211TIP3    H146124   6.586   0.884  17.019  1.0644 -1.7512  1.1544
 8211TIP3    H246125   6.610   0.922  17.163  0.0181  0.4214  0.7956
 8212TIP3   OH246126   6.806   4.648  15.023  0.8409  0.3220  0.8411
 8212TIP3    H146127   6.748   4.607  14.959  2.9163 -0.0195 -0.9222
 8212TIP3    H246128   6.746   4.688  15.086 -1.2870 -1.0090 -0.2036
 8213TIP3   OH246129   5.741   2.890   1.468  0.0686  0.1645  0.2651
 8213TIP3    H146130   5.835   2.906   1.467  0.2552 -0.8551 -1.1084
 8213TIP3    H246131   5.716   2.887   1.376 -1.0933 -0.7812  0.5810
 8214TIP3   OH246132   6.089   2.722  10.819  0.2941 -0.4602  0.2230
 8214TIP3    H146133   6.060   2.709  10.910  0.3573  2.4590  0.7615
 8214TIP3    H246134   6.184   2.733  10.826  0.1411  1.2892  0.0907
 8215TIP3   OH246135   2.887   0.074  14.328  0.2534 -0.3318 -0.5527
 8215TIP3    H146136   2.849   0.150  14.285 -1.8413 -0.0711  1.5233
 8215TIP3    H246137   2.923   0.108  14.410 -0.3423 -1.4803  0.2198
 8216TIP3   OH246138   5.565   2.094   1.322 -0.0894 -0.1001 -0.2266
 8216TIP3    H146139   5.611   2.164   1.368  1.8538 -1.0925 -0.5696
 8216TIP3    H246140   5.577   2.017   1.377  0.8143 -0.9150 -1.5077
 8217TIP3   OH246141   4.244   2.842  13.097  0.1940 -0.0342 -0.5193
 8217TIP3    H146142   4.313   2.776  13.089  0.5828  0.4463 -1.1274
 8217TIP3    H246143   4.163   2.792  13.088  0.3825 -0.8162  1.5451
 8218TIP3   OH246144   4.404   6.691   0.255  0.1357  0.5437  0.3707
 8218TIP3    H146145   4.398   6.763   0.192 -0.2026 -0.9731 -1.4214
 8218TIP3    H246146   4.478   6.639   0.224  1.2193  0.7936  2.4180
 8219TIP3   OH246147   4.183   3.420  13.395  0.0021  0.5703 -0.3999
 8219TIP3    H146148   4.244   3.390  13.327  0.4040  0.9403 -0.2092
 8219TIP3    H246149   4.201   3.365  13.470  0.3659  0.9218 -0.2234
 8220TIP3   OH246150   1.456   3.145   2.325  0.1841  0.7157 -0.0847
 8220TIP3    H146151   1.492   3.110   2.243  1.6361 -0.7227  1.1040
 8220TIP3    H246152   1.511   3.221   2.344  1.0537 -0.0410  0.4799
 8221TIP3   OH246153   1.831   6.105  16.869  0.1348  0.4935  0.5243
 8221TIP3    H146154   1.915   6.150  16.879 -0.6370  2.0299  0.4510
 8221TIP3    H246155   1.811   6.111  16.776 -0.3565  0.7293  0.6382
 8222TIP3   OH246156   5.793   4.424  14.530  0.1638 -0.1627  0.3236
 8222TIP3    H146157   5.723   4.450  14.589  0.0443 -0.2532  0.2236
 8222TIP3    H246158   5.767   4.460  14.445  1.3346  1.7427  0.7060
 8223TIP3   OH246159   3.234   6.497  15.923 -0.5613 -0.0217 -0.2006
 8223TIP3    H146160   3.297   6.425  15.934  0.7917  0.8760 -1.6863
 8223TIP3    H246161   3.248   6.527  15.834 -0.9712  2.2328  0.4486
 8224TIP3   OH246162   6.489   5.919  14.093 -0.0831 -0.1072 -0.5345
 8224TIP3    H146163   6.458   5.839  14.136  0.5616 -0.6926 -1.1339
 8224TIP3    H246164   6.581   5.901  14.073 -0.5322 -0.1220 -2.7561
 8225TIP3   OH246165   2.187   2.238   5.617 -0.3571  0.6105 -0.2931
 8225TIP3    H146166   2.243   2.292   5.561 -0.3404 -0.7838 -1.7195
 8225TIP3    H246167   2.196   2.149   5.580 -1.7757 -0.0330  0.8220
 8226TIP3   OH246168   0.989   2.510  15.601 -0.2326 -0.4537 -0.0064
 8226TIP3    H146169   1.078   2.545  15.600 -0.6400  0.6909  1.3823
 8226TIP3    H246170   0.989   2.442  15.533  1.6124 -0.2912 -0.2038
 8227TIP3   OH246171   2.177   3.609  15.083 -0.4355  0.0920 -0.1155
 8227TIP3    H146172   2.244   3.666  15.045 -1.4862  0.4354 -1.5416
 8227TIP3    H246173   2.137   3.662  15.151 -0.1761  0.3828 -0.1851
 8228TIP3   OH246174   0.909   0.699   6.313  0.5583 -0.3030  1.1802
 8228TIP3    H146175   0.957   0.774   6.279 -1.1404  0.2925 -0.0491
 8228TIP3    H246176   0.867   0.731   6.392 -0.7836  0.3297  0.2506
 8229TIP3   OH246177   0.159   6.769  13.071 -0.0609 -0.2637 -0.4222
 8229TIP3    H146178   0.101   6.830  13.116 -1.4392  0.5995 -3.1246
 8229TIP3    H246179   0.100   6.716  13.017  1.3000 -2.6524  0.2888
 8230TIP3   OH246180   6.467   0.387   1.258  0.3579  0.8269 -0.0555
 8230TIP3    H146181   6.517   0.383   1.339 -0.4826  0.6185  0.4655
 8230TIP3    H246182   6.532   0.375   1.189  1.1272  1.3278  0.5667
 8231TIP3   OH246183   3.259   4.769   0.279  0.2237  0.4601 -0.4845
 8231TIP3    H146184   3.326   4.804   0.337 -0.5922 -0.5028  1.1170
 8231TIP3    H246185   3.247   4.679   0.309  0.4684 -0.4110 -2.8161
 8232TIP3   OH246186   6.514   3.590  16.472 -0.3630  0.3863  0.1801
 8232TIP3    H146187   6.440   3.647  16.449 -0.1899  0.0679 -1.2762
 8232TIP3    H246188   6.476   3.502  16.473  0.0893  0.1502 -1.1894
 8233TIP3   OH246189   2.199   3.451   3.830 -0.1085  0.0800 -0.3981
 8233TIP3    H146190   2.122   3.430   3.779 -0.6442  1.9212 -0.4227
 8233TIP3    H246191   2.240   3.524   3.783  0.8006  0.1181  0.4196
 8234TIP3   OH246192   6.839   4.056  15.265  0.5494  0.3619  0.5437
 8234TIP3    H146193   6.849   4.000  15.188  2.4732  0.9475  0.3035
 8234TIP3    H246194   6.748   4.044  15.293  0.4428 -1.5729 -0.4833
 8235TIP3   OH246195   1.187   1.491  16.297  0.0509 -0.2371  0.1669
 8235TIP3    H146196   1.150   1.404  16.283  2.1801 -1.2616  0.5936
 8235TIP3    H246197   1.168   1.538  16.215  1.2679 -2.0176 -1.2193
 8236TIP3   OH246198   5.074   1.611  12.395 -0.1710  0.6558 -0.1959
 8236TIP3    H146199   5.147   1.665  12.364 -0.6149  1.1579 -0.3817
 8236TIP3    H246200   5.031   1.581  12.315  1.3336 -1.7831 -0.1876
 8237TIP3   OH246201   6.370   0.789   3.773 -0.6665  0.3441  0.3128
 8237TIP3    H146202   6.388   0.801   3.679 -0.7309  1.3169  0.4138
 8237TIP3    H246203   6.343   0.698   3.780  1.8157 -0.5231 -0.2212
 8238TIP3   OH246204   4.326   4.930   5.990 -0.1889  0.1532  0.4220
 8238TIP3    H146205   4.399   4.882   6.029 -0.8068 -0.5524  0.7546
 8238TIP3    H246206   4.269   4.861   5.954 -0.9306  0.6578  0.6121
 8239TIP3   OH246207   5.641   0.061   2.574 -0.5597 -0.4345  0.1937
 8239TIP3    H146208   5.673   0.118   2.504  0.8191  2.9420  3.3051
 8239TIP3    H246209   5.718   0.011   2.601 -0.9387 -1.2409 -0.1636
 8240TIP3   OH246210   0.507   3.211   0.965 -0.5591 -0.3882 -0.1481
 8240TIP3    H146211   0.593   3.201   1.007 -0.0434  0.8710 -0.8522
 8240TIP3    H246212   0.446   3.170   1.026  0.2798  0.5514  1.3997
 8241TIP3   OH246213   3.928   0.845   2.765 -0.1577 -0.2173 -0.3365
 8241TIP3    H146214   3.999   0.877   2.709  0.1869  1.7396  1.1431
 8241TIP3    H246215   3.882   0.781   2.710  2.5217 -1.3149 -1.4543
 8242TIP3   OH246216   6.314   1.209   2.627  0.5447  0.3382  0.4179
 8242TIP3    H146217   6.351   1.262   2.698 -1.6579  1.3943  0.8570
 8242TIP3    H246218   6.350   1.122   2.642  1.9951  1.0476  1.3976
 8243TIP3   OH246219   4.642   5.806  11.319 -0.1153  0.2610 -0.1617
 8243TIP3    H146220   4.664   5.896  11.341  0.0364  1.1572 -3.5373
 8243TIP3    H246221   4.688   5.754  11.386 -1.7257  2.5932  3.0359
 8244TIP3   OH246222   1.465   0.147   5.381 -0.2200 -0.1840 -0.0385
 8244TIP3    H146223   1.496   0.153   5.290 -0.5140 -0.6375 -0.1734
 8244TIP3    H246224   1.374   0.174   5.377 -0.2318 -0.2001  0.1225
 8245TIP3   OH246225   5.740   5.194  12.200  0.1218  0.1302 -0.1355
 8245TIP3    H146226   5.786   5.203  12.283  0.2855  0.8659 -0.2967
 8245TIP3    H246227   5.809   5.173  12.137  0.3015  1.4761 -0.4215
 8246TIP3   OH246228   3.758   3.118  14.888 -0.0304 -0.4415  0.5910
 8246TIP3    H146229   3.736   3.111  14.981 -1.4613  0.7791  0.3944
 8246TIP3    H246230   3.677   3.094  14.843  1.0146 -2.3006 -0.4049
 8247TIP3   OH246231   0.364   0.291   1.098 -0.5306  0.0177  0.0457
 8247TIP3    H146232   0.386   0.384   1.090  0.8136 -0.3404 -0.6911
 8247TIP3    H246233   0.284   0.281   1.046 -0.2814  0.6319 -0.4723
 8248TIP3   OH246234   6.389   6.222  13.130  0.4156 -0.3015 -0.4278
 8248TIP3    H146235   6.450   6.171  13.183  0.3318  1.0337  0.9898
 8248TIP3    H246236   6.303   6.198  13.164  0.2967 -0.2288 -0.6793
 8249TIP3   OH246237   1.389   1.659  16.410 -0.9071 -0.4423  0.6400
 8249TIP3    H146238   1.322   1.595  16.386 -2.6508  1.8565 -1.2800
 8249TIP3    H246239   1.434   1.677  16.328  0.7632 -0.4932  1.5170
 8250TIP3   OH246240   6.172   2.669  14.096  0.2309 -0.4921  0.5637
 8250TIP3    H146241   6.110   2.602  14.070  1.4550 -1.0437 -1.0968
 8250TIP3    H246242   6.171   2.667  14.192 -2.4953 -0.2346  0.6093
 8251TIP3   OH246243   1.300   6.068   4.644 -1.0233  0.1971  0.0376
 8251TIP3    H146244   1.219   6.036   4.603 -1.3947  1.6676 -0.4354
 8251TIP3    H246245   1.301   6.162   4.626  1.2451  0.0828 -0.7157
 8252TIP3   OH246246   6.205   5.873   0.492  0.7460 -0.3723  0.3551
 8252TIP3    H146247   6.143   5.835   0.430  1.2869 -2.2167  0.8802
 8252TIP3    H246248   6.154   5.888   0.571  0.3158  0.9015 -0.1538
 8253TIP3   OH246249   4.936   0.727  14.240  0.5239  0.6046  0.3796
 8253TIP3    H146250   4.876   0.700  14.170  0.4296 -1.0538  1.0554
 8253TIP3    H246251   4.971   0.810  14.210  0.1780  0.1407 -1.4672
 8254TIP3   OH246252   1.109   2.373  12.762 -0.3764 -0.5259 -0.2041
 8254TIP3    H146253   1.178   2.404  12.703 -0.7149 -0.3779 -0.5201
 8254TIP3    H246254   1.083   2.452  12.811 -1.8298 -0.1035 -1.5994
 8255TIP3   OH246255   0.298   0.848  15.889  0.0837 -0.2915  0.1010
 8255TIP3    H146256   0.238   0.898  15.833  0.4157  0.2669  0.2373
 8255TIP3    H246257   0.353   0.914  15.930 -2.0665 -0.3292  3.4352
 8256TIP3   OH246258   3.916   3.293   1.439  0.4146  0.1001  0.1770
 8256TIP3    H146259   3.871   3.279   1.522 -0.0510 -0.1168 -0.1056
 8256TIP3    H246260   3.983   3.224   1.437 -0.1220 -0.4231 -0.0004
 8257TIP3   OH246261   4.423   3.222  12.671 -0.4678  0.7721 -0.1674
 8257TIP3    H146262   4.479   3.248  12.743 -0.3721 -1.0287  0.4774
 8257TIP3    H246263   4.342   3.194  12.713 -1.4320  2.2117 -0.9962
 8258TIP3   OH246264   2.098   3.094   0.770 -0.2190  0.4543 -0.3612
 8258TIP3    H146265   2.129   3.111   0.681  1.7455  0.2618  0.2364
 8258TIP3    H246266   2.082   3.000   0.772  0.7510  0.2876 -0.2231
 8259TIP3   OH246267   1.338   6.626  16.731  0.3326  0.3448  0.0352
 8259TIP3    H146268   1.340   6.584  16.645  0.9486 -2.2734  1.2221
 8259TIP3    H246269   1.419   6.597  16.773 -1.2631 -0.8610  2.5198
 8260TIP3   OH246270   3.155   2.878  14.297 -0.1767  0.2174  0.5693
 8260TIP3    H146271   3.193   2.797  14.264  0.0213 -0.0906  1.5242
 8260TIP3    H246272   3.183   2.882  14.389 -0.5750  1.1275  0.6646
 8261TIP3   OH246273   3.181   4.982   0.868  0.0369 -0.9038 -0.1992
 8261TIP3    H146274   3.168   4.894   0.831  1.1818 -1.5068  0.7550
 8261TIP3    H246275   3.276   4.992   0.872 -0.0809  0.0357  0.4811
 8262TIP3   OH246276   4.939   2.144   5.636 -0.1431 -0.8179 -0.1830
 8262TIP3    H146277   4.925   2.086   5.561  0.0213 -0.4701 -0.4876
 8262TIP3    H246278   4.913   2.092   5.712 -1.1857 -0.8694 -0.5534
 8263TIP3   OH246279   4.485   1.826  16.874  0.0848 -0.4470  0.2969
 8263TIP3    H146280   4.559   1.880  16.902  0.9530 -1.1120 -0.6229
 8263TIP3    H246281   4.489   1.827  16.778 -1.1052 -0.5034  0.2307
 8264TIP3   OH246282   1.375   0.066  15.347  0.0514  0.8801  0.1424
 8264TIP3    H146283   1.320  -0.000  15.387  0.5162 -0.9739 -2.0756
 8264TIP3    H246284   1.461   0.053  15.387  0.2826 -0.3021 -0.6920
 8265TIP3   OH246285   2.026   6.474   2.706  0.0751  0.2064  0.2485
 8265TIP3    H146286   2.121   6.460   2.707 -0.0094 -0.4212 -0.3041
 8265TIP3    H246287   2.016   6.567   2.682  0.6054  1.1100  3.0965
 8266TIP3   OH246288   1.551   1.232  15.325 -0.0294 -0.0697 -0.0020
 8266TIP3    H146289   1.465   1.192  15.339  0.2269 -0.4171  0.5884
 8266TIP3    H246290   1.613   1.161  15.338  0.3960  0.3641  0.3629
 8267TIP3   OH246291   6.777   0.555  13.048 -0.1525 -0.1943  0.9868
 8267TIP3    H146292   6.798   0.644  13.020 -0.1233  0.2042  2.2056
 8267TIP3    H246293   6.857   0.506  13.034 -1.0023 -0.8215 -2.5406
 8268TIP3   OH246294   0.891   4.144  15.241 -0.2092 -0.5216 -0.1731
 8268TIP3    H146295   0.925   4.059  15.215 -0.4837 -0.7143  0.0834
 8268TIP3    H246296   0.946   4.208  15.196 -0.1738 -0.8400 -0.5794
 8269TIP3   OH246297   3.150   0.782  16.509  0.3649  0.0316  0.3786
 8269TIP3    H146298   3.165   0.696  16.549 -1.6493 -0.7437 -0.3991
 8269TIP3    H246299   3.106   0.833  16.577 -1.6271 -0.7676 -0.2359
 8270TIP3   OH246300   1.138   2.263  14.913 -0.1741  0.4275 -0.6231
 8270TIP3    H146301   1.231   2.288  14.911 -0.3093  0.8934 -2.1775
 8270TIP3    H246302   1.139   2.170  14.936  0.3680  1.4314  4.6608
 8271TIP3   OH246303   6.180   6.158  15.161 -0.5689  0.2163  0.3575
 8271TIP3    H146304   6.134   6.235  15.126 -0.7876  0.8893  2.0132
 8271TIP3    H246305   6.237   6.194  15.229 -1.7821 -1.2102  2.2346
 8272TIP3   OH246306   6.321   2.910   4.825 -0.4685  0.5887  0.0803
 8272TIP3    H146307   6.257   2.931   4.757 -1.5018  2.3173  1.5017
 8272TIP3    H246308   6.268   2.890   4.903  0.6846 -0.9496  0.5330
 8273TIP3   OH246309   5.567   2.461   3.313  0.1756 -0.2633  0.6150
 8273TIP3    H146310   5.550   2.547   3.275  2.4961 -0.1275 -0.2489
 8273TIP3    H246311   5.500   2.404   3.273 -0.5478  0.8628  0.1739
 8274TIP3   OH246312   4.231   5.976  14.100  0.3932 -0.1622  0.4986
 8274TIP3    H146313   4.320   6.011  14.113 -0.8802  2.7785  2.5086
 8274TIP3    H246314   4.196   5.968  14.188 -1.3212 -1.4011 -0.2615
 8275TIP3   OH246315   5.801   3.587   3.255  0.1254 -0.3322 -0.0271
 8275TIP3    H146316   5.761   3.652   3.198 -0.3990 -0.0556  0.6510
 8275TIP3    H246317   5.768   3.606   3.342  2.8080  0.7990  0.8516
 8276TIP3   OH246318   5.157   2.882   1.945  0.4655 -0.1922 -0.2424
 8276TIP3    H146319   5.219   2.818   1.910  0.3209  0.9516 -2.7774
 8276TIP3    H246320   5.208   2.962   1.953  0.2958 -0.2237  1.6326
 8277TIP3   OH246321   1.666   2.242  16.694 -0.1492 -0.0813 -0.3304
 8277TIP3    H146322   1.677   2.306  16.764 -0.8242 -0.6206  0.2849
 8277TIP3    H246323   1.756   2.217  16.671  0.1044  0.6480 -0.1796
 8278TIP3   OH246324   6.050   4.270  13.932 -0.2194 -0.5646 -0.5213
 8278TIP3    H146325   6.072   4.326  13.858  0.5647 -0.1805 -0.0152
 8278TIP3    H246326   6.016   4.330  13.999 -0.0335 -0.7831 -0.2252
 8279TIP3   OH246327   6.526   1.834   1.656 -0.0637  0.1703 -0.2228
 8279TIP3    H146328   6.587   1.893   1.701  0.1008  2.7501 -3.5054
 8279TIP3    H246329   6.439   1.869   1.678  0.0409  2.0672 -2.4459
 8280TIP3   OH246330   4.092   0.931   1.037 -0.2976  0.4104 -0.0522
 8280TIP3    H146331   4.149   1.001   1.005  1.2265 -0.2927  0.9722
 8280TIP3    H246332   4.099   0.935   1.132 -1.5731 -0.0410  0.0817
 8281TIP3   OH246333   0.742   2.924  16.624 -0.1608  0.1542  0.1767
 8281TIP3    H146334   0.746   2.835  16.587  1.3390 -0.0399  0.7508
 8281TIP3    H246335   0.745   2.981  16.548 -1.0311 -0.2774 -0.1955
 8282TIP3   OH246336   3.868   2.483   0.965  0.1847 -0.5347  0.1673
 8282TIP3    H146337   3.782   2.523   0.950 -0.5256 -2.0284  0.0468
 8282TIP3    H246338   3.850   2.389   0.970  1.9640 -0.9976 -1.0357
 8283TIP3   OH246339   1.084   1.707   1.550 -0.1018  0.9203  0.8172
 8283TIP3    H146340   1.129   1.654   1.616 -1.6020  0.4510  1.4990
 8283TIP3    H246341   1.103   1.663   1.467  0.0484  0.2753  1.1869
 8284TIP3   OH246342   5.896   6.514  11.881 -0.8028 -0.0572 -0.3200
 8284TIP3    H146343   5.877   6.527  11.788 -3.1696 -1.5611 -0.1488
 8284TIP3    H246344   5.810   6.505  11.921  0.2087 -0.9067  1.7826
 8285TIP3   OH246345   6.410   4.976   4.769  0.1860 -0.1287 -0.5354
 8285TIP3    H146346   6.353   4.975   4.846 -1.2326 -0.2469 -1.5356
 8285TIP3    H246347   6.355   5.013   4.700  1.1554 -0.7570 -1.6735
 8286TIP3   OH246348   3.666   3.117  11.645 -0.6406 -0.4047 -0.3729
 8286TIP3    H146349   3.708   3.033  11.659  0.4796  0.3078  0.7935
 8286TIP3    H246350   3.672   3.162  11.729  2.3402  2.3637 -1.8267
 8287TIP3   OH246351   1.538   3.908  16.343  0.0981 -0.5930 -0.7923
 8287TIP3    H146352   1.570   3.821  16.369  0.8875 -0.4172 -1.1431
 8287TIP3    H246353   1.566   3.918  16.252 -0.5253 -0.2170 -0.9462
 8288TIP3   OH246354   0.494   4.726   4.670 -0.0442  0.5122  0.0174
 8288TIP3    H146355   0.471   4.634   4.659  0.2925  0.5293 -0.9486
 8288TIP3    H246356   0.538   4.749   4.588  2.5149  0.7396  1.3624
 8289TIP3   OH246357   1.594   1.501  14.115 -0.0329 -0.1309 -0.2897
 8289TIP3    H146358   1.638   1.585  14.131 -0.7436 -0.4207  4.6691
 8289TIP3    H246359   1.514   1.525  14.069 -1.0486  2.3189  2.4372
 8290TIP3   OH246360   1.834   6.266   2.021  0.1396  0.3929  0.6943
 8290TIP3    H146361   1.843   6.269   1.925  2.2163 -2.4696  0.6755
 8290TIP3    H246362   1.747   6.228   2.035  1.4101 -3.2637 -0.3116
 8291TIP3   OH246363   3.074   2.392   1.244 -0.2962 -0.3942  0.2251
 8291TIP3    H146364   3.166   2.382   1.219  0.0342  0.2947  1.1258
 8291TIP3    H246365   3.060   2.486   1.246 -0.9500 -0.4908  0.3696
 8292TIP3   OH246366   2.260   2.586  13.573  0.7620 -0.2135 -0.8236
 8292TIP3    H146367   2.302   2.672  13.584  0.4298 -0.2807  1.4855
 8292TIP3    H246368   2.168   2.605  13.560  0.3835 -0.1969  1.5123
 8293TIP3   OH246369   1.364   5.179   0.328  0.0555  0.1152 -0.3063
 8293TIP3    H146370   1.418   5.246   0.369  0.4461  0.2300 -0.9850
 8293TIP3    H246371   1.383   5.187   0.235 -1.6902  0.6326 -0.6486
 8294TIP3   OH246372   3.696   3.048   1.821 -0.4195 -0.0843  0.2204
 8294TIP3    H146373   3.784   3.011   1.818  0.5149  1.9540  0.6646
 8294TIP3    H246374   3.683   3.073   1.912 -1.8054 -1.0954  0.3247
 8295TIP3   OH246375   1.134   4.787  10.697 -0.0118  0.7365  0.0914
 8295TIP3    H146376   1.064   4.774  10.634  0.5846 -0.8542 -0.2949
 8295TIP3    H246377   1.163   4.877  10.684 -1.3732  1.1201 -0.3517
 8296TIP3   OH246378   4.333   1.418   1.303  0.1210  0.4186  0.9780
 8296TIP3    H146379   4.252   1.452   1.266  1.3864  1.5699 -0.9317
 8296TIP3    H246380   4.324   1.434   1.397 -1.4068  1.5625  0.6879
 8297TIP3   OH246381   4.481   4.439   5.621  0.8260  0.2453  0.5351
 8297TIP3    H146382   4.401   4.386   5.630  0.3990  1.1399  2.4578
 8297TIP3    H246383   4.513   4.449   5.710  1.9776  1.6016  0.0022
 8298TIP3   OH246384   5.393   4.512  16.748 -0.0738  0.0180  0.3831
 8298TIP3    H146385   5.417   4.604  16.733 -2.2184  0.6613  0.5228
 8298TIP3    H246386   5.443   4.463  16.683  0.0791  1.4507 -0.6195
 8299TIP3   OH246387   3.982   6.637  14.645 -0.3405  0.3212  0.5113
 8299TIP3    H146388   4.056   6.684  14.606  0.0789 -1.1135 -0.4797
 8299TIP3    H246389   4.011   6.546  14.652 -2.7995 -0.8204 -2.1696
 8300TIP3   OH246390   0.901   1.090  16.583  0.0687  0.5040 -0.4745
 8300TIP3    H146391   0.972   1.039  16.623  1.5838  2.4214 -0.5417
 8300TIP3    H246392   0.844   1.024  16.543  1.4959 -1.1652  0.0753
 8301TIP3   OH246393   4.119   1.592  16.830 -0.4311  0.0473  0.1063
 8301TIP3    H146394   4.059   1.543  16.885  0.0233  0.5036  1.0395
 8301TIP3    H246395   4.206   1.567  16.861 -0.1790  2.2040  1.3812
 8302TIP3   OH246396   5.132   5.879  13.502  0.2479 -0.1417  0.7087
 8302TIP3    H146397   5.183   5.809  13.462  1.2107  2.0961 -2.3184
 8302TIP3    H246398   5.043   5.864  13.472 -0.1377 -1.5836  2.4208
 8303TIP3   OH246399   0.322   5.461  16.440 -0.0507 -0.0375  0.2065
 8303TIP3    H146400   0.382   5.477  16.367 -0.0151  0.6699  0.3827
 8303TIP3    H246401   0.239   5.498  16.411 -0.7841 -2.1508 -0.5598
 8304TIP3   OH246402   4.421   3.776  12.056  0.6633 -0.1023  0.3425
 8304TIP3    H146403   4.513   3.754  12.062  0.6952 -0.4226 -1.0461
 8304TIP3    H246404   4.419   3.871  12.047  0.9750 -0.2358 -1.3490
 8305TIP3   OH246405   5.732   4.105  14.469 -0.4355 -0.3964 -0.4173
 8305TIP3    H146406   5.805   4.137  14.522 -0.3291 -0.2222 -0.6690
 8305TIP3    H246407   5.679   4.054  14.530 -1.4821  1.5593  0.4034
 8306TIP3   OH246408   6.453   1.399   6.630  0.0091 -1.1172 -0.4067
 8306TIP3    H146409   6.482   1.311   6.607 -0.6005 -1.2328 -0.7676
 8306TIP3    H246410   6.529   1.454   6.616  0.5152 -1.6387  0.1974
 8307TIP3   OH246411   0.178   1.956  15.204  0.1076  0.0657 -0.1873
 8307TIP3    H146412   0.218   1.878  15.242  0.5051  0.7895  0.9335
 8307TIP3    H246413   0.119   1.989  15.272 -1.7004 -0.4087 -1.4304
 8308TIP3   OH246414   0.694   1.073   2.241 -0.0496 -0.0446  0.0031
 8308TIP3    H146415   0.685   1.016   2.317 -0.6142 -1.2611 -0.9280
 8308TIP3    H246416   0.786   1.064   2.215  0.2414  0.6767  0.7508
 8309TIP3   OH246417   1.158   4.947  14.694 -0.1540 -0.3437 -0.0895
 8309TIP3    H146418   1.221   4.880  14.721 -1.3947 -1.3462  0.4257
 8309TIP3    H246419   1.210   5.026  14.682  1.1939 -1.1454  0.3131
 8310TIP3   OH246420   1.094   2.827  11.977  0.3073  0.0918 -0.0672
 8310TIP3    H146421   1.140   2.859  12.054 -1.1941 -0.8436  1.2803
 8310TIP3    H246422   1.067   2.906  11.931 -1.4955  0.8370  2.0747
 8311TIP3   OH246423   4.153   0.945  13.131  0.7061  0.1882  0.7114
 8311TIP3    H146424   4.228   0.962  13.189  0.8434  0.2997  0.5022
 8311TIP3    H246425   4.176   0.989  13.049 -0.0095  1.0541  0.9612
 8312TIP3   OH246426   2.050   6.367  13.323  0.0493 -0.0592  0.3765
 8312TIP3    H146427   2.110   6.292  13.326  0.1699  0.0717  1.5388
 8312TIP3    H246428   1.970   6.335  13.364 -0.4042  0.0236 -0.4228
 8313TIP3   OH246429   2.950   5.905   4.620  0.0480 -0.5437  0.2205
 8313TIP3    H146430   2.979   5.952   4.541  0.6696  0.4033  0.9882
 8313TIP3    H246431   2.970   5.814   4.601 -1.0634 -0.5126 -1.2601
 8314TIP3   OH246432   5.014   2.315   4.477  0.1177 -0.3600 -0.2663
 8314TIP3    H146433   5.081   2.369   4.435 -2.3950  1.7584 -1.8898
 8314TIP3    H246434   4.949   2.378   4.508  0.0569 -2.0928  3.7822
 8315TIP3   OH246435   1.500   3.465   3.003  0.2445  0.0408 -0.0395
 8315TIP3    H146436   1.534   3.504   2.922 -0.8547 -0.9671 -1.0050
 8315TIP3    H246437   1.536   3.377   3.004  1.6014  0.5581  1.4524
 8316TIP3   OH246438   4.498   4.252  11.002  0.2265 -0.5000  0.1976
 8316TIP3    H146439   4.480   4.161  10.978 -2.1900  0.3983 -1.7858
 8316TIP3    H246440   4.493   4.301  10.920  1.9209  1.4268  1.1251
 8317TIP3   OH246441   0.552   3.883   5.779  0.3965 -0.0005  0.1050
 8317TIP3    H146442   0.576   3.862   5.689  0.4935  0.9859 -0.1093
 8317TIP3    H246443   0.489   3.816   5.803  0.6641 -0.5038 -0.5628
 8318TIP3   OH246444   1.095   6.054   1.830 -0.6639 -0.2709  0.3004
 8318TIP3    H146445   1.051   6.083   1.751 -2.1428  0.1395  1.2269
 8318TIP3    H246446   1.058   5.968   1.848  2.0379 -1.8725 -1.1753
 8319TIP3   OH246447   5.224   3.620  14.889  0.5150 -0.5163  0.4599
 8319TIP3    H146448   5.179   3.608  14.806  1.6327  0.2942 -0.3044
 8319TIP3    H246449   5.157   3.605  14.956 -1.1645  1.6445 -0.6210
 8320TIP3   OH246450   0.940   6.142   1.146  0.3922  0.2249 -0.0282
 8320TIP3    H146451   0.904   6.104   1.065  1.3285 -0.4504 -0.1427
 8320TIP3    H246452   1.029   6.168   1.122  0.4565  0.6143  0.6232
 8321TIP3   OH246453   3.352   4.639   2.799  0.4121  0.5628  0.2116
 8321TIP3    H146454   3.317   4.558   2.835  3.4447 -0.9174  0.1356
 8321TIP3    H246455   3.291   4.663   2.730 -0.2519 -2.0277 -0.1944
 8322TIP3   OH246456   2.781   4.430   0.535 -0.2380  0.1732  0.0738
 8322TIP3    H146457   2.819   4.375   0.603 -0.3241  1.0968  0.9040
 8322TIP3    H246458   2.689   4.404   0.532  0.5003 -2.6090 -2.4856
 8323TIP3   OH246459   6.673   2.470   5.513 -0.2597 -0.3962 -0.2274
 8323TIP3    H146460   6.625   2.486   5.594 -3.0056 -0.2579 -1.7425
 8323TIP3    H246461   6.609   2.487   5.444  1.9243 -0.6056 -2.4438
 8324TIP3   OH246462   6.739   4.527   3.116  0.2704 -0.0250  0.4225
 8324TIP3    H146463   6.681   4.467   3.069 -0.5756  1.6620 -0.7834
 8324TIP3    H246464   6.782   4.472   3.182 -1.4167 -1.6755  0.2328
 8325TIP3   OH246465   6.756   1.671  13.374  0.4836 -0.4050 -0.3102
 8325TIP3    H146466   6.749   1.722  13.294  2.0390  1.0091  0.3876
 8325TIP3    H246467   6.850   1.653  13.384  0.3183 -0.6565  1.1183
 8326TIP3   OH246468   3.445   1.121  13.921 -0.2361  0.2042  0.2906
 8326TIP3    H146469   3.412   1.128  14.010  0.4258  0.5374  0.5179
 8326TIP3    H246470   3.460   1.027  13.908  2.1541  0.3313  1.4850
 8327TIP3   OH246471   0.351   2.824   0.013 -0.1986  0.0697  0.3473
 8327TIP3    H146472   0.293   2.840   0.088 -0.7049  0.8119 -0.1783
 8327TIP3    H246473   0.291   2.812  -0.061  0.2920 -0.6925  0.0672
 8328TIP3   OH246474   0.143   5.695  12.022  0.3888 -0.1718 -0.0219
 8328TIP3    H146475   0.175   5.606  12.011  0.0808 -0.3912  0.7980
 8328TIP3    H246476   0.051   5.691  11.995  0.4851 -0.0000 -0.3909
 8329TIP3   OH246477   5.283   4.617  15.831 -0.2323  0.6831  0.2192
 8329TIP3    H146478   5.312   4.597  15.742  0.4008  0.9977  0.3541
 8329TIP3    H246479   5.358   4.658  15.873 -1.1335  2.3670  0.2814
 8330TIP3   OH246480   0.672   4.596   5.510  0.0280 -0.4145  0.1088
 8330TIP3    H146481   0.626   4.547   5.578 -1.6817 -0.3629 -0.9280
 8330TIP3    H246482   0.740   4.537   5.478  0.1671 -0.8211  1.1362
 8331TIP3   OH246483   2.503   5.786   1.547 -0.2363 -0.1836 -0.3428
 8331TIP3    H146484   2.455   5.726   1.490  0.8317 -1.9297  0.4980
 8331TIP3    H246485   2.585   5.740   1.567  0.5754  1.5163  0.4605
 8332TIP3   OH246486   6.820   0.273  13.755  0.0393 -0.0742  0.5086
 8332TIP3    H146487   6.830   0.340  13.822 -1.1105 -0.8620  1.5203
 8332TIP3    H246488   6.726   0.256  13.752  0.4778 -3.8157  2.5513
 8333TIP3   OH246489   6.491   1.020   5.178  0.0923  0.1270 -0.9039
 8333TIP3    H146490   6.463   1.017   5.086  1.3735  0.5015 -1.3326
 8333TIP3    H246491   6.574   1.067   5.176 -0.4595  1.2513  0.6222
 8334TIP3   OH246492   0.577   6.792  12.375  0.5505 -0.2500  0.3147
 8334TIP3    H146493   0.487   6.776  12.402  0.3499  1.6119  0.8477
 8334TIP3    H246494   0.578   6.882  12.344  1.7607 -0.9357 -1.8534
 8335TIP3   OH246495   0.794   0.393  12.442  0.3179 -0.6300  0.2410
 8335TIP3    H146496   0.746   0.386  12.359  0.1812  0.9900  0.1572
 8335TIP3    H246497   0.872   0.339  12.429 -0.0534 -0.9648 -0.6794
 8336TIP3   OH246498   5.669   4.504   0.800  0.3890 -0.5411  0.2011
 8336TIP3    H146499   5.619   4.581   0.827  0.1528 -0.7692  0.4249
 8336TIP3    H246500   5.759   4.535   0.796  0.5721 -0.6887  2.0988
 8337TIP3   OH246501   0.975   1.386  14.513  0.2131 -0.1137  0.2580
 8337TIP3    H146502   0.988   1.295  14.487  2.7133  0.0821  0.5382
 8337TIP3    H246503   0.881   1.393  14.529 -0.2496 -2.2680 -1.0639
 8338TIP3   OH246504   6.766   6.369   1.271  0.2534  0.4163  0.0453
 8338TIP3    H146505   6.729   6.297   1.219  0.8610  0.2385 -0.1521
 8338TIP3    H246506   6.860   6.351   1.272  0.6261  2.0434 -1.3451
 8339TIP3   OH246507   6.400   5.978  13.761  0.2197 -0.1759  0.0763
 8339TIP3    H146508   6.426   6.026  13.839  1.5206 -2.3875  1.1145
 8339TIP3    H246509   6.476   5.986  13.702  0.3084 -0.6445  0.1230
 8340TIP3   OH246510   0.746   3.771  14.545 -0.2643  0.9397  0.0323
 8340TIP3    H146511   0.793   3.851  14.567  0.3999  0.1402  1.6809
 8340TIP3    H246512   0.669   3.771  14.602 -1.5700  1.5371 -1.6459
 8341TIP3   OH246513   4.444   2.937   2.225  0.1273  0.3106  0.2197
 8341TIP3    H146514   4.461   2.988   2.146  0.2827  0.2064  0.1841
 8341TIP3    H246515   4.351   2.916   2.221  0.5865 -1.8353 -1.2493
 8342TIP3   OH246516   3.792   0.220  16.975 -0.5193 -0.2715 -0.3576
 8342TIP3    H146517   3.851   0.217  16.900 -1.3767 -0.9794 -1.0114
 8342TIP3    H246518   3.771   0.129  16.993 -1.3923 -0.0281 -0.1150
 8343TIP3   OH246519   0.446   6.257   0.935 -0.7623 -0.3087 -0.3841
 8343TIP3    H146520   0.541   6.262   0.930 -0.4130 -2.0375  2.1990
 8343TIP3    H246521   0.417   6.347   0.947  0.5037  0.2609 -1.4059
 8344TIP3   OH246522   1.635   3.481   5.467  0.1564  0.3170  0.8153
 8344TIP3    H146523   1.690   3.548   5.426 -0.1820 -0.4407 -1.0130
 8344TIP3    H246524   1.610   3.518   5.552 -0.4677  2.7574 -0.3344
 8345TIP3   OH246525   1.130   1.835   1.048 -0.2472  0.5364  0.1066
 8345TIP3    H146526   1.040   1.828   1.015 -0.2657  1.2717 -0.0166
 8345TIP3    H246527   1.165   1.913   1.004 -0.0408  1.1372  1.3033
 8346TIP3   OH246528   2.710   3.286   5.684  0.1187 -0.5252  0.2513
 8346TIP3    H146529   2.710   3.353   5.752  1.2357 -1.0049  0.7622
 8346TIP3    H246530   2.635   3.230   5.705  0.5725 -0.7923  1.2493
 8347TIP3   OH246531   2.868   0.622   4.664  0.3677  0.3282  0.0780
 8347TIP3    H146532   2.945   0.587   4.708 -0.3346  0.3649  1.4114
 8347TIP3    H246533   2.811   0.652   4.736  0.3973  3.0720 -0.9092
 8348TIP3   OH246534   3.933   6.612  14.197 -0.3952 -0.4795 -0.1445
 8348TIP3    H146535   3.992   6.537  14.209  0.5303  0.4892  1.8787
 8348TIP3    H246536   3.846   6.573  14.188 -0.1411 -1.8496  2.2482
 8349TIP3   OH246537   2.134   1.634  11.011 -0.1342  0.2058  0.3136
 8349TIP3    H146538   2.140   1.594  11.098 -1.6064 -2.7879 -0.8128
 8349TIP3    H246539   2.040   1.640  10.994  0.1173  1.6094 -0.7449
 8350TIP3   OH246540   3.424   3.205   6.640  0.2738  0.5769  0.1524
 8350TIP3    H146541   3.334   3.193   6.669  0.6784  1.5329  1.9816
 8350TIP3    H246542   3.442   3.129   6.584 -1.3622 -0.1285  0.5390
 8351TIP3   OH246543   3.296   1.261   2.510  0.2488  0.6230 -0.4672
 8351TIP3    H146544   3.223   1.303   2.464  0.0745  2.3957  1.2972
 8351TIP3    H246545   3.371   1.274   2.451 -0.6629 -0.5803 -1.9671
 8352TIP3   OH246546   0.441   3.425  12.566  0.5086  0.2151 -0.1244
 8352TIP3    H146547   0.415   3.451  12.654 -0.7657  0.6644 -0.6096
 8352TIP3    H246548   0.474   3.335  12.576 -0.5794 -0.1109  0.6429
 8353TIP3   OH246549   2.407   0.486  12.678 -0.2774  0.1722  0.0255
 8353TIP3    H146550   2.417   0.517  12.768  0.2973  0.6638 -0.2025
 8353TIP3    H246551   2.442   0.397  12.679  1.4312  0.7991 -0.0848
 8354TIP3   OH246552   1.612   4.478  17.075  0.2162 -0.2228  0.1701
 8354TIP3    H146553   1.528   4.435  17.068 -0.2642  0.7065  0.0866
 8354TIP3    H246554   1.668   4.434  17.011 -0.0118 -1.2583  0.6652
 8355TIP3   OH246555   0.562   6.372   4.698  0.1277  0.1687 -0.0158
 8355TIP3    H146556   0.638   6.429   4.709  0.4256 -0.1396 -0.4022
 8355TIP3    H246557   0.598   6.292   4.658 -0.4762  0.2447 -0.7474
 8356TIP3   OH246558   1.653   2.006   3.284  0.3322 -0.6828  0.0853
 8356TIP3    H146559   1.716   1.936   3.263 -1.5362 -2.4827  0.0636
 8356TIP3    H246560   1.662   2.019   3.378  2.6670  1.1644 -0.3072
 8357TIP3   OH246561   2.583   0.052  12.980 -0.3197  0.5440 -0.5900
 8357TIP3    H146562   2.608  -0.030  12.935 -1.0874  0.3311 -0.6480
 8357TIP3    H246563   2.530   0.023  13.054 -0.5465  0.9902 -0.5778
 8358TIP3   OH246564   5.742   4.398   3.992  0.2569 -0.4130 -0.5412
 8358TIP3    H146565   5.832   4.427   3.976  0.0462  0.2151 -0.5934
 8358TIP3    H246566   5.720   4.434   4.078 -0.3099  0.3097 -0.9854
 8359TIP3   OH246567   2.066   5.855   2.860  0.1724  0.1535 -0.0148
 8359TIP3    H146568   2.138   5.796   2.880 -0.2795 -1.8216 -3.3858
 8359TIP3    H246569   2.108   5.937   2.833  0.9285  0.3726  1.7183
 8360TIP3   OH246570   0.642   1.461   0.091  0.0886  0.3362 -0.3070
 8360TIP3    H146571   0.703   1.399   0.052 -0.8254 -0.8839  0.1209
 8360TIP3    H246572   0.678   1.479   0.178  1.0641  1.4787 -0.9326
 8361TIP3   OH246573   6.103   0.243   4.476  0.3410  0.7663 -0.4325
 8361TIP3    H146574   6.090   0.319   4.533 -0.0876 -0.1417  0.7387
 8361TIP3    H246575   6.048   0.260   4.400 -0.4765  1.2143  0.2390
 8362TIP3   OH246576   2.999   3.488  13.166  0.5351  0.3148 -0.4247
 8362TIP3    H146577   3.076   3.535  13.196  1.3189  0.4600 -2.4696
 8362TIP3    H246578   2.925   3.531  13.209  1.3464  2.4993 -1.1267
 8363TIP3   OH246579   0.318   6.691  15.354 -0.4820 -0.5689  0.1734
 8363TIP3    H146580   0.385   6.709  15.288 -1.6180 -0.9625 -1.1194
 8363TIP3    H246581   0.362   6.635  15.418 -0.1296 -2.7041 -1.8029
 8364TIP3   OH246582   6.603   2.617  14.437  0.0211 -0.0123  0.6120
 8364TIP3    H146583   6.558   2.701  14.449  1.0140  1.0584 -2.2505
 8364TIP3    H246584   6.653   2.628  14.357  2.3900 -2.4603  1.6012
 8365TIP3   OH246585   4.140   0.195   4.511 -0.2318  0.3072 -0.0599
 8365TIP3    H146586   4.177   0.283   4.510 -1.6152  0.9474  1.1939
 8365TIP3    H246587   4.084   0.193   4.589  0.6343 -2.0569  0.5927
 8366TIP3   OH246588   5.253   2.223  11.307 -0.3975  0.7165  0.2101
 8366TIP3    H146589   5.224   2.286  11.240 -3.3311 -1.3802 -0.7263
 8366TIP3    H246590   5.219   2.258  11.389 -0.5396  1.1929 -0.0459
 8367TIP3   OH246591   3.261   3.692   3.291 -0.0651 -0.3342  0.3167
 8367TIP3    H146592   3.285   3.784   3.281 -3.6545  0.9653  1.7905
 8367TIP3    H246593   3.264   3.677   3.386 -1.8751 -0.9095  0.3192
 8368TIP3   OH246594   0.695   1.358  14.488 -0.6411 -0.2196  0.4134
 8368TIP3    H146595   0.619   1.360  14.546 -0.0920 -0.4508  1.1609
 8368TIP3    H246596   0.681   1.282  14.431 -1.4371  0.3172 -0.1169
 8369TIP3   OH246597   4.306   6.363   6.104 -0.3222  0.1077 -0.4080
 8369TIP3    H146598   4.214   6.385   6.088 -0.3894  0.4685  0.4146
 8369TIP3    H246599   4.337   6.327   6.022 -1.0257  0.5908 -0.8951
 8370TIP3   OH246600   4.302   2.167  10.738 -0.2693 -0.1316  0.0966
 8370TIP3    H146601   4.277   2.195  10.650 -1.1402  0.4612  0.5135
 8370TIP3    H246602   4.234   2.104  10.763 -0.0894 -0.2145  0.3787
 8371TIP3   OH246603   0.925   1.975  16.796 -0.0110  0.0842 -0.3275
 8371TIP3    H146604   1.002   1.944  16.749 -0.6795  0.2143 -1.5471
 8371TIP3    H246605   0.930   1.933  16.882  0.9740 -0.5574 -0.6905
 8372TIP3   OH246606   3.139   5.932   4.052  0.3466  0.5298  0.0581
 8372TIP3    H146607   3.044   5.931   4.042  0.3030  0.6054  0.4619
 8372TIP3    H246608   3.159   5.858   4.109  0.6669 -0.3518 -1.1596
 8373TIP3   OH246609   0.615   4.110   3.270 -0.1776  0.0439 -0.5989
 8373TIP3    H146610   0.660   4.055   3.206  1.9414  4.4281 -3.3648
 8373TIP3    H246611   0.525   4.078   3.270  1.0474 -3.9051 -1.1035
 8374TIP3   OH246612   6.700   1.546   4.334  0.0615 -0.1741 -0.6637
 8374TIP3    H146613   6.678   1.476   4.273  1.1057 -0.7231 -0.4232
 8374TIP3    H246614   6.626   1.549   4.395 -0.1776 -0.7849 -0.9209
 8375TIP3   OH246615   0.140   4.295   4.831  0.4799 -0.0502  0.6366
 8375TIP3    H146616   0.212   4.232   4.831 -0.7796 -1.5895 -0.4323
 8375TIP3    H246617   0.103   4.289   4.743 -1.1801  0.3833  1.2588
 8376TIP3   OH246618   5.568   5.244  12.955 -0.6830  0.4896 -0.6310
 8376TIP3    H146619   5.595   5.177  13.018 -0.9728  0.3562 -0.6490
 8376TIP3    H246620   5.594   5.327  12.995 -0.8914  0.4082 -0.3251
 8377TIP3   OH246621   1.806   0.440   2.757 -0.4024 -0.1311 -0.0098
 8377TIP3    H146622   1.744   0.384   2.804 -0.6384  0.2874  0.1814
 8377TIP3    H246623   1.790   0.422   2.665  0.6929 -1.6457  0.0647
 8378TIP3   OH246624   5.371   3.695  15.161 -0.2308 -0.2950 -0.1447
 8378TIP3    H146625   5.337   3.608  15.185 -0.3456 -0.0418  0.6093
 8378TIP3    H246626   5.355   3.749  15.238  3.0000 -0.4483  0.7498
 8379TIP3   OH246627   1.109   6.458   5.546 -0.1084 -0.1760  0.0212
 8379TIP3    H146628   1.128   6.539   5.499  0.6167  0.3346  1.1552
 8379TIP3    H246629   1.055   6.407   5.485  1.8425 -0.1154 -1.8938
 8380TIP3   OH246630   6.578   2.604  11.510  0.7275  0.1172  0.5368
 8380TIP3    H146631   6.671   2.588  11.527  0.7988 -0.4059 -0.2849
 8380TIP3    H246632   6.578   2.675  11.446  0.4802  1.6556  2.1659
 8381TIP3   OH246633   3.931   0.013   2.016  0.3026 -0.1978  0.0151
 8381TIP3    H146634   3.997   0.053   1.959  1.1780 -0.4636  0.8095
 8381TIP3    H246635   3.932   0.068   2.095  1.3439 -1.6009  1.0231
 8382TIP3   OH246636   0.126   2.783   3.054 -0.5910 -0.4829  0.1357
 8382TIP3    H146637   0.050   2.781   3.112 -0.7129  1.6657  0.1538
 8382TIP3    H246638   0.191   2.835   3.101  1.2149 -2.8246  0.4012
 8383TIP3   OH246639   0.953   6.732   1.688  0.5632 -0.1947  0.0353
 8383TIP3    H146640   1.010   6.750   1.762  1.6969  1.1755 -1.1021
 8383TIP3    H246641   0.965   6.807   1.629 -1.6217 -0.3793 -0.7466
 8384TIP3   OH246642   0.763   1.253   5.251  0.7242 -0.7777  1.2402
 8384TIP3    H146643   0.805   1.305   5.182 -0.1723 -2.2945 -0.5278
 8384TIP3    H246644   0.827   1.186   5.274  1.0638 -0.2087  1.9914
 8385TIP3   OH246645   1.672   0.222   2.836  0.2003  0.0008  0.0549
 8385TIP3    H146646   1.632   0.192   2.917 -2.4816  1.1065 -0.7456
 8385TIP3    H246647   1.614   0.191   2.767  1.4589  0.5670 -1.3319
 8386TIP3   OH246648   6.251   5.717  11.370 -0.1805 -0.3527  0.2184
 8386TIP3    H146649   6.158   5.730  11.350  0.0139  2.0600  0.5337
 8386TIP3    H246650   6.296   5.737  11.288  0.0831 -1.9207 -0.0504
 8387TIP3   OH246651   5.277   1.511  13.650  0.2851  0.4573 -0.0505
 8387TIP3    H146652   5.364   1.511  13.691  1.5015 -0.3708 -2.4202
 8387TIP3    H246653   5.234   1.433  13.684  1.1695 -0.0938 -0.1536
 8388TIP3   OH246654   3.488   5.222  14.613  0.2434  0.4432 -0.0756
 8388TIP3    H146655   3.451   5.212  14.525 -2.9066  0.9339  1.0869
 8388TIP3    H246656   3.501   5.132  14.644 -0.2232  0.2533 -0.4250
 8389TIP3   OH246657   1.661   6.360   4.004 -0.1478 -0.6014 -0.7438
 8389TIP3    H146658   1.709   6.376   3.922  0.0625 -0.9943 -0.7033
 8389TIP3    H246659   1.695   6.426   4.064 -1.2799  0.5656 -1.3484
 8390TIP3   OH246660   1.665   3.568   5.125  0.1346  0.2522  0.1070
 8390TIP3    H146661   1.594   3.511   5.095 -0.6281  1.3324 -0.2048
 8390TIP3    H246662   1.671   3.636   5.057  1.0610  0.5171  0.4379
 8391TIP3   OH246663   1.449   5.032  16.022 -0.2689  0.1676 -0.1388
 8391TIP3    H146664   1.434   4.999  16.111 -1.1932 -0.3848 -0.4851
 8391TIP3    H246665   1.397   5.112  16.017  1.1453  1.1520  0.3595
 8392TIP3   OH246666   2.307   0.385   4.107 -0.2230  0.0132 -0.3922
 8392TIP3    H146667   2.313   0.467   4.058  1.2555 -0.5598 -1.2339
 8392TIP3    H246668   2.243   0.333   4.058 -2.0617  1.0300  0.7917
 8393TIP3   OH246669   5.367   1.063   1.979  0.5399 -0.4299 -0.2903
 8393TIP3    H146670   5.308   1.021   2.042  0.2873 -1.3856 -1.1463
 8393TIP3    H246671   5.455   1.046   2.012  0.3918 -0.3961  0.1276
 8394TIP3   OH246672   6.094   5.198   1.168  0.0780 -0.1162 -0.2374
 8394TIP3    H146673   6.109   5.183   1.075  1.1798  0.3378 -0.1509
 8394TIP3    H246674   6.156   5.141   1.213 -0.3470 -0.2309  0.2244
 8395TIP3   OH246675   3.389   2.227  15.272 -0.6685  0.3016 -0.0215
 8395TIP3    H146676   3.442   2.216  15.193 -0.2296 -1.7931  0.4992
 8395TIP3    H246677   3.369   2.321  15.275  2.2302  1.0362 -0.7218
 8396TIP3   OH246678   0.976   6.686   6.565 -0.4422  0.7456  0.5443
 8396TIP3    H146679   1.042   6.755   6.561 -0.4987  0.7918  0.3808
 8396TIP3    H246680   0.954   6.670   6.473  0.6062 -0.4867  0.4714
 8397TIP3   OH246681   1.061   6.773  13.736 -0.3269 -0.0311 -0.8391
 8397TIP3    H146682   1.004   6.700  13.709 -1.5004  0.6350 -0.2595
 8397TIP3    H246683   1.016   6.812  13.812  1.7958 -0.5602  0.8069
 8398TIP3   OH246684   0.159   5.949  14.570 -0.3901 -0.0214 -0.1473
 8398TIP3    H146685   0.113   6.009  14.512 -0.7479 -0.1154  0.0353
 8398TIP3    H246686   0.177   5.871  14.517 -1.9528 -0.6750  0.2433
 8399TIP3   OH246687   2.300   3.023   5.003 -0.8050 -0.1116  0.1522
 8399TIP3    H146688   2.367   2.984   4.946 -0.3967 -0.0204  0.5620
 8399TIP3    H246689   2.231   2.957   5.006 -0.3735 -0.5623  0.3744
 8400TIP3   OH246690   1.726   5.929  15.733  0.5298  0.4012 -0.1015
 8400TIP3    H146691   1.774   5.902  15.654 -0.7933 -0.8581 -0.5230
 8400TIP3    H246692   1.646   5.969  15.701  0.1365  0.1925  0.5903
 8401TIP3   OH246693   3.613   1.818  14.728  0.4628 -0.7883  0.5884
 8401TIP3    H146694   3.668   1.830  14.651  1.0735 -0.8107  1.0160
 8401TIP3    H246695   3.654   1.746  14.775  0.3652 -0.4633  1.1772
 8402TIP3   OH246696   2.195   5.760  14.065 -0.4485  0.1206 -0.7793
 8402TIP3    H146697   2.246   5.741  14.144 -0.1476  1.6247 -0.5668
 8402TIP3    H246698   2.122   5.699  14.067 -0.1958 -0.1593  0.4237
 8403TIP3   OH246699   6.639   5.465   1.190  0.0321  0.2247 -0.2994
 8403TIP3    H146700   6.630   5.560   1.196 -0.4936  0.0889  3.4634
 8403TIP3    H246701   6.551   5.431   1.202  0.5201 -0.7397  0.7368
 8404TIP3   OH246702   3.996   0.106  12.139 -0.1148  0.6267  0.2482
 8404TIP3    H146703   4.000   0.012  12.120 -0.1908  0.3159  1.6449
 8404TIP3    H246704   3.927   0.140  12.081 -1.2896 -0.5045  0.9419
 8405TIP3   OH246705   6.121   3.086  11.986  0.0779  0.1652 -0.0413
 8405TIP3    H146706   6.202   3.059  12.029  0.0766 -0.2397 -0.2905
 8405TIP3    H246707   6.074   3.137  12.052  0.0561 -0.4772  0.4395
 8406TIP3   OH246708   4.500   4.843   4.716  0.1012 -0.1023 -0.1955
 8406TIP3    H146709   4.411   4.846   4.752  0.5751 -0.2400  1.0322
 8406TIP3    H246710   4.514   4.751   4.696  0.9062 -0.5403  2.1355
 8407TIP3   OH246711   5.158   1.760   5.466  0.4939 -0.3309  0.4013
 8407TIP3    H146712   5.200   1.697   5.525  1.7642  3.1463  3.6076
 8407TIP3    H246713   5.197   1.844   5.489 -1.2778  1.7969 -3.3838
 8408TIP3   OH246714   4.821   2.586  15.547  0.0836  0.0530 -0.0137
 8408TIP3    H146715   4.916   2.592  15.558 -0.0997  2.4959  0.8615
 8408TIP3    H246716   4.788   2.573  15.636 -0.4087 -1.4523 -0.3888
 8409TIP3   OH246717   3.276   1.573   3.021  0.9481  0.1554  0.3963
 8409TIP3    H146718   3.326   1.506   2.974  1.0977 -0.4905  1.4442
 8409TIP3    H246719   3.336   1.646   3.030  1.6702 -0.5607  1.5153
 8410TIP3   OH246720   0.152   2.748   4.551  0.3858 -0.0620 -0.2943
 8410TIP3    H146721   0.184   2.769   4.638 -1.3350  1.5370  0.0190
 8410TIP3    H246722   0.155   2.653   4.546  1.7662 -0.1237  0.9761
 8411TIP3   OH246723   2.172   5.222   1.482  0.3129  0.6168 -0.5347
 8411TIP3    H146724   2.077   5.232   1.476  0.1559  0.2329  0.8654
 8411TIP3    H246725   2.195   5.167   1.407 -0.8761 -0.9990  0.2066
 8412TIP3   OH246726   3.598   1.580   1.049 -0.2266  0.4481 -1.0441
 8412TIP3    H146727   3.615   1.495   1.090 -0.8447  1.1116  0.7267
 8412TIP3    H246728   3.684   1.613   1.024  0.3725  0.4741  0.8351
 8413TIP3   OH246729   5.420   1.888   0.660 -0.3268  0.0046 -0.5255
 8413TIP3    H146730   5.426   1.956   0.727 -0.3793 -0.0714 -0.4442
 8413TIP3    H246731   5.332   1.853   0.669  0.5533 -1.9987  1.3043
 8414TIP3   OH246732   5.482   3.517  11.734 -0.2350 -0.6282 -0.2696
 8414TIP3    H146733   5.525   3.538  11.817 -0.2561 -1.9133  0.0904
 8414TIP3    H246734   5.438   3.598  11.709 -0.7920 -0.3930  1.3250
 8415TIP3   OH246735   4.357   2.216   3.902 -0.4370 -0.2312  0.4477
 8415TIP3    H146736   4.291   2.200   3.835 -0.2869  0.6792  0.0635
 8415TIP3    H246737   4.320   2.286   3.956  0.1190  0.1527  0.3446
 8416TIP3   OH246738   2.547   0.925   5.674  0.3028 -0.2106 -0.3316
 8416TIP3    H146739   2.569   0.936   5.766 -1.3400 -0.4967  0.1240
 8416TIP3    H246740   2.600   0.850   5.645  0.6801 -0.2419  0.4270
 8417TIP3   OH246741   4.214   6.333  13.020  0.0222 -0.4247 -0.2013
 8417TIP3    H146742   4.259   6.411  12.987  0.4435 -0.3832  0.4581
 8417TIP3    H246743   4.203   6.277  12.942 -2.9654  1.4947 -1.3728
 8418TIP3   OH246744   0.477   2.675  14.067 -0.2489 -0.4246 -0.0765
 8418TIP3    H146745   0.538   2.656  13.996 -0.3036  1.9834 -0.8546
 8418TIP3    H246746   0.505   2.761  14.100  0.3365 -1.7683  3.4531
 8419TIP3   OH246747   0.203   3.442   4.358  0.2814 -0.2792 -0.1549
 8419TIP3    H146748   0.118   3.427   4.316  0.1006 -0.0433  0.1224
 8419TIP3    H246749   0.263   3.458   4.285  0.5498 -2.5525 -0.5077
 8420TIP3   OH246750   3.037   1.142  13.976  0.4315  0.4752 -0.4349
 8420TIP3    H146751   3.046   1.178  14.064 -0.4052 -1.7727  0.6588
 8420TIP3    H246752   2.947   1.163  13.950  0.8646  1.6711 -1.0644
 8421TIP3   OH246753   5.811   1.514   4.259  0.2381  0.4140 -0.3371
 8421TIP3    H146754   5.855   1.430   4.257 -2.5443 -1.1665  0.2606
 8421TIP3    H246755   5.882   1.578   4.251  2.4084 -1.9363 -1.3537
 8422TIP3   OH246756   0.126   3.866   5.475  0.2768  0.4311  0.3771
 8422TIP3    H146757   0.164   3.953   5.461  1.1292  0.2298  1.3418
 8422TIP3    H246758   0.156   3.814   5.401  0.2780  0.7850  0.1276
 8423TIP3   OH246759   3.116   3.264  11.379 -0.2496 -0.6547 -0.4205
 8423TIP3    H146760   3.177   3.282  11.450 -0.7737  0.3981 -0.2266
 8423TIP3    H246761   3.082   3.177  11.400  4.5635 -3.5944 -2.9961
 8424TIP3   OH246762   4.002   0.037  10.673  0.0527  0.1832  0.1619
 8424TIP3    H146763   4.017  -0.024  10.602 -1.4119 -1.3004  1.0617
 8424TIP3    H246764   3.968   0.116  10.630  1.7776  0.3516 -0.9897
 8425TIP3   OH246765   5.758   4.789   1.714  0.6769 -0.2035  0.2702
 8425TIP3    H146766   5.711   4.868   1.742 -0.6658 -1.2831  1.1837
 8425TIP3    H246767   5.788   4.749   1.795  0.1836 -1.3219 -0.0803
 8426TIP3   OH246768   1.876   5.867   2.277 -0.5949  0.1143 -1.1149
 8426TIP3    H146769   1.901   5.959   2.274  2.6695 -0.5004  0.8253
 8426TIP3    H246770   1.953   5.820   2.244 -1.5707 -1.9389 -0.6660
 8427TIP3   OH246771   1.245   6.179   4.904  0.4346 -0.2821  0.0153
 8427TIP3    H146772   1.328   6.148   4.940 -0.3894 -0.5929  1.7458
 8427TIP3    H246773   1.193   6.099   4.892  0.2898 -0.0711 -0.8357
 8428TIP3   OH246774   3.986   0.548  12.136 -0.7589 -0.1136 -0.0803
 8428TIP3    H146775   4.067   0.580  12.097 -0.8594  1.6092  1.0247
 8428TIP3    H246776   4.009   0.525  12.226 -1.2526 -0.7787 -0.1149
 8429TIP3   OH246777   5.458   6.645  14.781  0.0089 -0.2044  0.5066
 8429TIP3    H146778   5.435   6.589  14.854 -1.2113  0.6630  0.8111
 8429TIP3    H246779   5.399   6.720  14.787 -0.7530 -0.5150 -1.8759
 8430TIP3   OH246780   3.020   2.290   3.288  0.0276 -0.1931  0.4489
 8430TIP3    H146781   3.073   2.301   3.210 -1.8467 -0.1443 -0.8970
 8430TIP3    H246782   2.995   2.197   3.287  1.0916 -0.5183  1.7724
 8431TIP3   OH246783   5.387   1.846  14.858  0.8971 -0.1877  0.1794
 8431TIP3    H146784   5.341   1.916  14.904 -0.3928 -0.5727 -0.4896
 8431TIP3    H246785   5.465   1.888  14.823 -0.2000  1.1230 -0.8149
 8432TIP3   OH246786   2.230   0.131  13.707  0.3274 -0.0073  0.2248
 8432TIP3    H146787   2.300   0.193  13.726  1.3439 -0.8675 -0.5562
 8432TIP3    H246788   2.261   0.049  13.745  0.4991 -0.7738 -1.4625
 8433TIP3   OH246789   1.639   3.166  11.692  0.2206  0.6897  0.5475
 8433TIP3    H146790   1.575   3.159  11.621  0.3109 -1.5465  0.5965
 8433TIP3    H246791   1.722   3.186  11.649  0.5110 -1.7869 -0.1991
 8434TIP3   OH246792   2.399   3.411  16.905  0.5691 -0.2961 -0.1533
 8434TIP3    H146793   2.472   3.421  16.844 -0.2423  1.7898 -0.8581
 8434TIP3    H246794   2.322   3.409  16.849 -0.1411  0.9390  0.7466
 8435TIP3   OH246795   6.834   5.751   4.321 -0.1582 -0.2137 -0.3457
 8435TIP3    H146796   6.900   5.724   4.257 -0.8731 -2.0398 -0.3494
 8435TIP3    H246797   6.759   5.694   4.304 -0.0259 -1.4838  2.7724
 8436TIP3   OH246798   0.405   6.607  13.032 -0.4066 -0.1528 -0.1070
 8436TIP3    H146799   0.360   6.689  13.015  0.3511 -0.1172 -2.2225
 8436TIP3    H246800   0.348   6.540  12.995  0.3950 -0.2789 -1.1441
 8437TIP3   OH246801   0.252   0.488   0.424  0.0130  0.2670  0.3073
 8437TIP3    H146802   0.252   0.409   0.369  1.4464  0.7507 -0.4350
 8437TIP3    H246803   0.240   0.454   0.513  0.9710 -0.8455  0.0429
 8438TIP3   OH246804   2.884   3.876  15.531  0.0840  0.0783 -0.6772
 8438TIP3    H146805   2.881   3.851  15.439  2.9799 -0.3862 -0.7463
 8438TIP3    H246806   2.887   3.793  15.578 -1.9320  0.3040 -0.0772
 8439TIP3   OH246807   4.817   5.882   3.603  0.1844  0.2385 -0.1287
 8439TIP3    H146808   4.844   5.969   3.573  2.1998 -0.8490 -1.7413
 8439TIP3    H246809   4.885   5.823   3.569 -1.3116 -2.0175  0.5876
 8440TIP3   OH246810   5.935   0.389   4.285  0.6476  0.2280 -0.9962
 8440TIP3    H146811   5.952   0.336   4.207  0.2545  0.6468 -1.3696
 8440TIP3    H246812   5.898   0.470   4.251  1.5974  0.9018 -0.4546
 8441TIP3   OH246813   4.733   5.810  13.189 -0.0670  0.5333 -0.5268
 8441TIP3    H146814   4.754   5.755  13.113  2.2069 -0.9292  1.0382
 8441TIP3    H246815   4.751   5.900  13.158  2.2589 -0.1366 -1.3732
 8442TIP3   OH246816   1.887   6.078   2.585  0.3662  0.0863 -0.1464
 8442TIP3    H146817   1.922   6.104   2.499  0.2910  0.5692 -0.0334
 8442TIP3    H246818   1.881   5.983   2.580 -0.5260  0.1744 -1.0239
 8443TIP3   OH246819   6.630   6.437  15.604  0.1750 -0.1934 -0.0528
 8443TIP3    H146820   6.669   6.438  15.692 -0.2756 -0.1733  0.1525
 8443TIP3    H246821   6.699   6.405  15.547 -0.0103 -1.7816  0.5592
 8444TIP3   OH246822   6.385   3.080  15.252 -0.0712  0.3621 -0.4546
 8444TIP3    H146823   6.392   3.135  15.331 -0.9267  2.0610 -1.5018
 8444TIP3    H246824   6.402   3.140  15.180  2.9936 -1.6183 -1.5523
 8445TIP3   OH246825   4.407   5.452   0.625 -0.0866  0.6592  0.5691
 8445TIP3    H146826   4.388   5.538   0.589  3.1699  0.2948 -2.6724
 8445TIP3    H246827   4.500   5.456   0.648 -0.0915 -1.6860  1.2996
 8446TIP3   OH246828   3.616   0.393  11.939  0.1166  0.2521  0.5965
 8446TIP3    H146829   3.598   0.300  11.951  2.2521 -0.3654 -0.5365
 8446TIP3    H246830   3.634   0.426  12.027 -0.8628 -0.3228  1.0307
 8447TIP3   OH246831   5.041   4.821  14.402 -0.0050  0.6922  0.0658
 8447TIP3    H146832   4.991   4.872  14.465  1.4063  1.9961  0.2062
 8447TIP3    H246833   5.025   4.730  14.426  0.7274  1.1376  2.5721
 8448TIP3   OH246834   0.351   2.119  16.732  0.3910 -0.2135 -0.2035
 8448TIP3    H146835   0.398   2.047  16.689  1.1170  0.4522 -0.5353
 8448TIP3    H246836   0.408   2.146  16.804 -0.4897 -0.8371  0.7483
 8449TIP3   OH246837   1.587   0.499   0.005  0.0219  0.2139  0.1316
 8449TIP3    H146838   1.624   0.577   0.045 -0.4550  1.7298 -2.1943
 8449TIP3    H246839   1.549   0.530  -0.077  0.6128 -2.6021 -1.3256
 8450TIP3   OH246840   4.240   6.414  15.320  0.0062 -0.0227 -0.2525
 8450TIP3    H146841   4.254   6.376  15.407  0.4395 -0.7698 -0.6457
 8450TIP3    H246842   4.280   6.501  15.326  1.6018 -0.7252 -0.2323
 8451TIP3   OH246843   2.461   0.670   1.980  0.3725 -0.4740  0.4833
 8451TIP3    H146844   2.533   0.620   1.941  0.1439 -1.4381  1.2538
 8451TIP3    H246845   2.412   0.606   2.032 -0.0608  0.5067  1.3319
 8452TIP3   OH246846   3.617   0.136  12.577 -0.0086  0.1031 -0.3815
 8452TIP3    H146847   3.528   0.166  12.594  0.2089  1.2395 -1.1557
 8452TIP3    H246848   3.612   0.041  12.585 -0.8310  0.2594  1.6321
 8453TIP3   OH246849   1.498   6.768   2.939  0.0072  0.0603 -0.1991
 8453TIP3    H146850   1.486   6.717   3.019 -0.0647 -1.0087 -0.8724
 8453TIP3    H246851   1.593   6.778   2.930 -0.0152  0.9344  0.4730
 8454TIP3   OH246852   6.333   4.441   1.445  0.6772  0.9219  0.2407
 8454TIP3    H146853   6.283   4.492   1.510 -0.4831 -0.0066  0.1015
 8454TIP3    H246854   6.387   4.506   1.400  0.5233  1.7698  1.2465
 8455TIP3   OH246855   1.213   2.676   0.429  0.2466 -0.7525 -0.4896
 8455TIP3    H146856   1.166   2.670   0.346  0.2361  0.6984 -0.6102
 8455TIP3    H246857   1.221   2.585   0.459  0.2554 -1.2957 -2.0696
 8456TIP3   OH246858   1.403   4.887  14.866 -0.7978  0.4588 -0.5113
 8456TIP3    H146859   1.471   4.934  14.914  0.4000 -2.4415  0.8978
 8456TIP3    H246860   1.448   4.851  14.790 -1.6062  1.2450 -1.3886
 8457TIP3   OH246861   5.513   1.135   3.314 -0.0955  0.0747  0.2497
 8457TIP3    H146862   5.591   1.095   3.351 -1.1208 -1.1623  1.1569
 8457TIP3    H246863   5.521   1.120   3.220 -0.2189 -1.9516  0.5138
 8458TIP3   OH246864   6.670   2.976   3.999  0.1878 -0.1071 -0.2505
 8458TIP3    H146865   6.693   3.067   3.979 -2.5723  0.6226 -0.5298
 8458TIP3    H246866   6.739   2.946   4.058  0.1300  2.8370  1.4854
 8459TIP3   OH246867   5.653   2.028  16.569  0.6506 -0.0137 -0.1301
 8459TIP3    H146868   5.677   2.103  16.516 -1.3061 -0.2335 -1.4050
 8459TIP3    H246869   5.558   2.020  16.560  0.5366 -1.4371  1.5926
 8460TIP3   OH246870   0.464   2.110  13.555 -0.2412 -0.2394  0.2738
 8460TIP3    H146871   0.448   2.075  13.468 -0.8555 -0.7241  0.5700
 8460TIP3    H246872   0.558   2.129  13.557 -0.5611  1.7431 -1.1809
 8461TIP3   OH246873   1.916   3.609  12.326 -0.7027  0.8333 -0.7802
 8461TIP3    H146874   1.860   3.647  12.394 -1.2320 -0.4957 -0.4521
 8461TIP3    H246875   1.863   3.540  12.287  0.8059 -0.6590 -0.2863
 8462TIP3   OH246876   6.491   2.664  10.668  0.2117 -0.0199 -0.0748
 8462TIP3    H146877   6.423   2.680  10.733 -0.4038 -1.0227 -0.4488
 8462TIP3    H246878   6.499   2.746  10.620 -1.8730 -0.3247 -1.0542
 8463TIP3   OH246879   0.367   4.915  11.106  0.5375 -0.6466  0.0120
 8463TIP3    H146880   0.365   4.892  11.014  1.2863 -0.9944  0.0738
 8463TIP3    H246881   0.443   4.868  11.141 -0.0572 -0.9643  0.9236
 8464TIP3   OH246882   3.093   4.632   1.747  0.3478 -0.7788 -0.1852
 8464TIP3    H146883   3.159   4.638   1.678  1.9239 -3.2447  0.9312
 8464TIP3    H246884   3.044   4.552   1.727 -1.1544  0.0605 -0.0131
 8465TIP3   OH246885   1.476   4.724  11.926 -0.2901 -0.2157 -0.2358
 8465TIP3    H146886   1.441   4.651  11.977 -0.0485  0.5000  1.0037
 8465TIP3    H246887   1.537   4.683  11.864 -0.4038 -1.0870  0.2110
 8466TIP3   OH246888   2.882   6.232   1.694 -0.2109 -0.0816 -0.5206
 8466TIP3    H146889   2.938   6.308   1.678 -0.9574  0.2485 -1.6813
 8466TIP3    H246890   2.935   6.157   1.669 -0.1445  0.2021 -1.2517
 8467TIP3   OH246891   5.279   5.906  14.663 -0.2084  0.1498  0.3437
 8467TIP3    H146892   5.352   5.844  14.660 -0.8037 -0.5287 -0.5073
 8467TIP3    H246893   5.228   5.880  14.739  0.3447  0.5411  0.8629
 8468TIP3   OH246894   5.676   5.421  16.402  0.2752  0.5196 -0.8943
 8468TIP3    H146895   5.733   5.346  16.419 -0.0068  0.0256 -2.0244
 8468TIP3    H246896   5.590   5.382  16.386 -0.8331  1.3443  2.4211
 8469TIP3   OH246897   1.304   5.102  14.346 -0.2533  0.4096  0.5395
 8469TIP3    H146898   1.319   5.095  14.252  0.2573 -1.3674  0.7036
 8469TIP3    H246899   1.381   5.146  14.380  1.0135 -1.5603  0.4231
 8470TIP3   OH246900   3.452   3.967   5.383 -0.2726 -0.9071  0.8413
 8470TIP3    H146901   3.507   4.044   5.368 -2.3009  0.4912  0.0902
 8470TIP3    H246902   3.468   3.911   5.307 -1.5633  0.5856 -0.6002
 8471TIP3   OH246903   2.880   5.098  13.764  0.1571  0.2008 -0.9020
 8471TIP3    H146904   2.937   5.161  13.808  0.6415  0.4492 -1.8722
 8471TIP3    H246905   2.855   5.037  13.833 -2.7158  3.0416  0.8640
 8472TIP3   OH246906   1.425   4.410   3.701  0.1498  0.6328 -0.0958
 8472TIP3    H146907   1.518   4.423   3.681  0.0572  0.2662 -0.7939
 8472TIP3    H246908   1.381   4.483   3.658 -0.0610 -0.2216 -1.3966
 8473TIP3   OH246909   3.554   1.541  11.557  0.6234 -0.4794 -0.3754
 8473TIP3    H146910   3.641   1.502  11.557  0.8357 -0.1523  2.1014
 8473TIP3    H246911   3.564   1.621  11.505  1.4714 -1.0320 -1.1034
 8474TIP3   OH246912   0.597   0.032  14.062 -0.7510 -0.5134  0.7962
 8474TIP3    H146913   0.634   0.110  14.104 -1.5865 -0.8268  2.1751
 8474TIP3    H246914   0.575   0.061  13.973  0.3254  0.3939  0.8013
 8475TIP3   OH246915   1.829   1.375   5.848  0.1676  0.1941 -0.1694
 8475TIP3    H146916   1.745   1.332   5.833  0.4715 -0.2827 -0.5596
 8475TIP3    H246917   1.893   1.304   5.846  0.4132  0.2608  2.0331
 8476TIP3   OH246918   5.856   6.818   0.957  0.4697  0.4723 -0.5132
 8476TIP3    H146919   5.887   6.808   0.866 -0.7944 -0.8082 -0.8439
 8476TIP3    H246920   5.789   6.886   0.952 -0.3706 -0.3419 -0.7831
 8477TIP3   OH246921   4.425   0.665  11.335  0.1630  0.1418  0.1300
 8477TIP3    H146922   4.495   0.729  11.323 -1.4666  1.8206 -0.8009
 8477TIP3    H246923   4.368   0.703  11.401  1.2688 -2.3028  2.6727
 8478TIP3   OH246924   5.636   1.321  11.085 -0.8424 -0.2856 -0.4786
 8478TIP3    H146925   5.626   1.239  11.133 -1.2884  1.0186  1.8344
 8478TIP3    H246926   5.725   1.349  11.104 -1.1808  0.4843  0.0436
 8479TIP3   OH246927   4.170   2.103  13.344  0.1451 -0.2596  0.4778
 8479TIP3    H146928   4.244   2.082  13.287  0.5884  1.0586  0.5485
 8479TIP3    H246929   4.112   2.028  13.335  0.0583  0.0267 -1.9499
 8480TIP3   OH246930   2.924   3.524   2.357 -0.3310 -0.4779  0.9068
 8480TIP3    H146931   2.833   3.498   2.371 -0.1279 -1.0062  1.2702
 8480TIP3    H246932   2.922   3.574   2.275 -0.8732 -0.9041  0.6523
 8481TIP3   OH246933   6.150   1.086   5.077 -0.7644 -0.1746  0.8127
 8481TIP3    H146934   6.087   1.016   5.096 -1.5387  0.4513  0.6401
 8481TIP3    H246935   6.218   1.045   5.024 -1.6332 -0.6170  0.0212
 8482TIP3   OH246936   0.527   3.689  14.346  0.2003 -0.0741  0.6871
 8482TIP3    H146937   0.495   3.779  14.341 -1.7092 -0.5272  2.9145
 8482TIP3    H246938   0.601   3.693  14.406  1.1500  0.2074 -0.4682
 8483TIP3   OH246939   1.236   0.361  12.332  0.2415 -0.2950 -0.2218
 8483TIP3    H146940   1.184   0.282  12.319 -1.0506  0.3449  0.7790
 8483TIP3    H246941   1.310   0.332  12.385 -0.4669 -0.7698  0.5328
 8484TIP3   OH246942   1.440   3.872   3.112 -0.1793 -0.3368 -0.1302
 8484TIP3    H146943   1.522   3.849   3.157  0.2320  1.0658 -0.1183
 8484TIP3    H246944   1.401   3.940   3.167 -1.2684 -0.8420 -0.2478
 8485TIP3   OH246945   2.819   2.905  10.818 -0.1798 -0.3343 -0.2291
 8485TIP3    H146946   2.761   2.833  10.791 -1.4397  0.1746  0.9585
 8485TIP3    H246947   2.767   2.954  10.882  1.6577  0.0276  1.0761
 8486TIP3   OH246948   0.228   4.480  16.171  0.1886  0.1900  0.4288
 8486TIP3    H146949   0.214   4.481  16.266 -1.5574  0.3786  0.2093
 8486TIP3    H246950   0.293   4.548  16.155  0.7763 -0.0838  1.5123
 8487TIP3   OH246951   6.521   3.813  12.740  0.0808 -0.2726  0.2517
 8487TIP3    H146952   6.487   3.791  12.653  1.8574 -1.8089 -0.1188
 8487TIP3    H246953   6.443   3.835  12.791 -1.1283 -0.4864 -1.4046
 8488TIP3   OH246954   2.459   0.878   3.276 -0.3747  0.2173  0.2139
 8488TIP3    H146955   2.518   0.899   3.349 -0.3628  0.0272  0.2591
 8488TIP3    H246956   2.501   0.805   3.231 -0.1139  0.6769 -0.3034
 8489TIP3   OH246957   0.296   6.794   3.090 -0.1102  0.1637 -0.5788
 8489TIP3    H146958   0.247   6.851   3.149  1.4779  0.2385  0.7267
 8489TIP3    H246959   0.329   6.852   3.022 -0.5399  0.3697 -0.6147
 8490TIP3   OH246960   5.835   0.387  11.915  0.8398  0.3668  0.3831
 8490TIP3    H146961   5.779   0.345  11.980 -1.0079  1.8153 -0.2013
 8490TIP3    H246962   5.894   0.317  11.885 -1.9707 -1.8204 -0.4466
 8491TIP3   OH246963   5.092   5.878   6.608  0.0315 -0.0020 -0.4915
 8491TIP3    H146964   5.071   5.804   6.664  1.1594 -0.1664 -0.2670
 8491TIP3    H246965   5.173   5.914   6.644  0.9042 -0.2455 -2.1322
 8492TIP3   OH246966   1.525   2.677   5.389 -0.1686 -0.0880 -0.2084
 8492TIP3    H146967   1.528   2.643   5.479  0.7528 -2.0863 -0.9470
 8492TIP3    H246968   1.433   2.670   5.364 -0.3402 -0.0518  0.3935
 8493TIP3   OH246969   0.138   0.185  11.839 -0.0300  0.3866 -0.4807
 8493TIP3    H146970   0.151   0.191  11.744  0.5986  0.8068 -0.3718
 8493TIP3    H246971   0.054   0.140  11.849 -0.2549  0.6279 -1.2407
 8494TIP3   OH246972   0.279   5.713  12.425  0.0427 -0.2793  0.5550
 8494TIP3    H146973   0.260   5.639  12.482  1.9874  0.0997  1.8072
 8494TIP3    H246974   0.362   5.690  12.382 -0.0129  0.5916 -0.0557
 8495TIP3   OH246975   1.627   5.388   3.389 -0.0527 -0.1043 -0.3075
 8495TIP3    H146976   1.619   5.394   3.294 -2.4130  0.6757 -0.1152
 8495TIP3    H246977   1.566   5.453   3.423  0.3815 -0.6980  1.7575
 8496TIP3   OH246978   4.204   4.651   5.594 -0.0582 -0.3423 -0.5265
 8496TIP3    H146979   4.238   4.739   5.613  0.8673 -0.8779  0.3718
 8496TIP3    H246980   4.249   4.626   5.513  0.8158 -0.5657  0.0116
 8497TIP3   OH246981   3.502   3.522   4.116 -0.4455 -0.0370  0.3625
 8497TIP3    H146982   3.588   3.512   4.076  0.2145  1.2222  1.3905
 8497TIP3    H246983   3.462   3.595   4.069 -0.9259 -0.5690 -0.0598
 8498TIP3   OH246984   6.491   2.089  14.009 -0.1739  0.6298 -0.6371
 8498TIP3    H146985   6.414   2.133  14.045 -0.0172 -0.0234  0.5417
 8498TIP3    H246986   6.461   2.002  13.985 -0.2513  1.0108 -2.0782
 8499TIP3   OH246987   4.268   3.698   4.635 -0.1015  0.2885  0.2328
 8499TIP3    H146988   4.224   3.694   4.720 -1.3651 -0.0066 -0.4178
 8499TIP3    H246989   4.314   3.782   4.637 -1.0516  0.8185  0.7784
 8500TIP3   OH246990   6.479   6.630  13.482 -0.3902 -0.5935 -0.0793
 8500TIP3    H146991   6.393   6.625  13.439 -0.5595  0.3647  0.1302
 8500TIP3    H246992   6.459   6.656  13.572  0.1477  0.0772 -0.1499
 8501TIP3   OH246993   5.018   5.886   5.808  0.2763 -0.0293  0.1899
 8501TIP3    H146994   5.041   5.943   5.881  0.7220  1.5403 -1.1027
 8501TIP3    H246995   4.983   5.946   5.742 -0.3542 -1.4319 -0.7949
 8502TIP3   OH246996   1.084   5.008  14.044 -0.3040  0.2457  0.3855
 8502TIP3    H146997   1.058   5.004  14.136 -0.3658 -0.7879  0.3268
 8502TIP3    H246998   1.176   5.032  14.045 -0.3738  0.5090  0.6985
 8503TIP3   OH246999   0.542   0.546  16.547  0.0850 -0.4589 -0.0403
 8503TIP3    H147000   0.538   0.554  16.642 -1.5300 -0.2814 -0.0970
 8503TIP3    H247001   0.502   0.626  16.514 -1.5857 -1.5395 -0.8094
 8504TIP3   OH247002   5.577   3.722   4.842 -0.1209  0.1600  0.7534
 8504TIP3    H147003   5.520   3.658   4.883  0.6892 -1.8312 -1.0361
 8504TIP3    H247004   5.518   3.778   4.791 -0.6552 -0.8470  0.2330
 8505TIP3   OH247005   4.157   4.816   3.048 -0.0842 -0.0109  0.0011
 8505TIP3    H147006   4.091   4.750   3.069  0.8140 -1.5279 -1.6497
 8505TIP3    H247007   4.150   4.829   2.953  0.3231  1.6922  0.1565
 8506TIP3   OH247008   4.394   1.278  13.402 -0.4032  0.0294 -0.2233
 8506TIP3    H147009   4.434   1.279  13.315 -0.8418 -0.0919 -0.4330
 8506TIP3    H247010   4.461   1.242  13.459  0.7253  2.2362 -0.0774
 8507TIP3   OH247011   0.323   4.271  11.256 -0.1538 -0.0615  0.2087
 8507TIP3    H147012   0.257   4.203  11.270 -0.7949  0.7252  1.1536
 8507TIP3    H247013   0.397   4.224  11.217 -2.1744 -0.5194 -3.5004
 8508TIP3   OH247014   4.102   4.935   2.464 -0.3739 -0.0759  0.0839
 8508TIP3    H147015   4.180   4.982   2.494 -0.1399 -0.8770  0.7637
 8508TIP3    H247016   4.039   5.003   2.442  0.9773  0.6507 -1.8093
 8509TIP3   OH247017   3.601   5.067  16.966 -0.8778 -0.5419  0.5435
 8509TIP3    H147018   3.569   4.991  17.015  0.6632 -0.3684  1.9231
 8509TIP3    H247019   3.560   5.142  17.008 -2.5347 -0.5751 -0.9301
 8510TIP3   OH247020   2.914   5.323   0.394 -0.3374 -0.1305 -0.2603
 8510TIP3    H147021   2.928   5.415   0.419  0.9037 -0.3441 -0.1310
 8510TIP3    H247022   2.857   5.289   0.463 -0.7201  0.5094 -0.2472
 8511TIP3   OH247023   3.383   4.419   1.852 -0.4001  0.2784 -0.2548
 8511TIP3    H147024   3.337   4.339   1.825  1.2811 -0.2563 -1.7840
 8511TIP3    H247025   3.451   4.388   1.912 -2.5246  1.1833  2.8645
 8512TIP3   OH247026   1.418   5.529   3.081  0.3943 -0.5268  0.4144
 8512TIP3    H147027   1.495   5.525   3.024  0.1891  0.1987  0.0640
 8512TIP3    H247028   1.372   5.446   3.065  0.4820 -0.4531 -0.2872
 8513TIP3   OH247029   3.877   2.427  16.130  0.1575 -0.6458 -0.0012
 8513TIP3    H147030   3.939   2.497  16.112  0.3569 -1.0950 -1.1821
 8513TIP3    H247031   3.793   2.471  16.145  0.3156 -0.1433 -0.5636
 8514TIP3   OH247032   1.839   4.590  13.718  0.0996 -0.1826  0.5942
 8514TIP3    H147033   1.869   4.666  13.669  1.9823 -1.2496  0.0180
 8514TIP3    H247034   1.745   4.605  13.731 -0.4099  0.3835 -2.9313
 8515TIP3   OH247035   5.074   6.605  15.133 -0.2704  0.8466  0.4856
 8515TIP3    H147036   5.042   6.642  15.051 -1.7618 -1.1987  0.0456
 8515TIP3    H247037   5.002   6.619  15.195 -0.6616 -0.7156  0.4427
 8516TIP3   OH247038   5.988   2.110  12.179  0.3021  0.8107  0.6230
 8516TIP3    H147039   5.907   2.076  12.142 -0.4422  2.0567  1.0687
 8516TIP3    H247040   6.025   2.164  12.109  2.6142 -2.4384 -0.9371
 8517TIP3   OH247041   1.419   6.087   5.974 -0.2191  0.0171  0.3183
 8517TIP3    H147042   1.361   6.110   6.045  0.7907 -0.1924  1.2445
 8517TIP3    H247043   1.428   5.992   5.980  0.4074  0.0728  0.3523
 8518TIP3   OH247044   3.304   1.085  14.181 -0.0047 -0.0864  0.1318
 8518TIP3    H147045   3.232   1.084  14.244 -0.2985  0.0523 -0.1940
 8518TIP3    H247046   3.369   1.026  14.217  0.1143  0.4957  0.8949
 8519TIP3   OH247047   1.390   4.939   3.267  0.0701 -0.3277  0.7667
 8519TIP3    H147048   1.319   4.900   3.318  1.9517 -2.6171  1.7970
 8519TIP3    H247049   1.412   5.019   3.314  0.7361 -1.6233  2.7668
 8520TIP3   OH247050   1.849   6.505   4.765 -0.1077  0.0810 -0.3568
 8520TIP3    H147051   1.804   6.429   4.804  0.5708  0.2928  0.8966
 8520TIP3    H247052   1.797   6.580   4.792  0.8778  0.3173  1.0080
 8521TIP3   OH247053   0.736   4.126   1.606 -0.0512 -0.1005  0.1754
 8521TIP3    H147054   0.652   4.152   1.567  0.8790  1.3796 -0.9449
 8521TIP3    H247055   0.779   4.209   1.629  1.2086 -0.8213  0.5178
 8522TIP3   OH247056   1.951   6.178  14.907  0.3409  0.2218 -0.1943
 8522TIP3    H147057   1.933   6.107  14.846 -0.0241 -0.9191  1.1857
 8522TIP3    H247058   1.899   6.157  14.984  1.0739  1.4196  0.6652
 8523TIP3   OH247059   5.757   0.832  12.766 -0.4675  0.0216  0.0706
 8523TIP3    H147060   5.687   0.791  12.714  1.1582 -1.3515 -1.1845
 8523TIP3    H247061   5.763   0.779  12.845 -0.0326 -0.6889 -0.4187
 8524TIP3   OH247062   1.947   2.182   0.521 -0.3092 -0.4462 -0.4508
 8524TIP3    H147063   1.905   2.187   0.435 -0.5359  1.6843 -0.2699
 8524TIP3    H247064   1.878   2.204   0.583  0.3204 -0.0320  0.1161
 8525TIP3   OH247065   4.859   3.400  16.686  0.4906 -0.7966 -0.0422
 8525TIP3    H147066   4.936   3.344  16.675  0.9229  0.0251 -1.4835
 8525TIP3    H247067   4.892   3.477  16.734  0.8785  0.0861 -1.6548
 8526TIP3   OH247068   6.259   1.207  12.549 -0.8487  0.1242 -0.3700
 8526TIP3    H147069   6.267   1.197  12.454 -1.7513  0.7535 -0.5245
 8526TIP3    H247070   6.200   1.282  12.561 -1.0516 -0.1834  0.6822
 8527TIP3   OH247071   3.787   0.861  11.059  0.0534 -0.0605  0.4119
 8527TIP3    H147072   3.801   0.953  11.037  0.9601 -0.4031 -0.5158
 8527TIP3    H247073   3.825   0.852  11.146 -1.1162  0.6942  1.0307
 8528TIP3   OH247074   0.352   4.003  14.538 -0.8248  0.6012 -0.0263
 8528TIP3    H147075   0.346   3.976  14.447  1.4081  1.2478 -0.4310
 8528TIP3    H247076   0.437   4.048  14.544 -1.3659  1.4585  2.1352
 8529TIP3   OH247077   2.588   3.763   2.407 -0.5494  0.7306  0.5262
 8529TIP3    H147078   2.604   3.767   2.312  0.2352  2.1896  0.7030
 8529TIP3    H247079   2.667   3.798   2.446 -0.8032 -0.0232  1.7492
 8530TIP3   OH247080   5.313   6.679   4.653  0.5017  0.1401  0.1436
 8530TIP3    H147081   5.389   6.722   4.613  0.7729  1.2362  1.7161
 8530TIP3    H247082   5.244   6.745   4.648  0.5561  0.3239  1.4565
 8531TIP3   OH247083   1.262   6.639  14.555  0.0671  0.0575  0.1903
 8531TIP3    H147084   1.260   6.606  14.465 -2.0808 -1.2232  0.6377
 8531TIP3    H247085   1.319   6.578  14.602 -0.0194 -0.1655  0.0056
 8532TIP3   OH247086   2.000   1.670   5.113 -0.1001 -0.5125  0.2521
 8532TIP3    H147087   2.041   1.752   5.086  1.3990 -0.7326  1.6615
 8532TIP3    H247088   1.912   1.694   5.142 -0.1153  0.3894 -0.5194
 8533TIP3   OH247089   5.685   1.487   1.358 -0.3862 -0.0818  0.1374
 8533TIP3    H147090   5.778   1.492   1.382 -0.3421  0.6939 -0.1707
 8533TIP3    H247091   5.640   1.525   1.434 -0.2364  2.5439 -0.9769
 8534TIP3   OH247092   0.926   4.280   0.649 -0.2526 -0.3142 -0.0890
 8534TIP3    H147093   0.871   4.224   0.704  0.0733  0.2145  0.8096
 8534TIP3    H247094   1.003   4.298   0.703 -0.7353  1.6998  0.0108
 8535TIP3   OH247095   3.489   0.595  10.643  0.1501  0.7972 -0.2517
 8535TIP3    H147096   3.436   0.522  10.611  0.7148  0.4729 -0.4675
 8535TIP3    H247097   3.579   0.562  10.641  0.4444  1.5941 -0.6276
 8536TIP3   OH247098   6.318   5.351   6.207 -0.4111 -0.1760 -0.3306
 8536TIP3    H147099   6.319   5.258   6.183  0.8351 -0.1656 -0.3857
 8536TIP3    H247100   6.388   5.359   6.273 -1.2450  0.5195  0.5016
 8537TIP3   OH247101   4.033   3.146  12.563 -0.0653 -0.1851 -0.3422
 8537TIP3    H147102   4.046   3.074  12.501 -2.3946 -1.1023  0.1305
 8537TIP3    H247103   4.035   3.103  12.649 -1.6679  0.2300 -0.0663
 8538TIP3   OH247104   5.942   3.067  15.899  0.0138  0.7465  1.0691
 8538TIP3    H147105   5.970   2.985  15.940 -0.1464 -0.8422 -1.7581
 8538TIP3    H247106   5.847   3.062  15.897  0.0374  0.4330 -0.0847
 8539TIP3   OH247107   5.228   0.344  13.191  0.6735  0.1507 -0.2382
 8539TIP3    H147108   5.169   0.403  13.144  0.4733  1.0310  1.0426
 8539TIP3    H247109   5.183   0.328  13.275  0.5892 -2.0665 -0.6384
 8540TIP3   OH247110   5.463   3.424   4.209  0.3972  0.5511 -0.0846
 8540TIP3    H147111   5.386   3.415   4.153  2.0544  0.0378 -2.4239
 8540TIP3    H247112   5.467   3.343   4.258  1.5075 -1.1909 -2.8238
 8541TIP3   OH247113   2.287   6.330  11.105 -0.4887  0.7933  0.4813
 8541TIP3    H147114   2.263   6.421  11.123  1.6167  1.3547  0.7462
 8541TIP3    H247115   2.380   6.334  11.083 -0.6017 -1.1743 -0.6036
 8542TIP3   OH247116   0.918   6.227  12.406 -0.1812 -0.2657 -0.3361
 8542TIP3    H147117   0.934   6.171  12.330 -0.6500 -1.0418  0.1329
 8542TIP3    H247118   0.823   6.226  12.417 -0.2662  1.1074 -0.6745
 8543TIP3   OH247119   4.040   1.229  10.843 -0.5790 -0.1194 -0.7685
 8543TIP3    H147120   4.041   1.137  10.814  0.7265  0.1658 -1.7234
 8543TIP3    H247121   4.044   1.280  10.762  0.7001  0.7399 -0.2024
 8544TIP3   OH247122   0.743   2.564   3.551 -0.5758  0.4484 -1.2532
 8544TIP3    H147123   0.698   2.605   3.625 -0.0699 -1.2705  0.0600
 8544TIP3    H247124   0.673   2.531   3.496 -0.9741 -0.4404 -0.2516
 8545TIP3   OH247125   5.608   3.603  15.946 -0.1019 -0.4207  0.3181
 8545TIP3    H147126   5.568   3.654  15.875  0.0273 -2.9112 -1.6694
 8545TIP3    H247127   5.699   3.633  15.948 -0.6968  1.5206  1.3038
 8546TIP3   OH247128   4.957   2.262  12.655 -0.0938  0.3197  0.5661
 8546TIP3    H147129   4.873   2.243  12.698 -0.3243 -0.9685 -0.3858
 8546TIP3    H247130   4.939   2.247  12.562  0.7976  1.5657  0.1674
 8547TIP3   OH247131   6.371   4.460   4.024  0.2252 -0.3921  0.0344
 8547TIP3    H147132   6.314   4.532   4.052  0.8212 -0.4101  1.3643
 8547TIP3    H247133   6.436   4.502   3.968 -0.8380 -0.3124 -1.1935
 8548TIP3   OH247134   0.527   2.088  12.510  0.2256  0.2961  0.4802
 8548TIP3    H147135   0.563   2.000  12.521 -1.8992 -0.7061 -0.1158
 8548TIP3    H247136   0.522   2.124  12.598  2.2109  0.3208  0.6199
 8549TIP3   OH247137   3.481   2.098   1.646  0.3038  0.0376 -0.3817
 8549TIP3    H147138   3.399   2.075   1.689 -0.2329 -0.8666 -1.7837
 8549TIP3    H247139   3.512   2.015   1.608  0.8766  0.7201 -1.4579
 8550TIP3   OH247140   1.437   6.663   4.616 -0.0752 -0.8031  0.2900
 8550TIP3    H147141   1.457   6.658   4.523 -1.2861  1.1297 -0.1354
 8550TIP3    H247142   1.410   6.574   4.640 -2.3289 -0.8359 -1.8764
 8551TIP3   OH247143   1.898   1.898   5.833 -0.2349 -0.5510 -0.2193
 8551TIP3    H147144   1.852   1.869   5.754 -2.4158 -1.9241  1.4431
 8551TIP3    H247145   1.866   1.987   5.847  1.1426  0.1977 -1.5059
 8552TIP3   OH247146   4.525   3.255  12.918 -0.0660  0.2791 -1.0610
 8552TIP3    H147147   4.493   3.187  12.977 -0.5353  0.7139 -0.8083
 8552TIP3    H247148   4.574   3.315  12.974  1.5851 -0.5852 -1.4979
 8553TIP3   OH247149   0.626   5.092  15.696  0.1474 -0.3817 -0.0660
 8553TIP3    H147150   0.670   5.080  15.612 -1.2008 -0.3617 -0.8045
 8553TIP3    H247151   0.692   5.131  15.753  1.7581 -2.4011 -0.4448
 8554TIP3   OH247152   3.541   3.732  15.586 -0.0372 -0.6442 -0.4296
 8554TIP3    H147153   3.475   3.771  15.530  0.5336 -1.6965 -1.8805
 8554TIP3    H247154   3.497   3.658  15.627 -0.5853  0.3771  0.9346
 8555TIP3   OH247155   0.781   2.325  12.906 -0.3711  0.2887 -0.9627
 8555TIP3    H147156   0.742   2.238  12.906  2.2306 -0.9892 -0.9402
 8555TIP3    H247157   0.847   2.322  12.837  0.2457  2.0204 -0.5126
 8556TIP3   OH247158   0.191   6.286   0.444 -0.0115 -0.2118 -0.8667
 8556TIP3    H147159   0.191   6.308   0.537  0.0101 -0.2040 -0.8687
 8556TIP3    H247160   0.243   6.205   0.439 -0.2838 -0.3904 -0.8291
 8557TIP3   OH247161   2.402   0.038   2.461  0.3911 -0.3542  0.0278
 8557TIP3    H147162   2.352   0.118   2.443 -0.5469 -1.0568 -0.5351
 8557TIP3    H247163   2.352  -0.007   2.529 -1.1944 -2.2855 -2.2458
 8558TIP3   OH247164   1.587   4.549   2.641 -0.1156  0.8449 -0.0782
 8558TIP3    H147165   1.539   4.601   2.706  1.6166 -0.4788  2.4134
 8558TIP3    H247166   1.592   4.461   2.679  2.2621  0.3697 -1.3083
 8559TIP3   OH247167   0.541   1.771   1.525  0.1760 -0.0023 -0.5924
 8559TIP3    H147168   0.609   1.726   1.575 -1.0397 -0.4058  0.7853
 8559TIP3    H247169   0.494   1.700   1.481  0.0641  0.1771 -0.7603
 8560TIP3   OH247170   1.987   6.360   0.418  0.4005  0.4466  0.2249
 8560TIP3    H147171   1.963   6.304   0.492 -0.7359  0.8955  0.2074
 8560TIP3    H247172   1.911   6.416   0.404  1.6097  2.2435  0.4480
 8561TIP3   OH247173   0.857   0.927   4.792  0.1762  0.2890 -0.1103
 8561TIP3    H147174   0.820   0.877   4.865  0.2441  1.4366  0.7381
 8561TIP3    H247175   0.791   0.994   4.774  0.7264  0.7978 -0.2505
 8562TIP3   OH247176   5.280   6.580  12.529 -0.3645 -0.3436  0.2943
 8562TIP3    H147177   5.324   6.654  12.570  0.2605 -1.0791  0.9750
 8562TIP3    H247178   5.299   6.589  12.436  0.5527 -0.2033  0.4876
 8563TIP3   OH247179   3.745   4.756  12.447  0.4759 -0.1663 -0.1898
 8563TIP3    H147180   3.797   4.676  12.436 -1.4662 -1.4341 -0.5134
 8563TIP3    H247181   3.747   4.773  12.541  0.7784 -0.6858 -0.1009
 8564TIP3   OH247182   2.419   2.539   1.358  0.2405 -0.1890  0.3663
 8564TIP3    H147183   2.395   2.449   1.380  0.7201 -0.2418  0.6829
 8564TIP3    H247184   2.453   2.575   1.440 -0.2850  0.3962  0.3306
 8565TIP3   OH247185   1.144   3.980   0.941  0.2988  0.0583 -0.1957
 8565TIP3    H147186   1.132   4.001   1.034  1.6963 -1.1501  0.2978
 8565TIP3    H247187   1.167   4.064   0.901  1.2739  0.3318  0.8702
 8566TIP3   OH247188   2.610   2.145  15.333  0.6161 -0.1869  0.1194
 8566TIP3    H147189   2.647   2.076  15.388  0.3465  0.2192  0.8238
 8566TIP3    H247190   2.686   2.194  15.302  0.8369 -0.9875 -0.6643
 8567TIP3   OH247191   1.159   4.045  15.126  0.4721 -0.2679 -0.7739
 8567TIP3    H147192   1.206   4.115  15.171 -1.0771  0.6666 -0.5577
 8567TIP3    H247193   1.223   3.974  15.119  2.2290  1.2853 -1.3594
 8568TIP3   OH247194   3.986   6.544  13.611 -0.1849  0.1777 -0.2331
 8568TIP3    H147195   3.892   6.562  13.607 -0.2321  0.0234  0.1535
 8568TIP3    H247196   4.027   6.631  13.614 -0.3305  0.2436 -0.1039
 8569TIP3   OH247197   6.160   4.948  16.874 -0.2304  0.5877 -0.0828
 8569TIP3    H147198   6.242   4.931  16.920  0.6768 -1.3362 -2.2079
 8569TIP3    H247199   6.096   4.894  16.919  0.1304  0.4958  0.3283
 8570TIP3   OH247200   5.801   3.376   1.822  0.1835  0.0148 -0.0528
 8570TIP3    H147201   5.765   3.443   1.880 -0.0528 -0.6174  0.5580
 8570TIP3    H247202   5.759   3.391   1.738  0.2161  0.6980  0.0489
 8571TIP3   OH247203   5.898   0.539  10.652 -0.7526 -0.2662  0.2389
 8571TIP3    H147204   5.823   0.595  10.672 -0.3485  0.2515  0.3197
 8571TIP3    H247205   5.964   0.599  10.617 -0.9468 -0.9426 -1.3922
 8572TIP3   OH247206   0.661   3.134  13.970 -0.1604  0.0291 -0.4792
 8572TIP3    H147207   0.657   3.209  13.910  0.6911  0.7169  0.3038
 8572TIP3    H247208   0.699   3.169  14.050 -3.2859 -0.3403  1.3137
 8573TIP3   OH247209   2.169   3.065   5.644 -0.0155 -0.8025 -0.4162
 8573TIP3    H147210   2.090   3.059   5.697 -0.1617  0.0833 -0.5263
 8573TIP3    H247211   2.142   3.034   5.557 -0.6042  0.7139 -0.8106
 8574TIP3   OH247212   5.424   4.053   4.294 -0.7363  0.0076  0.1978
 8574TIP3    H147213   5.437   4.045   4.200  0.2041  0.3545  0.2859
 8574TIP3    H247214   5.379   3.972   4.319 -0.7515 -0.2090 -0.5035
 8575TIP3   OH247215   6.288   2.728   1.895  0.4266  0.4469 -0.4728
 8575TIP3    H147216   6.251   2.816   1.893  0.0502  0.2888 -0.5173
 8575TIP3    H247217   6.288   2.699   1.804 -1.3432 -0.3725 -0.2665
 8576TIP3   OH247218   1.493   6.078   4.999  0.6325  0.3557 -0.2296
 8576TIP3    H147219   1.472   6.102   5.089 -0.6527  1.4325 -0.7854
 8576TIP3    H247220   1.579   6.119   4.983 -0.1914  2.1797 -0.2140
 8577TIP3   OH247221   2.491   4.131  11.376 -0.1977  0.2201 -0.5296
 8577TIP3    H147222   2.475   4.206  11.434 -0.4573 -0.6748  0.6042
 8577TIP3    H247223   2.459   4.056  11.426  1.1667 -0.7930 -1.1181
 8578TIP3   OH247224   3.596   0.034   2.607 -0.2349 -0.1752 -0.4105
 8578TIP3    H147225   3.642  -0.050   2.614 -0.3716 -0.1631  0.8680
 8578TIP3    H247226   3.514   0.013   2.563  0.6237 -0.3265 -2.0251
 8579TIP3   OH247227   1.797   1.115   6.103 -0.2336 -0.1942  0.0445
 8579TIP3    H147228   1.871   1.118   6.163  0.0934  0.1944 -0.3729
 8579TIP3    H247229   1.832   1.077   6.022 -1.1668 -2.7824  0.7769
 8580TIP3   OH247230   5.188   3.887  11.813  0.8178 -0.0359  0.5936
 8580TIP3    H147231   5.140   3.842  11.882  0.5906 -1.6635 -0.5610
 8580TIP3    H247232   5.230   3.816  11.763  1.1866  1.0902 -0.7577
 8581TIP3   OH247233   6.513   3.789  13.844  0.2299 -0.3554  0.1984
 8581TIP3    H147234   6.560   3.722  13.793  1.2029  0.1650  0.3806
 8581TIP3    H247235   6.559   3.791  13.928 -0.4233 -0.1546  0.5546
 8582TIP3   OH247236   1.736   0.270  13.652  0.4977  0.1622  0.1464
 8582TIP3    H147237   1.804   0.225  13.701 -0.1920  0.5057  1.4770
 8582TIP3    H247238   1.746   0.362  13.677 -0.2095  0.2626  0.0863
 8583TIP3   OH247239   3.435   4.421  15.333 -0.9194  0.5819 -0.1584
 8583TIP3    H147240   3.412   4.330  15.314  0.5180  0.6415 -2.6332
 8583TIP3    H247241   3.401   4.436  15.421 -0.0338 -2.7527  0.9187
 8584TIP3   OH247242   4.059   1.942   3.203  0.0156  0.0420  0.0407
 8584TIP3    H147243   3.981   1.940   3.147  1.0242 -1.2764 -1.4102
 8584TIP3    H247244   4.040   2.009   3.268 -1.0835  1.9827 -2.1175
 8585TIP3   OH247245   2.261   0.656   4.462  0.1944 -0.7081  0.0609
 8585TIP3    H147246   2.307   0.683   4.541 -0.0677 -0.9717  0.3047
 8585TIP3    H247247   2.253   0.737   4.411 -0.3408 -0.3687  0.6629
 8586TIP3   OH247248   0.247   2.487   6.735 -0.2033 -0.3489 -0.3493
 8586TIP3    H147249   0.235   2.580   6.756 -1.4343 -0.4017 -0.7760
 8586TIP3    H247250   0.159   2.450   6.736  0.0649 -1.1250 -1.9553
 8587TIP3   OH247251   4.487   2.026  14.805  0.7245 -0.2822  0.3597
 8587TIP3    H147252   4.513   2.105  14.852  1.0975 -1.4094  2.1574
 8587TIP3    H247253   4.393   2.034  14.795  0.8279  0.6234  0.0639
 8588TIP3   OH247254   1.638   6.664  16.881 -0.0726 -0.2083  0.2646
 8588TIP3    H147255   1.713   6.669  16.941 -0.2424 -0.4238  0.4995
 8588TIP3    H247256   1.620   6.571  16.874 -1.2189 -0.0897  1.3501
 8589TIP3   OH247257   2.620   3.428   1.041  0.2764 -0.0441 -0.2343
 8589TIP3    H147258   2.681   3.366   1.002 -0.0075  1.6085 -3.6391
 8589TIP3    H247259   2.675   3.493   1.084  0.8651  0.3290 -1.5160
 8590TIP3   OH247260   4.589   2.531   0.883  0.1416 -0.0905  0.1586
 8590TIP3    H147261   4.518   2.487   0.835  0.8608  0.1376 -1.1834
 8590TIP3    H247262   4.651   2.462   0.904 -0.1578 -0.1851  0.7280
 8591TIP3   OH247263   0.944   0.078   4.676  0.0919  0.2055 -0.2624
 8591TIP3    H147264   0.996  -0.002   4.686 -2.0769 -1.2032  0.5176
 8591TIP3    H247265   0.943   0.094   4.581  0.5944 -0.6689 -0.4241
 8592TIP3   OH247266   3.187   3.277  12.717 -0.0047 -0.7389 -0.7839
 8592TIP3    H147267   3.158   3.315  12.800  2.3912  2.0927 -1.0891
 8592TIP3    H247268   3.239   3.201  12.742  0.2712 -0.2093  0.2947
 8593TIP3   OH247269   5.994   6.314   1.411 -0.1836 -0.1242  0.5907
 8593TIP3    H147270   5.958   6.230   1.380 -0.1522 -0.5737  1.7456
 8593TIP3    H247271   6.085   6.295   1.432  0.1711  0.5114 -0.3065
 8594TIP3   OH247272   2.542   5.315   2.185  0.4881  0.1342 -0.0963
 8594TIP3    H147273   2.566   5.391   2.132 -0.7330  2.2227  2.1194
 8594TIP3    H247274   2.581   5.334   2.271 -0.1778 -1.5649  0.6153
 8595TIP3   OH247275   0.911   2.040   5.679  0.4395 -0.3099 -0.0512
 8595TIP3    H147276   0.902   2.075   5.590  0.6350  0.5529  0.2624
 8595TIP3    H247277   0.988   1.983   5.674  0.4593 -0.2542 -0.4287
 8596TIP3   OH247278   2.320   5.115  12.380 -0.0376  0.2199 -0.4653
 8596TIP3    H147279   2.332   5.155  12.466  1.1038  0.9660 -0.9511
 8596TIP3    H247280   2.226   5.098  12.375 -0.5146  2.4348 -0.0531
 8597TIP3   OH247281   1.936   4.431   0.010 -0.5401 -0.5455  0.2891
 8597TIP3    H147282   1.858   4.378   0.027 -1.2439 -0.2343 -1.7147
 8597TIP3    H247283   2.005   4.366  -0.004 -0.3307 -0.8201  2.3099
 8598TIP3   OH247284   6.416   4.274  11.098  0.6380  0.2344 -0.4118
 8598TIP3    H147285   6.426   4.359  11.053  0.3288 -0.5962 -2.1414
 8598TIP3    H247286   6.457   4.211  11.039 -0.0399 -0.9615  0.3591
 8599TIP3   OH247287   0.514   6.113  15.879 -0.6462 -0.2146 -0.0535
 8599TIP3    H147288   0.461   6.182  15.840  0.7877  1.1401  0.3312
 8599TIP3    H247289   0.516   6.133  15.972  0.4850 -0.2680 -0.0538
 8600TIP3   OH247290   1.675   1.702   2.069 -0.5528 -0.0674 -0.2376
 8600TIP3    H147291   1.673   1.765   2.142  0.9526 -0.3320  0.0615
 8600TIP3    H247292   1.765   1.704   2.038 -1.0154 -0.4582 -1.6867
 8601TIP3   OH247293   4.135   6.722   3.177  0.2336 -0.2862  0.1701
 8601TIP3    H147294   4.111   6.640   3.135  1.3763 -0.1390 -0.8273
 8601TIP3    H247295   4.155   6.698   3.268 -0.9398 -0.8374  0.3009
 8602TIP3   OH247296   6.206   6.723   2.241 -0.2776  0.0369  0.1780
 8602TIP3    H147297   6.250   6.641   2.260  0.0293  0.1595 -0.0038
 8602TIP3    H247298   6.134   6.727   2.304 -1.3256 -1.1652 -0.8765
 8603TIP3   OH247299   2.485   0.812   1.748 -0.0555  0.0104  0.1759
 8603TIP3    H147300   2.519   0.902   1.753  0.8411 -0.3742  1.6359
 8603TIP3    H247301   2.494   0.778   1.837 -1.1106 -1.2828 -0.1759
 8604TIP3   OH247302   5.053   1.391  15.768 -0.2506 -0.1914  0.0072
 8604TIP3    H147303   5.075   1.355  15.681  0.5024 -0.2594  0.2130
 8604TIP3    H247304   5.001   1.323  15.810  1.3879 -1.2125  0.4946
 8605TIP3   OH247305   2.317   3.837   2.452 -0.4906  0.0934  0.5288
 8605TIP3    H147306   2.282   3.825   2.364 -0.8039  2.0698  0.3500
 8605TIP3    H247307   2.405   3.798   2.448 -0.0606  1.1344 -1.0044
 8606TIP3   OH247308   0.377   0.121  12.106  0.4777  0.1762 -0.0326
 8606TIP3    H147309   0.441   0.147  12.040  0.7124 -1.4106 -0.4674
 8606TIP3    H247310   0.404   0.166  12.186  3.1021 -1.6009  0.2040
 8607TIP3   OH247311   5.405   0.143  13.156  0.1916 -0.1494 -0.9323
 8607TIP3    H147312   5.382   0.234  13.173 -0.2493 -0.0825 -1.8531
 8607TIP3    H247313   5.413   0.104  13.244  1.5823  1.0455 -0.4965
 8608TIP3   OH247314   6.443   3.322  16.944  0.3017  0.1631  0.0161
 8608TIP3    H147315   6.400   3.396  16.987  1.0626  0.4121  0.3704
 8608TIP3    H247316   6.515   3.362  16.895  1.3763 -0.4456  1.0732
 8609TIP3   OH247317   6.743   2.059   4.117  0.0124  0.2744 -0.3954
 8609TIP3    H147318   6.664   2.096   4.156 -0.2818 -0.7623  0.0132
 8609TIP3    H247319   6.717   2.031   4.030 -0.1082 -0.1883 -0.2121
 8610TIP3   OH247320   1.355   4.834  10.011 -0.2314  0.0468  0.4434
 8610TIP3    H147321   1.405   4.874   9.940 -0.9532  0.0558 -0.0688
 8610TIP3    H247322   1.413   4.838  10.087  0.6519 -0.2039 -0.2074
 8611TIP3   OH247323   6.380   5.890  16.688 -1.4316 -0.5403 -0.4559
 8611TIP3    H147324   6.302   5.835  16.688 -2.2410  0.5741 -0.6571
 8611TIP3    H247325   6.392   5.915  16.780 -2.1930  0.4738 -0.6168
 8612TIP3   OH247326   5.838   4.477  16.822  0.4965  0.3774  0.4705
 8612TIP3    H147327   5.805   4.552  16.871 -2.3701  0.5648 -1.4893
 8612TIP3    H247328   5.790   4.402  16.857  0.0883  0.1792 -0.4615
 8613TIP3   OH247329   6.773   0.011  13.559  0.4177  0.2027 -0.2985
 8613TIP3    H147330   6.796   0.079  13.623  1.0812  0.5059 -0.8433
 8613TIP3    H247331   6.687   0.037  13.526  0.5262  0.6045 -0.2712
 8614TIP3   OH247332   4.163   1.479  15.021 -0.2061  0.1390  0.4066
 8614TIP3    H147333   4.240   1.534  15.007  0.4923 -0.9449 -0.2105
 8614TIP3    H247334   4.142   1.489  15.113  0.4876  0.7018  0.5119
 8615TIP3   OH247335   5.906   0.540  11.675 -0.1497 -0.4159 -0.2726
 8615TIP3    H147336   5.921   0.478  11.746 -1.0527  0.5710  0.8146
 8615TIP3    H247337   5.920   0.489  11.595 -1.8784 -2.2982  0.5466
 8616TIP3   OH247338   3.574   2.982  13.960 -0.0660 -0.2455 -0.5353
 8616TIP3    H147339   3.568   2.984  14.055  0.1363 -0.0095 -0.5279
 8616TIP3    H247340   3.653   3.032  13.940 -0.0295 -0.4175 -0.8184
 8617TIP3   OH247341   2.070   2.025  12.276 -0.1504 -0.4744 -0.0233
 8617TIP3    H147342   2.003   1.957  12.280 -0.4535 -0.1929 -0.2455
 8617TIP3    H247343   2.125   2.009  12.352 -1.2050  0.0404  0.8726
 8618TIP3   OH247344   4.834   3.738   1.869 -0.4205 -0.2209  0.0967
 8618TIP3    H147345   4.781   3.724   1.947 -2.1231 -0.2381 -1.0304
 8618TIP3    H247346   4.775   3.779   1.806  1.4030  1.5884 -0.5749
 8619TIP3   OH247347   1.821   0.232   3.726 -0.3480  0.0234  0.1468
 8619TIP3    H147348   1.749   0.172   3.746 -0.8451  0.8115  0.8034
 8619TIP3    H247349   1.810   0.252   3.633  1.0641 -2.4767 -0.6703
 8620TIP3   OH247350   4.711   6.440  12.979 -0.4856  0.2573  0.2091
 8620TIP3    H147351   4.805   6.426  12.986 -0.8737 -2.0317  1.6997
 8620TIP3    H247352   4.681   6.372  12.918 -1.2733  0.5723  0.2316
 8621TIP3   OH247353   6.607   6.417   4.836  0.0165 -0.3576  0.1259
 8621TIP3    H147354   6.620   6.391   4.745 -1.0081 -3.3679  0.7007
 8621TIP3    H247355   6.652   6.349   4.886  1.0303  1.5389  1.9086
 8622TIP3   OH247356   5.006   0.028   2.468 -0.5374  0.2198 -0.1042
 8622TIP3    H147357   4.969   0.109   2.433  0.1782  1.4061  1.7604
 8622TIP3    H247358   5.100   0.043   2.471 -0.1736 -1.4075 -1.4089
 8623TIP3   OH247359   2.625   3.054   6.571 -0.2179  0.4966  0.0421
 8623TIP3    H147360   2.617   3.137   6.524  0.7423  0.6447  0.1106
 8623TIP3    H247361   2.641   2.989   6.503 -0.4554  0.4554  0.0275
 8624TIP3   OH247362   3.866   3.437  12.816  0.6117  0.1280  0.3146
 8624TIP3    H147363   3.867   3.399  12.728 -0.8061  0.3431  0.1777
 8624TIP3    H247364   3.799   3.505  12.811  0.3108 -0.0504  1.6439
 8625TIP3   OH247365   0.044   2.475  10.496  0.2725  0.2574 -0.7726
 8625TIP3    H147366   0.025   2.426  10.416  0.1467 -0.7861 -0.1299
 8625TIP3    H247367   0.136   2.457  10.514 -0.0097 -0.5358 -0.0300
 8626TIP3   OH247368   2.420   3.749  13.510  0.3673  0.6623  0.2719
 8626TIP3    H147369   2.354   3.750  13.578 -0.7607 -0.8954 -0.7403
 8626TIP3    H247370   2.496   3.793  13.549 -0.5459  0.6240  2.1727
 8627TIP3   OH247371   1.861   1.615  11.262 -0.1079 -0.1196 -0.3745
 8627TIP3    H147372   1.883   1.697  11.307 -1.4818  0.6027 -0.9404
 8627TIP3    H247373   1.843   1.553  11.332 -1.6881  0.8363  0.1234
 8628TIP3   OH247374   0.398   1.561  13.455 -0.0713 -0.0461 -0.6475
 8628TIP3    H147375   0.409   1.572  13.550 -1.7539 -1.6538 -0.2088
 8628TIP3    H247376   0.454   1.488  13.432 -0.2586 -0.1608 -0.7430
 8629TIP3   OH247377   3.413   4.882  11.249  0.1331  0.1541  0.3216
 8629TIP3    H147378   3.438   4.974  11.258 -0.0233  0.1387  0.9793
 8629TIP3    H247379   3.318   4.881  11.263  0.0201 -0.0142 -0.4119
 8630TIP3   OH247380   0.271   0.117   2.289 -0.3071 -0.2522 -0.1562
 8630TIP3    H147381   0.183   0.144   2.313  0.3745  1.3393  0.6917
 8630TIP3    H247382   0.258   0.060   2.213 -2.0633 -0.1492  0.0157
 8631TIP3   OH247383   0.990   2.318   1.764 -0.5981 -0.2099  0.2257
 8631TIP3    H147384   1.041   2.310   1.845  0.2123 -0.6532 -0.3080
 8631TIP3    H247385   0.927   2.245   1.768 -1.0957  0.2471  0.8182
 8632TIP3   OH247386   3.200   4.513   0.716  0.3947 -0.2026 -0.7472
 8632TIP3    H147387   3.195   4.460   0.795  0.0014  0.4477 -0.3273
 8632TIP3    H247388   3.289   4.549   0.716 -0.2455  1.5539  0.5857
 8633TIP3   OH247389   5.760   2.249  13.100 -0.0615 -0.4992 -0.0228
 8633TIP3    H147390   5.670   2.241  13.070 -0.9223  0.0482  2.2295
 8633TIP3    H247391   5.754   2.296  13.184  2.0761 -2.3326  1.2918
 8634TIP3   OH247392   3.195   6.248   6.194  0.5692  0.0235  0.1955
 8634TIP3    H147393   3.286   6.238   6.164  0.6525  1.1961  0.0046
 8634TIP3    H247394   3.202   6.253   6.289  0.7289  0.3052  0.1700
 8635TIP3   OH247395   4.386   2.858  13.682  0.1355 -0.0870 -0.0148
 8635TIP3    H147396   4.327   2.835  13.610  0.6187 -0.1702 -0.3832
 8635TIP3    H247397   4.473   2.839  13.649  0.3563 -0.2268  0.6293
 8636TIP3   OH247398   4.906   6.473   1.525 -0.1154  0.1136  0.1261
 8636TIP3    H147399   4.992   6.461   1.567 -0.5711 -0.2876  0.9652
 8636TIP3    H247400   4.910   6.562   1.490 -0.0671  0.8500  1.9058
 8637TIP3   OH247401   5.170   6.539  11.552 -0.2250  0.7316  0.0618
 8637TIP3    H147402   5.160   6.523  11.645 -0.5762 -0.0765 -0.1123
 8637TIP3    H247403   5.127   6.465  11.509  0.2645  0.8905 -0.7370
 8638TIP3   OH247404   6.030   3.979   3.556  0.7689 -0.0099 -0.1270
 8638TIP3    H147405   5.965   4.040   3.590 -1.2319 -1.4841 -1.0825
 8638TIP3    H247406   6.019   3.900   3.609  1.4877 -0.4280 -0.5824
 8639TIP3   OH247407   1.381   0.311   0.322  0.0505 -0.1976  0.1582
 8639TIP3    H147408   1.330   0.283   0.246  0.1519 -0.8154  0.3126
 8639TIP3    H247409   1.363   0.404   0.331 -0.5405 -0.2803 -0.1771
 8640TIP3   OH247410   1.773   2.482  11.370  0.0222  0.0246  0.5036
 8640TIP3    H147411   1.691   2.459  11.413 -0.7845 -1.9203 -1.8276
 8640TIP3    H247412   1.749   2.547  11.305  0.1295 -1.1388 -0.7361
 8641TIP3   OH247413   0.639   2.708   4.281 -0.3501  0.5302 -0.3080
 8641TIP3    H147414   0.685   2.648   4.223 -2.0814  0.3365 -1.5230
 8641TIP3    H247415   0.546   2.696   4.262 -0.9169  1.4357  1.5588
 8642TIP3   OH247416   4.538   5.891   2.128 -0.4069 -0.0152 -0.0686
 8642TIP3    H147417   4.593   5.828   2.176 -0.5783 -0.3662 -0.3341
 8642TIP3    H247418   4.568   5.884   2.037 -0.9857 -0.3132 -0.2415
 8643TIP3   OH247419   6.442   0.851  15.002  0.4997 -0.2477  0.4095
 8643TIP3    H147420   6.481   0.800  14.931 -1.7306 -1.2097 -0.2208
 8643TIP3    H247421   6.467   0.805  15.081  0.6278 -0.8485  0.0260
 8644TIP3   OH247422   1.320   1.318   5.209 -0.7868  0.4591 -0.3362
 8644TIP3    H147423   1.364   1.332   5.126  0.4829  2.1442  0.5604
 8644TIP3    H247424   1.278   1.232   5.200  0.9922 -0.3168 -1.9750
 8645TIP3   OH247425   5.770   0.875   5.106  0.3419  0.4758 -0.1651
 8645TIP3    H147426   5.778   0.966   5.135  0.3276  1.1115 -2.0308
 8645TIP3    H247427   5.856   0.837   5.122  0.3090  0.7651  0.7593
 8646TIP3   OH247428   6.379   3.592  15.729  0.2798 -0.0297  0.2735
 8646TIP3    H147429   6.341   3.580  15.816  1.0053  0.0373  0.6085
 8646TIP3    H247430   6.400   3.504  15.700  2.0394  0.0879  1.0963
 8647TIP3   OH247431   0.357   4.713   5.721 -0.3827 -0.0486  0.4617
 8647TIP3    H147432   0.426   4.701   5.787  0.0118  2.1313  0.5384
 8647TIP3    H247433   0.277   4.727   5.772  0.0989  2.7169  0.6554
 8648TIP3   OH247434   3.097   6.532  12.616 -0.4354 -0.2540  0.4735
 8648TIP3    H147435   3.040   6.601  12.650 -1.7892 -0.7342 -0.7772
 8648TIP3    H247436   3.123   6.482  12.694 -1.4682  0.1532  1.0932
 8649TIP3   OH247437   5.221   4.025  13.847 -0.3100 -0.2197  0.1594
 8649TIP3    H147438   5.214   3.934  13.876  0.8067 -0.6750 -0.8946
 8649TIP3    H247439   5.137   4.044  13.805 -1.0007 -0.3506  1.4525
 8650TIP3   OH247440   3.561   0.991   4.161  0.0005  0.0291 -0.2232
 8650TIP3    H147441   3.564   1.087   4.165 -3.8038  0.2901  0.6364
 8650TIP3    H247442   3.470   0.972   4.139  0.2556 -3.4340  1.1916
 8651TIP3   OH247443   6.276   3.051   1.458 -0.4337  0.4974 -0.2519
 8651TIP3    H147444   6.305   2.989   1.391  2.0534  1.6346 -0.3620
 8651TIP3    H247445   6.300   3.009   1.541  0.0780  0.7502 -0.2689
 8652TIP3   OH247446   2.988   1.782  12.926  0.2364  0.7540 -0.2237
 8652TIP3    H147447   2.976   1.742  12.840  0.0819 -1.1169  0.6235
 8652TIP3    H247448   3.011   1.709  12.983  1.7386  2.1563  1.0631
 8653TIP3   OH247449   6.131   4.683   0.930  0.1054 -0.4837  0.6367
 8653TIP3    H147450   6.219   4.719   0.941  0.5767 -1.7257  1.0676
 8653TIP3    H247451   6.124   4.616   0.998 -0.5302 -1.6146 -0.5126
 8654TIP3   OH247452   2.906   5.823   1.078  0.0334 -0.1232  0.3874
 8654TIP3    H147453   2.995   5.854   1.093 -0.2208  0.4129  0.8449
 8654TIP3    H247454   2.904   5.795   0.987  0.7750 -0.4978  0.4863
 8655TIP3   OH247455   0.905   2.614   5.878 -0.1482  0.1722  0.2637
 8655TIP3    H147456   0.992   2.580   5.900 -0.4289  1.2577  3.6905
 8655TIP3    H247457   0.921   2.689   5.821  0.9871 -0.7659 -0.7001
 8656TIP3   OH247458   0.812   5.450   5.586  0.0084  0.3667 -0.0936
 8656TIP3    H147459   0.747   5.442   5.517  1.6977 -0.3202 -1.7049
 8656TIP3    H247460   0.896   5.451   5.540  1.1752  0.9473  1.8987
 8657TIP3   OH247461   5.066   6.382   3.927  0.4748  0.3319 -0.8691
 8657TIP3    H147462   5.052   6.474   3.950  0.5990  0.2752 -0.5682
 8657TIP3    H247463   4.990   6.360   3.873  0.2377  0.4970 -0.6086
 8658TIP3   OH247464   0.098   5.828   2.658  0.0841 -0.0986 -0.3513
 8658TIP3    H147465   0.105   5.738   2.628  1.0378 -0.1248 -0.0853
 8658TIP3    H247466   0.188   5.855   2.676 -0.2374  0.7119  0.1349
 8659TIP3   OH247467   4.079   3.711   4.102 -0.6410 -0.2229  0.3033
 8659TIP3    H147468   4.054   3.799   4.130 -0.7042 -0.4955  1.1416
 8659TIP3    H247469   4.175   3.712   4.100 -0.6503 -0.0155 -0.0997
 8660TIP3   OH247470   4.500   2.712  14.555  0.1463  0.0531  0.3548
 8660TIP3    H147471   4.415   2.671  14.534  0.8830 -1.8962  0.8840
 8660TIP3    H247472   4.505   2.707  14.650  1.2244 -0.6817  0.2753
 8661TIP3   OH247473   3.631   5.767   0.172 -0.2697 -0.0591 -0.0865
 8661TIP3    H147474   3.678   5.684   0.179 -0.9021 -0.3158  1.8577
 8661TIP3    H247475   3.633   5.803   0.261 -3.9246 -0.2512  0.2320
 8662TIP3   OH247476   3.070   2.507   0.716  0.2319 -0.2190 -0.3647
 8662TIP3    H147477   3.022   2.486   0.796  0.3351 -0.4571 -0.3664
 8662TIP3    H247478   3.156   2.537   0.746 -0.1980  1.0277 -0.3158
 8663TIP3   OH247479   3.084   4.175   6.265 -0.0969  0.1366 -0.1218
 8663TIP3    H147480   3.022   4.108   6.294  0.3446 -0.7308 -1.1054
 8663TIP3    H247481   3.034   4.257   6.269 -1.1447 -0.4691 -0.3946
 8664TIP3   OH247482   1.649   0.996  15.417  0.2363 -0.2230 -0.5021
 8664TIP3    H147483   1.593   0.944  15.475 -0.5680  0.1011 -0.9728
 8664TIP3    H247484   1.725   1.019  15.471 -0.7811  0.5884  0.6252
 8665TIP3   OH247485   2.516   4.293   0.559  0.3438 -0.3227  0.3906
 8665TIP3    H147486   2.540   4.314   0.649 -0.8193 -0.8183  0.8314
 8665TIP3    H247487   2.552   4.206   0.544  1.6728  0.2801 -0.0868
 8666TIP3   OH247488   6.362   0.870   1.887 -0.0030 -0.1839  0.0771
 8666TIP3    H147489   6.342   0.924   1.811  0.2520  0.6927  0.6188
 8666TIP3    H247490   6.450   0.896   1.913 -0.6665  0.6532  1.5922
 8667TIP3   OH247491   6.484   3.331   2.029 -0.6210 -0.2465 -0.1364
 8667TIP3    H147492   6.518   3.355   2.115 -1.5370  0.1653  0.1194
 8667TIP3    H247493   6.510   3.239   2.018 -0.2267 -0.2115  0.4369
 8668TIP3   OH247494   0.232   4.895  12.245 -0.7834  0.1275  0.6876
 8668TIP3    H147495   0.186   4.896  12.329  2.1124 -1.7611  2.4899
 8668TIP3    H247496   0.319   4.928  12.265 -0.0220 -0.2827 -1.6201
 8669TIP3   OH247497   2.088   3.261  16.718 -0.0753 -0.0639  0.3220
 8669TIP3    H147498   2.018   3.276  16.655 -0.3745 -0.3308  0.5861
 8669TIP3    H247499   2.091   3.166  16.729 -0.6471  0.0272  1.3997
 8670TIP3   OH247500   0.156   1.958   4.444 -0.5025 -0.1645  0.2032
 8670TIP3    H147501   0.133   1.965   4.537  1.0071 -0.0139  0.5895
 8670TIP3    H247502   0.085   1.907   4.406 -0.9322 -0.6060  1.5251
 8671TIP3   OH247503   1.825   0.849  15.241 -0.4413 -0.1455  0.0919
 8671TIP3    H147504   1.776   0.825  15.162 -0.1162  1.6567 -0.7130
 8671TIP3    H247505   1.763   0.902  15.292  0.0325  0.4760  0.0226
 8672TIP3   OH247506   6.345   1.610  12.887 -0.4065 -0.2544 -0.1641
 8672TIP3    H147507   6.309   1.697  12.872 -2.9421 -1.0862  0.5749
 8672TIP3    H247508   6.403   1.595  12.812 -1.0214  1.4946 -1.0493
 8673TIP3   OH247509   0.342   6.376  16.453  0.0345 -0.0813  0.0299
 8673TIP3    H147510   0.276   6.331  16.401 -0.5324  0.1605  0.5200
 8673TIP3    H247511   0.370   6.311  16.518 -1.2371  0.4129  1.1373
 8674TIP3   OH247512   6.208   0.775  14.879  0.0346 -0.2316  0.1164
 8674TIP3    H147513   6.216   0.763  14.785  2.2635 -0.2425  0.2498
 8674TIP3    H247514   6.297   0.796  14.908 -0.4875 -0.8000  2.3047
 8675TIP3   OH247515   0.786   1.359   1.630  0.0749  0.3263 -0.0410
 8675TIP3    H147516   0.725   1.300   1.676  0.8457  0.7824  1.6611
 8675TIP3    H247517   0.864   1.306   1.615  0.0326  0.3456 -0.3340
 8676TIP3   OH247518   0.904   0.461   5.267 -0.2538  0.4638  0.2266
 8676TIP3    H147519   0.892   0.480   5.360  0.8135 -0.1741  0.5100
 8676TIP3    H247520   0.997   0.476   5.250 -0.2098 -0.4645 -0.4709
 8677TIP3   OH247521   4.305   2.767  12.531 -0.2592 -0.0148 -0.3610
 8677TIP3    H147522   4.352   2.835  12.580 -1.5532 -0.4282  1.5714
 8677TIP3    H247523   4.229   2.812  12.495  1.0975  0.4756 -2.8252
 8678TIP3   OH247524   0.125   2.931  11.954 -0.6093  0.4721 -0.6772
 8678TIP3    H147525   0.046   2.945  11.902  0.3486  3.9489 -1.4737
 8678TIP3    H247526   0.125   3.003  12.017  0.5460 -1.0797  1.2283
 8679TIP3   OH247527   3.180   2.433  12.606 -0.2836 -0.5426  0.0328
 8679TIP3    H147528   3.092   2.467  12.588 -0.3121 -0.1419  0.8556
 8679TIP3    H247529   3.171   2.389  12.691 -0.1911 -2.4394 -0.8784
 8680TIP3   OH247530   1.124   0.836  13.082  0.3968 -0.5048 -0.3220
 8680TIP3    H147531   1.131   0.925  13.116 -2.7815 -0.9147  1.7687
 8680TIP3    H247532   1.097   0.783  13.157 -0.3879 -2.7443 -2.0762
 8681TIP3   OH247533   0.447   2.771   5.840 -0.2001 -0.2807  0.2935
 8681TIP3    H147534   0.483   2.683   5.845 -2.1547 -1.0701  1.8693
 8681TIP3    H247535   0.522   2.829   5.850  0.8048 -1.8139  2.2655
 8682TIP3   OH247536   3.188   6.615   4.961 -0.2412 -0.6917  0.2469
 8682TIP3    H147537   3.268   6.651   4.999 -0.3646  0.4240 -0.5030
 8682TIP3    H247538   3.203   6.520   4.960  1.8009 -0.4291 -1.4318
 8683TIP3   OH247539   1.427   0.675  12.246 -0.2146 -0.0069 -0.0879
 8683TIP3    H147540   1.403   0.607  12.183  1.8377 -1.2787  0.3670
 8683TIP3    H247541   1.434   0.755  12.194 -0.8806 -0.5294 -1.0073
 8684TIP3   OH247542   1.110   6.030  12.001 -0.1890 -0.1050 -0.0168
 8684TIP3    H147543   1.063   6.034  11.918  0.5683 -0.8420 -0.4925
 8684TIP3    H247544   1.070   6.099  12.054 -0.7496  0.3092 -0.9477
 8685TIP3   OH247545   6.815   3.303  15.237  0.3607  0.1528 -0.3168
 8685TIP3    H147546   6.871   3.373  15.270  0.3588 -0.3136  0.7073
 8685TIP3    H247547   6.854   3.280  15.152 -0.0084  1.7962 -0.9590
 8686TIP3   OH247548   5.838   1.187   3.136  0.4096  0.6230  0.4087
 8686TIP3    H147549   5.763   1.245   3.120 -1.6126 -1.8537  0.2221
 8686TIP3    H247550   5.803   1.118   3.192  2.3122 -1.0961 -0.3951
 8687TIP3   OH247551   5.324   4.518   1.590 -0.1538 -0.0192 -0.6877
 8687TIP3    H147552   5.287   4.598   1.552 -0.3736 -0.2121 -0.8867
 8687TIP3    H247553   5.417   4.523   1.569 -0.0592  0.4682 -0.1907
 8688TIP3   OH247554   5.269   1.302   3.356 -0.4644  0.1090  0.0708
 8688TIP3    H147555   5.229   1.275   3.273  0.9354 -0.1015 -0.5707
 8688TIP3    H247556   5.361   1.279   3.346 -0.5193 -1.4965  2.3408
 8689TIP3   OH247557   4.435   3.626  13.555  0.1881 -0.7413  0.2663
 8689TIP3    H147558   4.494   3.555  13.529 -0.4968 -1.5283  0.8202
 8689TIP3    H247559   4.459   3.646  13.645  0.7671  0.1530 -0.0680
 8690TIP3   OH247560   2.733   5.779   4.402 -0.2215 -0.1840  0.0264
 8690TIP3    H147561   2.742   5.709   4.337  1.0774 -0.1453  0.1502
 8690TIP3    H247562   2.775   5.855   4.362 -1.8764  0.6462 -0.2305
 8691TIP3   OH247563   1.446   2.627   4.128  0.6210  0.2090  0.1621
 8691TIP3    H147564   1.379   2.559   4.116  0.3444 -0.0990  2.8444
 8691TIP3    H247565   1.398   2.702   4.163  1.0458  1.6059 -2.0841
 8692TIP3   OH247566   1.937   3.073   5.792  0.1003 -0.3549  0.1911
 8692TIP3    H147567   1.912   3.158   5.754  0.7437  0.5988  1.7958
 8692TIP3    H247568   1.895   3.072   5.878  2.2329 -0.4287  1.3126
 8693TIP3   OH247569   4.012   4.446  16.863 -0.4954 -0.0148  0.0624
 8693TIP3    H147570   3.994   4.386  16.790 -0.2658  0.3256 -0.2779
 8693TIP3    H247571   3.956   4.415  16.934 -2.6962  1.1978 -1.0504
 8694TIP3   OH247572   0.505   6.452  14.265 -0.3015 -1.1287 -0.5571
 8694TIP3    H147573   0.447   6.451  14.342  0.7984 -0.9631  0.3114
 8694TIP3    H247574   0.504   6.543  14.236  2.2413 -0.2429  1.6791
 8695TIP3   OH247575   4.224   1.874   0.709  0.0142  0.5255 -0.2817
 8695TIP3    H147576   4.297   1.825   0.747  0.6429  0.0991 -1.9323
 8695TIP3    H247577   4.214   1.837   0.621 -0.2636  2.5631 -1.1664
 8696TIP3   OH247578   2.218   2.249  16.042  0.5050  0.2757 -0.5031
 8696TIP3    H147579   2.313   2.242  16.029  0.3638 -1.8829 -0.8499
 8696TIP3    H247580   2.180   2.214  15.962 -0.6334  1.8151 -0.6783
 8697TIP3   OH247581   2.735   3.061   5.170  0.1259  1.1155  0.1016
 8697TIP3    H147582   2.795   3.111   5.115 -0.2440  1.9422  0.4319
 8697TIP3    H247583   2.685   3.127   5.218  0.3031  0.4333  1.2904
 8698TIP3   OH247584   1.341   3.626  13.429  0.1641 -0.1836  0.2661
 8698TIP3    H147585   1.411   3.584  13.478 -0.4366 -0.7409  0.6722
 8698TIP3    H247586   1.263   3.616  13.484  0.2308  2.6906  1.0422
 8699TIP3   OH247587   1.260   6.095  13.080  0.0897  0.5296  0.5091
 8699TIP3    H147588   1.344   6.050  13.077  0.2846  0.8649  0.8701
 8699TIP3    H247589   1.198   6.033  13.040  0.6529  0.6081 -0.5209
 8700TIP3   OH247590   3.919   1.656  14.345  0.2924  0.3508  0.1530
 8700TIP3    H147591   3.875   1.659  14.260  1.4990 -0.4060 -0.5234
 8700TIP3    H247592   3.879   1.727  14.395 -0.8225  0.4614 -0.8472
 8701TIP3   OH247593   2.000   1.541   4.619  0.5791  0.5544 -0.7362
 8701TIP3    H147594   2.063   1.584   4.562  0.5752  0.8210 -0.5405
 8701TIP3    H247595   2.038   1.549   4.707  0.8988 -0.4068 -0.7765
 8702TIP3   OH247596   3.625   4.104  13.926 -0.0627  0.5847  0.0613
 8702TIP3    H147597   3.689   4.123  13.858  1.2584 -1.0683  0.7680
 8702TIP3    H247598   3.662   4.143  14.005  0.7048 -1.2983  0.7005
 8703TIP3   OH247599   5.202   0.466   0.410 -0.0813 -0.4033 -0.0447
 8703TIP3    H147600   5.148   0.447   0.333 -0.8711  0.0827  0.3765
 8703TIP3    H247601   5.208   0.382   0.455  0.0786 -0.6095 -0.4430
 8704TIP3   OH247602   2.237   6.151   0.248  0.3146 -0.4487  0.0234
 8704TIP3    H147603   2.161   6.133   0.303 -1.0696  1.6135 -1.0764
 8704TIP3    H247604   2.311   6.150   0.308 -0.9192  0.0709  1.6100
 8705TIP3   OH247605   4.638   0.484  14.945 -0.0096 -0.0258  0.5118
 8705TIP3    H147606   4.662   0.442  14.863 -0.2607  0.0464  0.4012
 8705TIP3    H247607   4.683   0.569  14.943  1.0472 -0.5463  1.0339
 8706TIP3   OH247608   3.528   1.125  16.566  0.3444  0.0653  0.0217
 8706TIP3    H147609   3.579   1.201  16.538  1.4767 -0.5997  0.2330
 8706TIP3    H247610   3.592   1.055  16.574 -0.4781 -0.5883  1.1113
 8707TIP3   OH247611   2.820   4.921  13.973  0.4491  0.3549  0.5816
 8707TIP3    H147612   2.895   4.936  14.029  0.1729 -0.5045  1.2120
 8707TIP3    H247613   2.768   4.856  14.020 -0.4202  0.5442 -0.0894
 8708TIP3   OH247614   0.988   4.357  10.562  0.2735 -0.6334 -0.3212
 8708TIP3    H147615   1.068   4.390  10.521 -0.3087  2.0416  0.4825
 8708TIP3    H247616   0.918   4.410  10.524 -0.5852  0.1263  2.1168
 8709TIP3   OH247617   2.878   0.102  13.870 -0.4251 -0.0400  0.2582
 8709TIP3    H147618   2.947   0.066  13.814  1.0873  0.6009  1.6102
 8709TIP3    H247619   2.852   0.183  13.827 -0.0338 -0.0818 -0.0693
 8710TIP3   OH247620   0.087   5.197   5.041 -0.3551  0.4755 -0.0078
 8710TIP3    H147621   0.034   5.125   5.005  0.4036 -0.3747  0.5195
 8710TIP3    H247622   0.027   5.247   5.096 -0.6902 -0.2950  0.3426
 8711TIP3   OH247623   0.262   3.341  15.738  0.2888  0.1361  0.4540
 8711TIP3    H147624   0.280   3.427  15.775  1.7056  1.0348 -2.0574
 8711TIP3    H247625   0.326   3.283  15.780  1.2796  0.9355  0.0956
 8712TIP3   OH247626   6.537   1.647   1.198  0.0670 -0.0392  0.2659
 8712TIP3    H147627   6.501   1.699   1.270  1.4372  0.2743  0.7695
 8712TIP3    H247628   6.632   1.654   1.210  0.2919 -1.3448 -0.6162
 8713TIP3   OH247629   2.223   4.704   5.007  0.3713 -0.1645 -0.3233
 8713TIP3    H147630   2.266   4.699   4.921  0.1819 -1.6118 -0.3526
 8713TIP3    H247631   2.295   4.704   5.069  0.5435  1.5908 -0.4622
 8714TIP3   OH247632   3.460   5.493  17.028  0.9528 -0.2416 -0.0565
 8714TIP3    H147633   3.553   5.483  17.051  0.6386 -1.0637  0.9650
 8714TIP3    H247634   3.452   5.453  16.941  1.0154 -3.1149  1.1353
 8715TIP3   OH247635   6.260   1.168  13.554 -0.1748 -0.4016 -0.3746
 8715TIP3    H147636   6.293   1.238  13.609  1.3970 -2.2651  1.1878
 8715TIP3    H247637   6.198   1.121  13.609 -0.5160 -0.8074 -1.0853
 8716TIP3   OH247638   6.837   3.161  11.086  0.4713 -0.7749  0.2543
 8716TIP3    H147639   6.862   3.076  11.050 -2.2987 -0.3006 -3.3631
 8716TIP3    H247640   6.851   3.223  11.014  0.8093  1.5709  2.2222
 8717TIP3   OH247641   6.553   2.708   3.981 -0.7236  0.2307 -0.1583
 8717TIP3    H147642   6.512   2.763   3.915 -1.6574 -0.8381 -0.5033
 8717TIP3    H247643   6.611   2.767   4.029 -0.6607  1.2039 -1.3849
 8718TIP3   OH247644   2.063   2.772  12.591 -0.1843 -0.4001 -0.1409
 8718TIP3    H147645   1.976   2.809  12.573  0.3211  1.1950  0.5768
 8718TIP3    H247646   2.044   2.695  12.645 -1.0683  1.8004  2.9313
 8719TIP3   OH247647   6.285   1.318  13.825 -0.3068  0.2635  0.4349
 8719TIP3    H147648   6.240   1.403  13.826 -1.1080 -0.1474  0.6504
 8719TIP3    H247649   6.231   1.262  13.880 -1.0386 -0.9846 -1.4314
 8720TIP3   OH247650   0.941   3.110   0.481 -0.0040 -0.6886 -0.1080
 8720TIP3    H147651   1.014   3.078   0.534 -0.0012 -0.0522  0.2812
 8720TIP3    H247652   0.979   3.182   0.430 -0.6694  0.5410  1.0882
 8721TIP3   OH247653   1.730   1.469  14.766 -0.0542 -0.1907 -0.7744
 8721TIP3    H147654   1.757   1.507  14.850  0.6812  0.8351 -1.4575
 8721TIP3    H247655   1.672   1.396  14.790  0.0396  0.1727  0.6134
 8722TIP3   OH247656   2.627   6.493  11.585 -0.1957 -0.6907 -0.0867
 8722TIP3    H147657   2.652   6.570  11.535  0.1882  0.1192  1.2932
 8722TIP3    H247658   2.545   6.463  11.545  0.3907 -0.4214 -1.5224
 8723TIP3   OH247659   0.216   1.574  11.124  0.0409  0.0606  0.6002
 8723TIP3    H147660   0.205   1.575  11.029  1.1771 -0.3782  0.4505
 8723TIP3    H247661   0.196   1.663  11.152  1.1333  0.5910 -0.2366
 8724TIP3   OH247662   2.802   3.265  15.804 -0.2860 -0.0301 -0.0337
 8724TIP3    H147663   2.803   3.198  15.736  0.0491  0.4334 -0.4987
 8724TIP3    H247664   2.838   3.343  15.761  0.9265 -0.0106  0.9704
 8725TIP3   OH247665   4.102   2.085  12.971 -0.1130  0.2791 -0.6372
 8725TIP3    H147666   4.167   2.121  13.031 -0.2152  1.3250 -1.1314
 8725TIP3    H247667   4.028   2.145  12.977 -0.5245 -0.1783 -1.0361
 8726TIP3   OH247668   5.714   4.620   2.192 -0.5436 -0.0754  0.4396
 8726TIP3    H147669   5.668   4.536   2.188 -0.2073 -0.2115 -1.5001
 8726TIP3    H247670   5.771   4.619   2.116  1.2026  0.9597  1.6601
 8727TIP3   OH247671   6.012   3.738   3.652 -0.8562  0.1344 -0.1628
 8727TIP3    H147672   6.101   3.720   3.623 -0.0597  0.7677  1.7526
 8727TIP3    H247673   5.970   3.652   3.654  0.5177 -0.5673  1.3381
 8728TIP3   OH247674   6.427   0.741  10.809  0.4618 -0.4651 -0.1309
 8728TIP3    H147675   6.348   0.689  10.822  0.7697 -1.0974 -0.7417
 8728TIP3    H247676   6.496   0.677  10.794  1.3880  0.0145  1.7680
 8729TIP3   OH247677   6.811   4.612  14.635  0.2172  0.0220  0.1710
 8729TIP3    H147678   6.857   4.638  14.555 -0.6354 -0.1795 -0.4004
 8729TIP3    H247679   6.770   4.693  14.665 -0.6112 -0.1755 -0.3834
 8730TIP3   OH247680   1.281   2.657  14.664 -0.2042  0.3039 -0.4035
 8730TIP3    H147681   1.301   2.651  14.757 -1.3272 -0.1351 -0.1665
 8730TIP3    H247682   1.309   2.573  14.627 -1.4166 -0.2563 -0.0998
 8731TIP3   OH247683   1.003   6.369   3.064 -0.5036 -0.4265 -0.5169
 8731TIP3    H147684   1.063   6.360   2.990  0.7685  0.8884  0.2925
 8731TIP3    H247685   1.034   6.447   3.110 -0.2794 -2.0334  2.2562
 8732TIP3   OH247686   3.830   5.312   0.080 -0.3044  0.2233  0.0681
 8732TIP3    H147687   3.847   5.250   0.010 -0.4108  1.4966 -1.1212
 8732TIP3    H247688   3.913   5.319   0.127  0.0769  0.1491 -0.5822
 8733TIP3   OH247689   2.544   6.171  15.829 -0.6368  0.2363  0.3251
 8733TIP3    H147690   2.583   6.138  15.748 -3.8696 -1.8139 -0.5973
 8733TIP3    H247691   2.603   6.142  15.898  0.1834 -1.5786 -1.0394
 8734TIP3   OH247692   0.409   5.766  11.200  0.3164  0.3640  0.8777
 8734TIP3    H147693   0.503   5.772  11.184  0.2068 -1.6114 -0.9648
 8734TIP3    H247694   0.378   5.857  11.199  1.9684  0.9555 -0.1194
 8735TIP3   OH247695   2.289   3.164   0.965 -0.1313  0.4431 -0.5313
 8735TIP3    H147696   2.262   3.241   1.015  1.1152  0.8889 -0.5277
 8735TIP3    H247697   2.254   3.180   0.877 -1.7297 -0.0230 -0.0113
 8736TIP3   OH247698   5.675   1.739  15.783 -0.5297 -0.2317 -0.3991
 8736TIP3    H147699   5.643   1.650  15.794  0.2171 -0.6139 -1.1823
 8736TIP3    H247700   5.730   1.754  15.860 -2.3907  0.3822  0.8811
 8737TIP3   OH247701   2.680   0.305   3.582 -0.2844  0.0815 -0.2369
 8737TIP3    H147702   2.771   0.325   3.606 -0.7686  0.3454  1.5172
 8737TIP3    H247703   2.634   0.389   3.589 -1.0959 -0.4467  1.1339
 8738TIP3   OH247704   3.696   5.193   2.829  0.0701 -0.0510 -0.3187
 8738TIP3    H147705   3.753   5.227   2.760 -0.1429 -0.1971 -0.5663
 8738TIP3    H247706   3.691   5.099   2.812  0.6410 -0.2153  0.3541
 8739TIP3   OH247707   5.392   3.067  16.541 -0.4270  0.0707 -0.2766
 8739TIP3    H147708   5.466   3.017  16.508 -1.0927 -1.6247  0.6363
 8739TIP3    H247709   5.318   3.042  16.486 -0.3022  2.0408 -1.4292
 8740TIP3   OH247710   5.052   6.686  11.243  0.4369  0.5397  0.0582
 8740TIP3    H147711   4.994   6.752  11.282  0.4413  0.1038  0.8169
 8740TIP3    H247712   5.082   6.726  11.162 -0.6974  0.8987 -0.2072
 8741TIP3   OH247713   3.638   2.477  12.071  0.3387  0.0260  0.3530
 8741TIP3    H147714   3.600   2.405  12.121 -0.7070  0.4680  0.2209
 8741TIP3    H247715   3.653   2.546  12.136 -3.7522  1.7298 -0.2323
 8742TIP3   OH247716   2.953   0.080   6.387  0.4026  0.4345  0.1016
 8742TIP3    H147717   2.922   0.168   6.409  0.3985  0.3447  0.4642
 8742TIP3    H247718   2.925   0.066   6.297 -1.4456 -0.0119  0.7013
 8743TIP3   OH247719   2.094   2.478  10.270 -0.6630 -0.3772  0.1582
 8743TIP3    H147720   2.062   2.415  10.205  0.6226 -0.9017  0.0014
 8743TIP3    H247721   2.185   2.453  10.285 -0.9694 -0.4118  2.3352
 8744TIP3   OH247722   6.707   4.887  16.497  0.3610  0.6093 -0.6178
 8744TIP3    H147723   6.754   4.854  16.420  1.2977 -0.3226  0.3024
 8744TIP3    H247724   6.626   4.924  16.462 -1.3298 -3.5586 -1.7738
 8745TIP3   OH247725   0.578   5.438  14.286  0.0102  0.4265 -0.7276
 8745TIP3    H147726   0.647   5.448  14.352  0.8277  0.0892 -1.5044
 8745TIP3    H247727   0.551   5.346  14.293 -1.1386  0.8160  0.2990
 8746TIP3   OH247728   2.352   1.504   4.801  0.0877 -0.5691  0.1022
 8746TIP3    H147729   2.344   1.461   4.716  0.7956  3.6865 -2.3930
 8746TIP3    H247730   2.438   1.546   4.799 -0.9290  1.8498  1.7140
 8747TIP3   OH247731   1.975   5.335   1.902  0.2180 -0.2621  0.2769
 8747TIP3    H147732   1.921   5.273   1.854  0.3533 -0.4695  0.3930
 8747TIP3    H247733   1.912   5.391   1.948  0.0435  0.7385 -1.1136
 8748TIP3   OH247734   4.954   3.005   3.867  0.2791 -0.1833  0.3972
 8748TIP3    H147735   4.863   2.989   3.844  0.6372 -0.3795 -1.0289
 8748TIP3    H247736   4.951   3.072   3.935 -0.9196 -0.1749  0.3592
 8749TIP3   OH247737   0.727   2.967   2.780  0.4353 -0.7329 -0.6486
 8749TIP3    H147738   0.783   2.985   2.704  0.7097 -0.9200 -0.4935
 8749TIP3    H247739   0.660   3.035   2.777  1.8711  0.8103  0.3361
 8750TIP3   OH247740   2.008   6.584   1.451 -0.0931  0.0852 -0.8901
 8750TIP3    H147741   1.922   6.554   1.422  0.6370 -1.4671 -1.6215
 8750TIP3    H247742   2.067   6.561   1.379  1.4638 -1.9940  0.8993
 8751TIP3   OH247743   1.644   5.997   3.470  0.0977 -0.0996 -0.8347
 8751TIP3    H147744   1.556   5.978   3.435  0.1326 -0.3659 -0.7789
 8751TIP3    H247745   1.698   5.925   3.437 -0.5751 -2.5144  2.7362
 8752TIP3   OH247746   3.032   4.067   4.787  0.1091 -0.0805 -0.2128
 8752TIP3    H147747   3.034   4.147   4.839 -1.4591 -0.8566  1.1391
 8752TIP3    H247748   2.945   4.030   4.804  0.4771 -1.6231 -1.4972
 8753TIP3   OH247749   4.095   2.139   2.577 -0.1784 -0.2747  0.0150
 8753TIP3    H147750   4.136   2.192   2.646 -1.9290 -1.0730  1.7564
 8753TIP3    H247751   4.164   2.079   2.549  1.2210  1.5098 -0.5342
 8754TIP3   OH247752   5.501   6.083   6.495 -0.1752  0.0365 -0.2826
 8754TIP3    H147753   5.586   6.118   6.470  0.0502 -0.2323  0.1106
 8754TIP3    H247754   5.439   6.153   6.474 -0.0556 -0.3231 -2.0124
 8755TIP3   OH247755   1.351   1.892   2.095  0.7987  0.1169 -0.1309
 8755TIP3    H147756   1.377   1.879   2.186  1.1257 -2.2876 -0.5031
 8755TIP3    H247757   1.416   1.953   2.060  0.9881  0.6438  1.0843
 8756TIP3   OH247758   1.027   3.287   1.214 -0.6767  0.3697 -0.6748
 8756TIP3    H147759   1.075   3.317   1.136  2.4156 -0.7034  0.6565
 8756TIP3    H247760   1.010   3.367   1.264  1.4319  0.6556 -0.3373
 8757TIP3   OH247761   1.712   5.436  13.421  0.7820 -0.8439  0.1400
 8757TIP3    H147762   1.771   5.482  13.480  1.8055  0.8954 -2.0695
 8757TIP3    H247763   1.642   5.499  13.404  0.1534 -1.5663  0.0332
 8758TIP3   OH247764   1.084   0.428   1.506  0.5182  0.1188  0.3324
 8758TIP3    H147765   0.999   0.386   1.494  1.1426 -0.7389 -1.3193
 8758TIP3    H247766   1.064   0.511   1.549 -1.2967  0.5033 -1.1532
 8759TIP3   OH247767   3.809   2.510   4.127  0.5132  0.6504  0.5555
 8759TIP3    H147768   3.900   2.530   4.151  1.0503  0.6286 -1.2593
 8759TIP3    H247769   3.756   2.565   4.184  1.7349  1.7874  0.6491
 8760TIP3   OH247770   5.818   1.945   5.013 -0.0040 -0.6308  0.1784
 8760TIP3    H147771   5.741   1.910   5.058 -0.7193 -1.6467 -1.7434
 8760TIP3    H247772   5.890   1.890   5.043 -0.3913 -1.0276  0.3861
 8761TIP3   OH247773   4.516   5.980   5.371  0.2926 -0.3455  0.0160
 8761TIP3    H147774   4.609   6.000   5.378  0.0933  0.7004 -0.1210
 8761TIP3    H247775   4.508   5.890   5.403  1.5038 -0.8547 -1.0075
 8762TIP3   OH247776   5.485   2.153   3.427 -0.0358 -0.0730  0.6554
 8762TIP3    H147777   5.437   2.202   3.360  1.8952 -0.4610 -1.1320
 8762TIP3    H247778   5.439   2.069   3.433 -1.4994  0.7454  1.4435
 8763TIP3   OH247779   3.508   0.864   1.063  0.5223 -0.2601 -0.0407
 8763TIP3    H147780   3.593   0.874   1.107  0.7107 -0.8900 -0.2454
 8763TIP3    H247781   3.488   0.951   1.029  0.2934  0.2906  1.4190
 8764TIP3   OH247782   0.083   4.901  15.487  0.9287 -0.1019 -0.3809
 8764TIP3    H147783   0.051   4.975  15.435  1.3441  0.0582 -0.4124
 8764TIP3    H247784   0.177   4.899  15.470  1.4602  1.2026  1.9004
 8765TIP3   OH247785   1.615   1.085  11.689  0.7578 -0.3218  0.0984
 8765TIP3    H147786   1.583   1.039  11.611  1.0227 -0.0412 -0.1799
 8765TIP3    H247787   1.634   1.016  11.752  0.2089 -0.5345  0.0417
 8766TIP3   OH247788   1.445   3.848  15.619  0.1324  0.3828 -0.1485
 8766TIP3    H147789   1.374   3.883  15.673 -0.7942  0.0737 -1.1327
 8766TIP3    H247790   1.459   3.760  15.652  0.4810  0.6616  0.4507
 8767TIP3   OH247791   0.397   0.891  12.297  0.1136  0.3316 -0.4729
 8767TIP3    H147792   0.324   0.829  12.298  0.6283 -0.2862 -0.4740
 8767TIP3    H247793   0.472   0.841  12.331  0.1654  1.4231  1.1672
 8768TIP3   OH247794   2.772   0.213  11.780 -0.0002 -0.1459  0.0041
 8768TIP3    H147795   2.786   0.208  11.874 -1.5962 -0.4854  0.2528
 8768TIP3    H247796   2.855   0.183  11.742  0.4226 -0.7127  1.2962
 8769TIP3   OH247797   0.943   3.441  13.927  0.7756 -0.3849 -0.8225
 8769TIP3    H147798   0.914   3.403  13.844 -1.4215 -1.5881  0.3852
 8769TIP3    H247799   0.868   3.492  13.957  0.5054 -1.9987  1.5239
 8770TIP3   OH247800   3.600   3.279  11.877 -0.6171 -0.2796 -0.6456
 8770TIP3    H147801   3.614   3.197  11.924  1.6897 -0.0270 -0.7716
 8770TIP3    H247802   3.513   3.308  11.905 -1.2763 -2.4641 -0.1862
 8771TIP3   OH247803   4.690   1.026   2.145 -0.1749  0.1477  0.3635
 8771TIP3    H147804   4.762   0.977   2.106  0.4185  2.4057 -1.6306
 8771TIP3    H247805   4.613   0.970   2.133  0.5139 -0.4615 -1.4610
 8772TIP3   OH247806   0.319   2.333   3.789 -0.3583  0.5185 -0.2141
 8772TIP3    H147807   0.344   2.271   3.720 -1.6415 -0.5206  0.1999
 8772TIP3    H247808   0.353   2.294   3.869  0.6520  1.4414 -0.1905
 8773TIP3   OH247809   4.313   0.235  16.837 -0.4355  0.1162  0.5375
 8773TIP3    H147810   4.406   0.252  16.821 -0.2082 -1.0011  0.5450
 8773TIP3    H247811   4.268   0.285  16.769  0.3262 -1.4907 -1.2463
 8774TIP3   OH247812   5.228   3.575   2.987  0.0046  0.3940 -0.2963
 8774TIP3    H147813   5.181   3.653   2.958  0.9541  1.0012 -0.2547
 8774TIP3    H247814   5.293   3.607   3.049 -1.0414 -0.7128  1.4641
 8775TIP3   OH247815   4.508   3.802  11.187 -0.0182 -0.1628  0.4804
 8775TIP3    H147816   4.568   3.877  11.191  0.5057 -0.5805  0.6319
 8775TIP3    H247817   4.499   3.783  11.093  1.0381 -0.8359  0.5011
 8776TIP3   OH247818   4.613   5.566   2.157  0.9405 -0.3539 -0.4405
 8776TIP3    H147819   4.576   5.506   2.222 -1.1003  1.3126  0.0612
 8776TIP3    H247820   4.565   5.546   2.076  0.5065  0.3211 -0.3601
 8777TIP3   OH247821   2.163   5.348   4.879 -0.1107  0.5284 -0.3150
 8777TIP3    H147822   2.222   5.320   4.949 -1.8942  0.8866  1.4354
 8777TIP3    H247823   2.108   5.271   4.862 -1.4207  1.2008  0.6325
 8778TIP3   OH247824   0.884   3.490  12.582  0.4592  0.0165  1.0983
 8778TIP3    H147825   0.890   3.404  12.623  0.5777 -0.0024  1.0412
 8778TIP3    H247826   0.790   3.510  12.582  0.5424  0.4423  2.2381
 8779TIP3   OH247827   3.701   1.115   2.225  0.5248  0.1002 -0.2028
 8779TIP3    H147828   3.783   1.068   2.242 -0.5441 -1.4701  0.8432
 8779TIP3    H247829   3.678   1.153   2.309 -0.6461 -0.8668 -0.0594
 8780TIP3   OH247830   6.099   2.119   3.807 -0.4511 -0.0206  0.3036
 8780TIP3    H147831   6.057   2.151   3.727 -0.2608  0.0223  0.2209
 8780TIP3    H247832   6.141   2.037   3.781 -1.6406 -0.7898  0.7049
 8781TIP3   OH247833   4.084   2.990  14.674 -0.1741  0.0319  0.1272
 8781TIP3    H147834   4.010   2.961  14.621  0.0017  0.2390 -0.2366
 8781TIP3    H247835   4.161   2.963  14.623  0.0017  1.7719 -0.5960
 8782TIP3   OH247836   0.633   5.002   2.004 -0.0139 -0.3334 -0.6363
 8782TIP3    H147837   0.638   5.092   1.972  0.7529 -0.3685 -0.6256
 8782TIP3    H247838   0.719   4.965   1.987  0.1685 -0.6048  0.7293
 8783TIP3   OH247839   1.474   0.452  13.441  0.4192  0.2725  0.1636
 8783TIP3    H147840   1.438   0.540  13.451  2.7147  1.1930  0.9712
 8783TIP3    H247841   1.529   0.457  13.363  0.8626 -0.3390  0.4293
 8784TIP3   OH247842   4.580   0.166  11.527 -0.2131 -0.1480 -0.5126
 8784TIP3    H147843   4.660   0.217  11.543  0.1742 -1.3306  1.8863
 8784TIP3    H247844   4.510   0.220  11.561  0.0283 -0.5379  0.6673
 8785TIP3   OH247845   3.196   0.279   5.722 -0.0652  0.4360  0.2767
 8785TIP3    H147846   3.159   0.281   5.810  0.0677  2.0696  0.3220
 8785TIP3    H247847   3.121   0.288   5.664 -0.0071  1.0552  0.2886
 8786TIP3   OH247848   6.059   3.970   0.582  0.5737 -0.0467 -0.1702
 8786TIP3    H147849   5.996   3.900   0.599  0.0332  0.7425  1.2692
 8786TIP3    H247850   6.015   4.049   0.612  2.0783  0.5941  0.4249
 8787TIP3   OH247851   1.406   0.376  16.654 -0.2705 -0.2783 -0.1024
 8787TIP3    H147852   1.476   0.431  16.618  0.8885 -0.1885  2.1475
 8787TIP3    H247853   1.435   0.286  16.636 -0.2303 -0.2259 -0.3068
 8788TIP3   OH247854   3.514   2.844  11.254  0.0335 -0.6012  0.0839
 8788TIP3    H147855   3.428   2.885  11.263  0.6254  0.5256  0.8892
 8788TIP3    H247856   3.563   2.903  11.196  0.8468 -0.2417  1.1129
 8789TIP3   OH247857   6.429   3.585  12.336 -0.0344  0.6291  0.0269
 8789TIP3    H147858   6.425   3.496  12.370  2.5257  0.4367 -0.0204
 8789TIP3    H247859   6.351   3.593  12.282 -1.3370 -0.9067  1.5553
 8790TIP3   OH247860   2.258   0.653  12.515 -0.2876 -0.6745 -0.0580
 8790TIP3    H147861   2.304   0.610  12.588  0.5657  1.9543  1.0749
 8790TIP3    H247862   2.314   0.636  12.439  0.1253 -1.3680  0.3819
 8791TIP3   OH247863   1.122   0.756  14.088  0.3879  0.3534  0.0455
 8791TIP3    H147864   1.083   0.679  14.130  1.3597 -1.3430 -1.9682
 8791TIP3    H247865   1.216   0.742  14.094  0.6297  1.8683  0.3869
 8792TIP3   OH247866   5.872   1.589  15.520  0.1584  0.1784 -0.2333
 8792TIP3    H147867   5.947   1.639  15.551  0.4205 -0.1339 -0.3532
 8792TIP3    H247868   5.909   1.503  15.497 -0.3832 -0.2810  0.5643
 8793TIP3   OH247869   6.249   5.239  16.838 -0.0321 -0.0943 -0.9588
 8793TIP3    H147870   6.162   5.280  16.835 -0.3267 -0.5714  0.5660
 8793TIP3    H247871   6.232   5.145  16.830  0.2732 -0.2434 -0.0180
 8794TIP3   OH247872   2.996   0.776  15.284  0.6045 -0.3829  0.6313
 8794TIP3    H147873   2.930   0.752  15.219  2.3570  1.2177 -1.9267
 8794TIP3    H247874   2.962   0.855  15.326 -0.1361 -0.9132  1.0464
 8795TIP3   OH247875   2.228   3.792   4.548 -0.0579 -0.6917 -0.1336
 8795TIP3    H147876   2.207   3.740   4.626 -0.1259  0.3023  0.5386
 8795TIP3    H247877   2.249   3.878   4.583  0.0653 -0.2714 -1.2200
 8796TIP3   OH247878   3.619   0.280  16.517  0.1428 -0.6699  0.4255
 8796TIP3    H147879   3.631   0.304  16.426 -1.6913  0.0343  0.3367
 8796TIP3    H247880   3.644   0.188  16.522 -1.2681 -1.1746 -1.1470
 8797TIP3   OH247881   3.860   4.811   4.537  0.4182 -0.0759 -0.3275
 8797TIP3    H147882   3.808   4.811   4.617  0.1114 -2.0272 -0.4952
 8797TIP3    H247883   3.799   4.788   4.468  1.0682 -0.2822 -0.8484
 8798TIP3   OH247884   4.591   5.400  13.146  0.1238 -0.2363  0.5671
 8798TIP3    H147885   4.541   5.368  13.071 -0.6710  0.0268  0.9647
 8798TIP3    H247886   4.666   5.445  13.108  0.5517 -1.4046 -0.0247
 8799TIP3   OH247887   2.683   4.392   6.511 -0.3359 -0.6907  0.4868
 8799TIP3    H147888   2.691   4.311   6.462  0.1101 -1.8211  2.3194
 8799TIP3    H247889   2.596   4.387   6.552 -0.6258  0.1383  0.0024
 8800TIP3   OH247890   1.693   4.952  14.105 -0.5964  0.7653 -0.4993
 8800TIP3    H147891   1.773   4.998  14.132  0.7654 -1.3868 -0.6769
 8800TIP3    H247892   1.704   4.936  14.012 -1.8201  1.4743 -0.7967
 8801TIP3   OH247893   2.614   4.127  13.501 -0.2012 -0.4100  0.2043
 8801TIP3    H147894   2.680   4.145  13.433 -0.6611 -0.7052 -0.3282
 8801TIP3    H247895   2.558   4.059  13.462 -1.3113  0.4113  0.3220
 8802TIP3   OH247896   1.512   4.935   3.832 -0.4597 -0.0803 -0.2282
 8802TIP3    H147897   1.586   4.933   3.771  0.8771  2.2696  1.1803
 8802TIP3    H247898   1.552   4.938   3.918 -2.2852 -1.1832  0.7272
 8803TIP3   OH247899   6.554   0.053  13.388 -0.0812  0.7224  0.0716
 8803TIP3    H147900   6.485  -0.012  13.375  0.8570 -0.0075 -1.5069
 8803TIP3    H247901   6.508   0.137  13.390 -1.2335  0.0945  1.3961
 8804TIP3   OH247902   2.036   1.174  16.884  0.1047  0.2247 -1.3674
 8804TIP3    H147903   2.125   1.144  16.865  0.8857  0.4494  1.5627
 8804TIP3    H247904   2.034   1.188  16.978 -2.7131  1.4067 -1.4941
 8805TIP3   OH247905   6.163   1.507  12.254 -0.5503  0.0082  0.8110
 8805TIP3    H147906   6.079   1.475  12.223 -1.0472  1.2427  0.8148
 8805TIP3    H247907   6.160   1.496  12.349 -0.3206 -0.8109  0.7292
 8806TIP3   OH247908   0.902   1.126  12.756 -0.3192  0.3609  0.1235
 8806TIP3    H147909   0.951   1.208  12.746 -1.2731  1.1357  1.4915
 8806TIP3    H247910   0.957   1.071  12.811  0.3483  0.0282 -0.8405
 8807TIP3   OH247911   5.870   5.425  14.501 -0.0377  0.2441 -0.4610
 8807TIP3    H147912   5.790   5.469  14.529  0.6126  1.8330 -0.9749
 8807TIP3    H247913   5.883   5.456  14.411  0.1330 -1.5124 -1.0854
 8808TIP3   OH247914   0.904   0.475   0.589  0.1675 -0.1126  0.3612
 8808TIP3    H147915   0.848   0.553   0.584 -0.2935 -0.4804 -3.0238
 8808TIP3    H247916   0.876   0.430   0.668 -1.0403  2.0871  1.2677
 8809TIP3   OH247917   0.734   2.510   5.632 -0.1697 -0.4530  0.6482
 8809TIP3    H147918   0.757   2.503   5.725 -0.6512 -0.9713  0.7338
 8809TIP3    H247919   0.817   2.526   5.588  0.0475 -0.0799  1.1786
 8810TIP3   OH247920   1.198   2.705   0.794 -0.5255 -0.1285  0.1514
 8810TIP3    H147921   1.151   2.628   0.826 -0.3244 -0.2160  0.2347
 8810TIP3    H247922   1.289   2.690   0.818 -0.6212  0.5529  0.9611
 8811TIP3   OH247923   0.201   4.190  14.674  0.1415 -0.5734  0.2281
 8811TIP3    H147924   0.185   4.173  14.767 -0.4003  1.0913  0.4576
 8811TIP3    H247925   0.280   4.139  14.654 -1.2006 -3.0806  0.8931
 8812TIP3   OH247926   5.165   6.501   6.071  0.6814  0.1767  0.0008
 8812TIP3    H147927   5.207   6.570   6.021 -0.0337 -1.1449 -2.6107
 8812TIP3    H247928   5.205   6.420   6.039  0.2911 -0.7476  1.7109
 8813TIP3   OH247929   6.762   2.512   2.442  0.1727  0.2969 -0.3545
 8813TIP3    H147930   6.667   2.508   2.441  0.2007 -0.5366 -0.6834
 8813TIP3    H247931   6.785   2.587   2.387 -0.2878  0.4878 -0.2850
 8814TIP3   OH247932   3.945   3.899  16.527 -0.2615 -0.0783  0.0432
 8814TIP3    H147933   3.880   3.836  16.557 -0.3662 -1.3166 -2.5058
 8814TIP3    H247934   4.017   3.892  16.590 -0.6949 -2.0472  0.3756
 8815TIP3   OH247935   1.223   2.005   0.781  0.3742  0.7004  0.7738
 8815TIP3    H147936   1.262   1.919   0.797 -1.3919  0.1275  2.3110
 8815TIP3    H247937   1.225   2.016   0.686  0.2583 -1.2008  0.5272
 8816TIP3   OH247938   4.173   4.567  12.583  0.0401  0.0919  0.1160
 8816TIP3    H147939   4.148   4.634  12.647 -1.3741 -0.9302  0.7075
 8816TIP3    H247940   4.144   4.485  12.623  0.4655 -0.7281 -1.2004
 8817TIP3   OH247941   5.986   5.385  16.016  0.2718 -0.1412 -0.1180
 8817TIP3    H147942   6.042   5.340  16.079  0.3068 -0.8019 -0.6186
 8817TIP3    H247943   5.954   5.462  16.064  0.0942 -0.7626  0.7987
 8818TIP3   OH247944   6.828   0.452  16.838 -0.6815 -0.4757  0.1783
 8818TIP3    H147945   6.878   0.493  16.909 -1.0060 -0.6354  0.5006
 8818TIP3    H247946   6.895   0.420  16.778 -0.3877 -0.8347  0.6844
 8819TIP3   OH247947   4.564   6.707  12.815 -0.4279  0.2677 -0.4268
 8819TIP3    H147948   4.625   6.654  12.866  1.8943  0.9200 -2.3383
 8819TIP3    H247949   4.563   6.792  12.859  1.5012  0.8030 -1.3122
 8820TIP3   OH247950   3.318   1.605  16.634  0.1771  0.1041  0.2697
 8820TIP3    H147951   3.305   1.510  16.632 -1.0932  0.2458  0.7681
 8820TIP3    H247952   3.368   1.621  16.714 -1.7403  0.0535  1.5287
 8821TIP3   OH247953   6.139   1.562   0.888 -0.2645  0.2281 -0.5200
 8821TIP3    H147954   6.161   1.606   0.970 -1.8834  0.8126 -0.3583
 8821TIP3    H247955   6.049   1.590   0.869 -1.4359 -2.9621 -0.4147
 8822TIP3   OH247956   0.850   1.507  16.442  0.0110 -0.2759 -0.4038
 8822TIP3    H147957   0.925   1.564  16.460 -0.7829  0.7847 -0.3568
 8822TIP3    H247958   0.820   1.480  16.529  1.0628 -1.7309 -0.4448
 8823TIP3   OH247959   4.137   6.302   5.607 -0.6657 -0.0110  0.0577
 8823TIP3    H147960   4.063   6.299   5.668  1.2899 -0.1970  2.5564
 8823TIP3    H247961   4.157   6.395   5.599 -0.5516 -0.0255  0.1734
 8824TIP3   OH247962   5.137   1.279  14.735  0.1085  0.1789 -0.0493
 8824TIP3    H147963   5.092   1.286  14.819  2.1074  2.6040  0.9530
 8824TIP3    H247964   5.165   1.368  14.715  2.3995 -0.7933 -1.7271
 8825TIP3   OH247965   5.300   3.887   0.761 -0.1425 -0.1879 -0.1514
 8825TIP3    H147966   5.364   3.929   0.818 -1.0271 -0.3985  1.0279
 8825TIP3    H247967   5.277   3.956   0.698 -0.0803  0.4650  0.5179
 8826TIP3   OH247968   0.457   1.629   3.247 -0.0782 -0.1810  0.4348
 8826TIP3    H147969   0.437   1.539   3.272  0.2840 -0.4319 -0.1628
 8826TIP3    H247970   0.375   1.663   3.213 -0.5798  0.1622  1.9119
 8827TIP3   OH247971   1.771   0.545  13.643 -0.0847 -0.1135  0.0385
 8827TIP3    H147972   1.795   0.589  13.724  1.9092 -0.1629 -0.4770
 8827TIP3    H247973   1.763   0.615  13.578  1.0620 -0.2813 -0.3138
 8828TIP3   OH247974   3.663   5.883   0.466  0.6027 -0.1496  0.0915
 8828TIP3    H147975   3.706   5.798   0.480  1.2194 -0.0271 -0.9186
 8828TIP3    H247976   3.613   5.898   0.546  1.1905 -1.0498  0.6550
 8829TIP3   OH247977   3.855   6.284   3.544 -0.0446 -0.2579  0.2669
 8829TIP3    H147978   3.788   6.291   3.612  0.8094 -0.5350  1.1404
 8829TIP3    H247979   3.925   6.232   3.583  0.4207 -0.5085 -0.8560
 8830TIP3   OH247980   5.647   1.276   4.243 -0.2744  0.4519 -0.3688
 8830TIP3    H147981   5.605   1.331   4.177  0.1606  1.4680  0.1827
 8830TIP3    H247982   5.672   1.337   4.313  1.3884 -0.2362 -0.3139
 8831TIP3   OH247983   2.751   0.727   3.497 -0.7194  0.0927 -0.1905
 8831TIP3    H147984   2.807   0.707   3.422 -1.1645  2.3976 -1.2243
 8831TIP3    H247985   2.757   0.822   3.507 -1.0026 -0.0892  2.4796
 8832TIP3   OH247986   1.303   3.190  11.952  0.8134 -0.2404  0.1912
 8832TIP3    H147987   1.376   3.128  11.940  0.4254 -0.5573 -0.5905
 8832TIP3    H247988   1.344   3.267  11.991  1.8621  0.1615 -1.5989
 8833TIP3   OH247989   4.149   0.257  11.232  0.7934  1.0640 -0.4347
 8833TIP3    H147990   4.242   0.248  11.254  1.3134  1.1975 -2.3617
 8833TIP3    H247991   4.131   0.351  11.241  0.3428  0.8416  1.5705
 8834TIP3   OH247992   6.149   5.926   4.107  0.4360  0.0252 -0.3878
 8834TIP3    H147993   6.103   5.891   4.030  0.6174 -0.2888 -0.3565
 8834TIP3    H247994   6.101   6.006   4.129  1.2018  0.8850 -1.6606
 8835TIP3   OH247995   1.545   6.187   1.286  0.3027 -0.3040 -0.5547
 8835TIP3    H147996   1.590   6.250   1.230  1.6629 -0.0780  0.7240
 8835TIP3    H247997   1.452   6.195   1.262  0.6124  1.1924 -1.3757
 8836TIP3   OH247998   1.576   1.472   4.241  0.0978  0.2303 -0.0442
 8836TIP3    H147999   1.529   1.395   4.273  0.2978  1.3188  3.1630
 8836TIP3    H248000   1.616   1.442   4.159 -0.9431 -2.6520  0.3728
 8837TIP3   OH248001   1.962   1.640   2.321 -0.1576  0.4496 -0.3063
 8837TIP3    H148002   1.948   1.647   2.226 -0.5242 -1.4851 -0.4487
 8837TIP3    H248003   1.997   1.552   2.333  0.7275  0.9783  1.2957
 8838TIP3   OH248004   4.268   2.726  12.261 -0.5308 -0.2715  0.5136
 8838TIP3    H148005   4.254   2.634  12.237  0.7505 -0.0961 -1.0512
 8838TIP3    H248006   4.305   2.723  12.348 -1.4073 -1.1739  0.8740
 8839TIP3   OH248007   1.148   1.254   4.679 -0.3416 -0.4466  0.4060
 8839TIP3    H148008   1.142   1.167   4.640  1.8446 -0.2027 -0.6019
 8839TIP3    H248009   1.236   1.258   4.717 -0.4230  1.2999  0.4971
 8840TIP3   OH248010   3.945   1.390  12.189  0.3932  0.2919  0.0111
 8840TIP3    H148011   3.990   1.471  12.214 -1.3258  1.5672 -0.7866
 8840TIP3    H248012   4.009   1.321  12.206  1.4423  1.6615  2.0325
 8841TIP3   OH248013   4.692   1.184  11.621  0.5757 -0.0911  0.3956
 8841TIP3    H148014   4.709   1.269  11.580  2.3226  0.5357  2.2440
 8841TIP3    H248015   4.604   1.191  11.657  1.1456  1.4345  1.5831
 8842TIP3   OH248016   2.574   1.117  14.831 -0.0075 -0.4687  0.0522
 8842TIP3    H148017   2.515   1.151  14.764 -2.6395 -1.8160  1.5194
 8842TIP3    H248018   2.636   1.062  14.782 -0.6163  0.1241 -1.4573
 8843TIP3   OH248019   0.525   3.442   1.295  0.1486  0.3824  0.5644
 8843TIP3    H148020   0.460   3.375   1.314  1.4211 -0.6962  1.2969
 8843TIP3    H248021   0.480   3.504   1.237 -0.4258 -2.2722 -2.0092
 8844TIP3   OH248022   6.648   3.003   1.085 -0.1954 -0.1768 -0.3960
 8844TIP3    H148023   6.560   3.005   1.047 -0.4877  1.2444  0.3277
 8844TIP3    H248024   6.637   3.033   1.175  0.6680 -2.3965  0.5418
 8845TIP3   OH248025   1.079   3.002  13.639 -0.0641  0.2950 -0.6431
 8845TIP3    H148026   1.119   2.931  13.690  0.4166  0.6191 -0.5599
 8845TIP3    H248027   1.148   3.068  13.633 -0.0448  0.1863 -1.8829
 8846TIP3   OH248028   5.080   6.776   3.174 -0.2373  0.7869 -0.1121
 8846TIP3    H148029   5.089   6.857   3.124 -0.1479  1.5446  1.0989
 8846TIP3    H248030   5.168   6.758   3.207 -0.3400  0.4132 -0.0413
 8847TIP3   OH248031   1.874   1.184   3.588  0.0453  0.2392  0.1475
 8847TIP3    H148032   1.785   1.165   3.617 -0.3812  0.2594 -1.0826
 8847TIP3    H248033   1.930   1.133   3.647 -0.8893 -1.9153 -0.7310
 8848TIP3   OH248034   1.223   3.298   2.293  0.1840 -0.3842 -0.2914
 8848TIP3    H148035   1.292   3.234   2.311 -1.3717 -2.5159 -1.3291
 8848TIP3    H248036   1.179   3.309   2.377  0.2846 -0.9373 -0.1603
 8849TIP3   OH248037   6.053   1.729   5.902  0.6145 -0.1126 -0.3835
 8849TIP3    H148038   6.089   1.777   5.828  1.0690 -0.4070 -0.3561
 8849TIP3    H248039   5.958   1.730   5.888  0.7136 -0.3305 -1.0671
 8850TIP3   OH248040   6.285   2.656  15.956 -0.6671  0.4689  0.0565
 8850TIP3    H148041   6.248   2.739  15.928  0.3125  0.9091  0.0159
 8850TIP3    H248042   6.310   2.670  16.048 -1.1945 -0.0350  0.2896
 8851TIP3   OH248043   2.998   5.117  13.238  0.6463 -0.2455  0.0137
 8851TIP3    H148044   2.988   5.115  13.333  1.5449 -1.6822  0.0973
 8851TIP3    H248045   3.054   5.193  13.222  0.4184  0.0592  0.6099
 8852TIP3   OH248046   0.358   5.299  10.937  0.2562  0.2251  0.2612
 8852TIP3    H148047   0.454   5.294  10.942  0.2415  0.8121  1.1838
 8852TIP3    H248048   0.334   5.226  10.878  1.4190  1.5012 -1.9420
 8853TIP3   OH248049   0.183   4.793  14.626 -0.3570 -0.2809  0.4265
 8853TIP3    H148050   0.243   4.779  14.552 -1.6123  1.0907 -0.9222
 8853TIP3    H248051   0.182   4.710  14.673  1.6293 -0.7107 -0.2271
 8854TIP3   OH248052   3.256   2.739   3.009  0.6270  0.4030 -0.3986
 8854TIP3    H148053   3.162   2.744   2.994  0.6859  0.2346 -0.8623
 8854TIP3    H248054   3.278   2.647   2.991  0.8201  0.3568  0.0606
 8855TIP3   OH248055   3.716   2.263   4.116  0.2679  0.1667 -0.9211
 8855TIP3    H148056   3.760   2.340   4.151  0.7828  1.1238 -3.4927
 8855TIP3    H248057   3.787   2.201   4.098 -0.0592 -0.5952  0.2804
 8856TIP3   OH248058   6.801   2.962  15.500 -0.8765  0.0136  0.1249
 8856TIP3    H148059   6.789   2.867  15.508  0.6338 -0.1725  0.4760
 8856TIP3    H248060   6.844   2.987  15.582  0.0561  0.7557 -0.5790
 8857TIP3   OH248061   1.210   5.608  11.634 -0.1343 -0.0051 -0.9242
 8857TIP3    H148062   1.142   5.618  11.701  0.6211 -2.0128  0.2464
 8857TIP3    H248063   1.166   5.626  11.552 -1.5808  0.6819 -0.0421
 8858TIP3   OH248064   3.573   3.822   4.190  0.2119  0.1393 -0.8139
 8858TIP3    H148065   3.551   3.889   4.255  0.0441 -0.0827 -0.6382
 8858TIP3    H248066   3.546   3.739   4.231 -0.1593  0.0222 -1.2816
 8859TIP3   OH248067   6.052   2.609  17.068  0.8217  0.3113  0.1430
 8859TIP3    H148068   6.011   2.556  16.999  1.4772  0.5417 -0.4356
 8859TIP3    H248069   6.006   2.584  17.148  0.2631 -0.1958 -0.3284
 8860TIP3   OH248070   5.594   2.186   5.775  0.2867 -0.1231  0.2079
 8860TIP3    H148071   5.674   2.226   5.809  0.5259 -1.4537  1.3134
 8860TIP3    H248072   5.624   2.121   5.711  0.1414 -0.7872  0.7905
 8861TIP3   OH248073   4.307   2.752  14.833  0.4013  0.5994  0.3361
 8861TIP3    H148074   4.235   2.763  14.896 -1.1457 -1.4909 -0.9309
 8861TIP3    H248075   4.377   2.808  14.866 -0.3918 -0.2524  3.8053
 8862TIP3   OH248076   3.192   3.905   5.381 -0.1274 -0.2375 -0.2978
 8862TIP3    H148077   3.267   3.963   5.372  0.2916 -1.0317 -2.6246
 8862TIP3    H248078   3.225   3.831   5.432  0.3135 -0.0538 -0.3125
 8863TIP3   OH248079   3.371   0.020   2.842 -0.3737  0.3993  0.3569
 8863TIP3    H148080   3.422   0.022   2.761 -0.0143 -1.7814  0.4770
 8863TIP3    H248081   3.284  -0.009   2.815 -0.3114 -0.1355  0.7041
 8864TIP3   OH248082   3.004   1.171   1.960 -0.1812 -0.2320 -0.5775
 8864TIP3    H148083   2.950   1.224   2.019 -0.6719 -0.7988 -0.5043
 8864TIP3    H248084   2.941   1.126   1.903  0.1921 -1.1150 -0.3163
 8865TIP3   OH248085   3.294   2.837   5.626  0.4213 -0.4403 -0.5118
 8865TIP3    H148086   3.280   2.924   5.661 -0.8171 -0.4010 -1.0572
 8865TIP3    H248087   3.385   2.837   5.595  0.8891  0.1568  0.8329
 8866TIP3   OH248088   1.224   0.286  11.875  0.7273  0.3508 -0.0547
 8866TIP3    H148089   1.179   0.215  11.828  1.2076  0.1242 -0.1714
 8866TIP3    H248090   1.251   0.346  11.805  0.8554  0.3457 -0.0098
 8867TIP3   OH248091   1.138   1.650   2.514 -0.2703  0.8312  0.3066
 8867TIP3    H148092   1.134   1.620   2.424  0.3746  0.4788  0.3865
 8867TIP3    H248093   1.152   1.745   2.507  1.7277  0.5659 -0.0124
 8868TIP3   OH248094   2.595   2.361  13.306 -0.0612  0.1107 -0.5187
 8868TIP3    H148095   2.529   2.429  13.291 -0.5611 -0.2822 -0.1339
 8868TIP3    H248096   2.620   2.371  13.397 -2.0807 -1.8677  0.3595
 8869TIP3   OH248097   4.808   5.053  10.577 -0.1268 -0.1794  0.2590
 8869TIP3    H148098   4.866   5.125  10.602  0.4161 -0.9733  1.3766
 8869TIP3    H248099   4.733   5.096  10.536  0.4354  0.9799  0.4002
 8870TIP3   OH248100   4.272   2.481  14.409  0.1246 -0.4711  0.3234
 8870TIP3    H148101   4.317   2.452  14.330 -0.4387 -0.1725 -0.1155
 8870TIP3    H248102   4.203   2.539  14.377  0.0931 -0.0953  1.0588
 8871TIP3   OH248103   3.804   4.006  16.297  0.6433 -0.5420  0.4269
 8871TIP3    H148104   3.837   3.946  16.230  3.2910  0.2248  0.9310
 8871TIP3    H248105   3.839   3.972  16.379 -0.4414 -0.0436  1.1112
 8872TIP3   OH248106   2.723   0.446   4.493  0.6656  0.5455  0.3768
 8872TIP3    H148107   2.750   0.526   4.538  1.1823  0.0128  1.0266
 8872TIP3    H248108   2.674   0.478   4.417  0.2840  1.4742  0.9780
 8873TIP3   OH248109   0.063   5.250  13.016 -0.2462  0.4573  0.3303
 8873TIP3    H148110   0.109   5.334  13.005  0.7852 -0.2555 -1.2596
 8873TIP3    H248111  -0.030   5.273  13.013  0.0146  1.6600  1.0185
 8874TIP3   OH248112   4.738   5.495  15.385  0.0261  0.0259 -0.6269
 8874TIP3    H148113   4.751   5.491  15.480 -0.1810 -1.2552 -0.6210
 8874TIP3    H248114   4.645   5.473  15.374  0.0119  0.3304 -1.1147
 8875TIP3   OH248115   1.549   6.123  15.309 -0.4579  0.8183  0.4320
 8875TIP3    H148116   1.584   6.076  15.385  0.2884 -0.9778 -0.9382
 8875TIP3    H248117   1.472   6.168  15.342 -0.9753 -1.0740  1.9712
 8876TIP3   OH248118   1.298   5.841  14.306  0.1502 -0.4691 -0.2718
 8876TIP3    H148119   1.325   5.928  14.275  1.1293 -1.5164 -2.5214
 8876TIP3    H248120   1.244   5.805  14.235 -1.1845 -1.3173  1.0942
 8877TIP3   OH248121   1.077   0.323   4.488 -0.3392  0.1212 -0.0556
 8877TIP3    H148122   1.079   0.321   4.393  1.4632 -1.6337 -0.0464
 8877TIP3    H248123   0.997   0.370   4.510 -0.2722  1.4552 -2.4153
 8878TIP3   OH248124   2.263   6.569  15.989 -0.9730  0.3054  0.3322
 8878TIP3    H148125   2.352   6.561  15.955 -1.1891  0.3567 -0.2537
 8878TIP3    H248126   2.219   6.625  15.926 -1.2287  0.8678  0.9964
 8879TIP3   OH248127   5.413   0.339   1.281  0.1876  0.2058  0.6252
 8879TIP3    H148128   5.376   0.325   1.369  3.0250 -2.9592  1.5599
 8879TIP3    H248129   5.505   0.314   1.290  0.9312  1.0553 -3.0116
 8880TIP3   OH248130   6.500   3.771   2.446 -0.0024 -0.4721  0.3686
 8880TIP3    H148131   6.493   3.826   2.524 -1.5746 -0.9052  0.5573
 8880TIP3    H248132   6.502   3.833   2.373  0.8197 -0.0920  0.6962
 8881TIP3   OH248133   4.195   4.319  11.317  0.2824 -0.3693  0.5519
 8881TIP3    H148134   4.187   4.254  11.247 -0.9147 -1.3442  1.5606
 8881TIP3    H248135   4.176   4.402  11.274 -0.5604 -0.9698 -0.2606
 8882TIP3   OH248136   1.882   0.984  15.874 -0.5060  0.1149 -0.6495
 8882TIP3    H148137   1.952   0.994  15.809  0.3310  0.0022  0.2060
 8882TIP3    H248138   1.871   0.889  15.882  2.4364 -0.1689  2.4202
 8883TIP3   OH248139   5.553   1.652  13.311  0.2480  0.2312  0.0035
 8883TIP3    H148140   5.463   1.665  13.280  0.2157  0.2980  0.1243
 8883TIP3    H248141   5.586   1.740  13.326  0.8621  0.2852 -1.5175
 8884TIP3   OH248142   3.945   3.616   5.526  0.5727  0.1851 -0.2802
 8884TIP3    H148143   3.891   3.582   5.454  1.2802  0.1663 -0.8116
 8884TIP3    H248144   4.035   3.595   5.500  0.9422  1.4821 -0.1011
 8885TIP3   OH248145   2.896   3.492   5.224 -0.2780 -0.2781 -0.0549
 8885TIP3    H148146   2.922   3.584   5.219  1.3826 -0.7469 -0.7166
 8885TIP3    H248147   2.833   3.481   5.153 -1.9684  0.7503  1.2055
 8886TIP3   OH248148   5.762   0.386   5.165  0.1030  0.4560  0.2635
 8886TIP3    H148149   5.745   0.330   5.241 -0.0369  1.1485  0.7573
 8886TIP3    H248150   5.814   0.332   5.106  1.1713  0.2707  1.3394
 8887TIP3   OH248151   2.646   0.575  14.133  0.0096  0.1235  0.0217
 8887TIP3    H148152   2.708   0.626  14.081  1.6541 -1.0726  0.7253
 8887TIP3    H248153   2.699   0.538  14.204 -1.8386  0.3674  1.6091
 8888TIP3   OH248154   3.677   0.013  14.039  0.3282 -0.4192 -0.0114
 8888TIP3    H148155   3.735  -0.034  13.979  0.0485  1.0208 -1.4788
 8888TIP3    H248156   3.729   0.089  14.068 -0.0832 -0.2711  0.3463
 8889TIP3   OH248157   6.682   3.774  14.073 -0.0891  0.5321  0.1877
 8889TIP3    H148158   6.606   3.762  14.130  0.5427 -1.5009  0.6662
 8889TIP3    H248159   6.726   3.852  14.108 -1.1059  0.8387  0.8450
 8890TIP3   OH248160   2.765   2.253   0.081 -0.0570  0.3467 -0.0903
 8890TIP3    H148161   2.702   2.308   0.034  0.3088  2.1852  1.4046
 8890TIP3    H248162   2.795   2.309   0.154  2.0989 -1.0363  0.1776
 8891TIP3   OH248163   0.375   3.091   4.135  0.3569  0.0573  0.0402
 8891TIP3    H148164   0.385   3.049   4.049 -0.9589  0.7798 -0.4996
 8891TIP3    H248165   0.306   3.156   4.122 -0.4482 -0.3700  1.8570
 8892TIP3   OH248166   4.572   3.414   4.385 -1.2756 -0.3213  0.0665
 8892TIP3    H148167   4.548   3.507   4.384  1.1352  0.3950 -1.5201
 8892TIP3    H248168   4.605   3.399   4.474  0.0390  0.9008 -0.1781
 8893TIP3   OH248169   2.799   6.579  13.298 -0.3182 -1.0125  0.7097
 8893TIP3    H148170   2.879   6.632  13.299 -0.4694 -0.7449 -0.6125
 8893TIP3    H248171   2.741   6.624  13.237 -1.0736 -1.8026  0.8297
 8894TIP3   OH248172   6.593   0.852  15.386  0.2118  0.1713  0.2559
 8894TIP3    H148173   6.594   0.786  15.455  0.4555 -1.0776 -0.9015
 8894TIP3    H248174   6.503   0.853  15.355  0.2385  0.2835  0.1811
 8895TIP3   OH248175   5.657   3.250  14.586 -0.1145  0.3473 -0.1502
 8895TIP3    H148176   5.714   3.194  14.533 -0.4467 -0.0463 -0.1001
 8895TIP3    H248177   5.619   3.311  14.523 -1.3383 -0.8003 -0.5805
 8896TIP3   OH248178   2.629   3.909  14.865 -0.1019 -0.1028  0.5328
 8896TIP3    H148179   2.569   3.962  14.811  1.2383  0.1540 -0.7804
 8896TIP3    H248180   2.594   3.820  14.860 -0.3151  0.0166 -0.3392
 8897TIP3   OH248181   6.072   1.207   6.108  1.0124 -0.6424  0.1074
 8897TIP3    H148182   6.033   1.291   6.133  0.4516 -0.9126  0.1624
 8897TIP3    H248183   6.007   1.167   6.050  0.7922 -1.4945  0.9118
 8898TIP3   OH248184   1.705   5.261  12.279  0.4771  0.2227  0.2740
 8898TIP3    H148185   1.691   5.194  12.347 -3.7792 -1.0688 -1.5528
 8898TIP3    H248186   1.740   5.213  12.205  0.9024  0.7675  0.1152
 8899TIP3   OH248187   2.783   4.006  10.898  0.7665  0.1324 -0.3357
 8899TIP3    H148188   2.762   3.973  10.810 -0.8841  0.5542 -0.1239
 8899TIP3    H248189   2.727   3.956  10.957  1.7595 -0.0453  0.4902
 8900TIP3   OH248190   0.576   6.086  15.202 -0.2031  0.0942  0.0977
 8900TIP3    H148191   0.564   6.131  15.118  0.6381 -0.2290 -0.1994
 8900TIP3    H248192   0.493   6.100  15.248  0.1067  2.1537  0.1184
 8901TIP3   OH248193   5.898   2.132  15.177  0.5282 -0.0577 -0.3039
 8901TIP3    H148194   5.932   2.049  15.210 -0.0187  0.2783  1.1531
 8901TIP3    H248195   5.846   2.107  15.100  1.7877 -0.8516 -0.9478
 8902TIP3   OH248196   3.916   1.519   5.780  0.1597 -0.1463  0.3659
 8902TIP3    H148197   3.961   1.524   5.696 -0.7077 -2.2120 -0.3011
 8902TIP3    H248198   3.916   1.426   5.801 -0.6454  0.2101  2.0991
 8903TIP3   OH248199   1.347   6.435   2.733 -0.1865 -0.4641  0.2862
 8903TIP3    H148200   1.380   6.345   2.729 -0.8648 -0.6957 -0.2373
 8903TIP3    H248201   1.425   6.490   2.722 -0.0381 -1.0018 -1.7320
 8904TIP3   OH248202   5.388   6.300   2.445 -0.4866  0.2946 -0.0782
 8904TIP3    H148203   5.398   6.205   2.458 -1.0634  0.1326 -0.7620
 8904TIP3    H248204   5.294   6.313   2.442 -0.4014  0.7329 -1.0822
 8905TIP3   OH248205   3.035   6.384  14.813  0.6029 -0.1052  0.0046
 8905TIP3    H148206   3.126   6.361  14.830  0.4715 -0.3984  0.3211
 8905TIP3    H248207   2.988   6.300  14.814  0.5782 -0.1663 -1.8534
 8906TIP3   OH248208   6.727   3.405  13.923  0.0221 -0.1354 -0.1872
 8906TIP3    H148209   6.798   3.366  13.872 -1.3020  0.2831 -2.5025
 8906TIP3    H248210   6.714   3.492  13.883 -0.7265  0.4433  1.2485
 8907TIP3   OH248211   6.692   2.261   0.832  0.5537 -0.0545  0.6713
 8907TIP3    H148212   6.695   2.211   0.750 -0.0857 -0.2232  0.7504
 8907TIP3    H248213   6.669   2.196   0.899 -0.1778  0.3294  0.7900
 8908TIP3   OH248214   5.275   3.995   5.926  0.8414 -0.5612  0.1817
 8908TIP3    H148215   5.317   3.968   6.008 -1.6985 -1.2013  1.3510
 8908TIP3    H248216   5.211   4.061   5.952  1.8917  1.3503 -1.7134
 8909TIP3   OH248217   3.655   6.561  16.119  0.5291 -0.2062  0.2357
 8909TIP3    H148218   3.615   6.531  16.038 -0.5021  2.2913 -0.2487
 8909TIP3    H248219   3.731   6.503  16.130 -0.0435 -1.4530 -1.7754
 8910TIP3   OH248220   0.648   3.102   6.646 -0.0995 -0.6552 -0.0849
 8910TIP3    H148221   0.619   3.043   6.715 -0.3017 -0.0730  0.3446
 8910TIP3    H248222   0.690   3.174   6.693  0.2731 -0.5311 -0.6008
 8911TIP3   OH248223   3.014   0.451  11.685  0.3249  0.1198  0.2302
 8911TIP3    H148224   3.022   0.457  11.781  1.1122 -1.0201  0.2534
 8911TIP3    H248225   3.054   0.367  11.663  1.9934  1.2318 -1.2998
 8912TIP3   OH248226   4.581   0.962   2.413 -0.3883 -0.0608 -0.0286
 8912TIP3    H148227   4.637   0.939   2.339 -0.0958  1.9495 -0.5161
 8912TIP3    H248228   4.535   1.041   2.383 -0.6964  0.4663  1.7268
 8913TIP3   OH248229   3.634   3.335   0.460  0.5726 -0.5324 -0.2246
 8913TIP3    H148230   3.687   3.277   0.405  0.8148 -0.3034 -0.2399
 8913TIP3    H248231   3.582   3.386   0.398  1.5508  0.4058 -0.3093
 8914TIP3   OH248232   5.635   3.828   4.469 -0.6700 -0.1312 -0.0093
 8914TIP3    H148233   5.579   3.876   4.408 -1.0840 -0.4053  0.1428
 8914TIP3    H248234   5.588   3.745   4.483 -0.6733  0.0042  0.8120
 8915TIP3   OH248235   0.928   4.195  12.136  0.0119  0.1155  0.0727
 8915TIP3    H148236   0.925   4.204  12.231 -3.2441 -1.5252  0.2703
 8915TIP3    H248237   0.963   4.107  12.121  0.9031  0.5190 -0.3099
 8916TIP3   OH248238   6.166   6.045  16.792  0.2648  0.0237 -0.2792
 8916TIP3    H148239   6.225   6.107  16.835  0.6762 -0.4229 -0.2040
 8916TIP3    H248240   6.079   6.067  16.827  0.5499 -0.1329  0.5481
 8917TIP3   OH248241   0.053   5.546  15.065  0.1850  0.4531  0.1235
 8917TIP3    H148242  -0.042   5.537  15.072  0.1778  1.2176  1.2147
 8917TIP3    H248243   0.078   5.597  15.141  1.7513 -1.5061  1.0234
 8918TIP3   OH248244   0.347   1.057   5.258  0.2921  0.0310 -0.4428
 8918TIP3    H148245   0.392   1.108   5.326 -0.4292 -1.5476  1.3110
 8918TIP3    H248246   0.274   1.113   5.231  0.7926  0.8252 -0.1908
 8919TIP3   OH248247   2.298   3.195  14.551  0.5779 -0.9624 -0.0895
 8919TIP3    H148248   2.234   3.215  14.619 -1.2989 -2.0092 -1.4440
 8919TIP3    H248249   2.344   3.278  14.535 -0.4184 -0.1870  0.9471
 8920TIP3   OH248250   2.249   6.762   1.521  0.8413  0.6150  0.6620
 8920TIP3    H148251   2.314   6.744   1.589 -1.1570 -0.2933  2.4614
 8920TIP3    H248252   2.205   6.678   1.508 -1.6896  1.7224  1.4564
 8921TIP3   OH248253   6.596   4.140   5.172  0.2092  0.2171  0.0736
 8921TIP3    H148254   6.645   4.058   5.180 -2.1084 -1.2982 -0.2592
 8921TIP3    H248255   6.598   4.160   5.079 -0.3748 -0.2489 -0.0465
 8922TIP3   OH248256   3.688   1.258   2.835  0.0792  0.0853  0.4135
 8922TIP3    H148257   3.616   1.262   2.897 -0.8722 -1.4737 -0.5164
 8922TIP3    H248258   3.648   1.231   2.753  1.5176  0.6545 -0.5201
 8923TIP3   OH248259   2.530   3.153   1.179 -0.5189  0.3894  0.0258
 8923TIP3    H148260   2.446   3.172   1.137 -0.8150 -0.2343  0.3281
 8923TIP3    H248261   2.537   3.218   1.249  0.1672  1.7067 -1.1998
 8924TIP3   OH248262   2.299   6.308   3.211 -0.5791  0.0154 -0.1214
 8924TIP3    H148263   2.220   6.281   3.163 -1.5289  3.0258 -0.4314
 8924TIP3    H248264   2.369   6.302   3.147 -1.4347  1.7460 -1.2973
 8925TIP3   OH248265   4.405   1.426   4.711  0.3264 -0.5059 -0.2456
 8925TIP3    H148266   4.368   1.427   4.800  0.4141  0.4139 -0.2143
 8925TIP3    H248267   4.329   1.435   4.654  0.0424 -2.9746 -0.3772
 8926TIP3   OH248268   3.435   1.379  15.195  0.6314  0.1811  0.3017
 8926TIP3    H148269   3.428   1.424  15.111 -0.3720 -1.9355 -0.8478
 8926TIP3    H248270   3.436   1.286  15.172 -0.7310 -0.5162  2.6769
 8927TIP3   OH248271   0.257   2.631   1.741 -0.3245  0.3007 -0.0315
 8927TIP3    H148272   0.245   2.687   1.664 -1.2745  0.1777  0.0156
 8927TIP3    H248273   0.343   2.591   1.728 -1.0374 -0.8032 -1.7410
 8928TIP3   OH248274   2.916   0.800  14.628  1.0389  0.1390 -1.1534
 8928TIP3    H148275   2.860   0.796  14.551  1.1731  0.9604 -1.3025
 8928TIP3    H248276   3.005   0.796  14.593  1.0866 -0.9697 -0.9300
 8929TIP3   OH248277   4.760   6.014  11.694  0.2235 -0.1444  0.5895
 8929TIP3    H148278   4.757   6.074  11.769  2.3496 -0.5751  1.0785
 8929TIP3    H248279   4.761   5.927  11.734 -2.9107 -0.6401 -0.1140
 8930TIP3   OH248280   0.976   1.815  12.880 -0.2362  0.1801  0.4987
 8930TIP3    H148281   0.989   1.897  12.833 -0.1877 -0.4424 -0.6315
 8930TIP3    H248282   0.994   1.747  12.814 -0.8175 -0.7310  1.2495
 8931TIP3   OH248283   0.521   5.903  14.450  0.3158  0.3601  0.1595
 8931TIP3    H148284   0.584   5.937  14.387 -1.3510  0.6154 -1.4377
 8931TIP3    H248285   0.574   5.856  14.514  2.3562  2.6409  0.2859
 8932TIP3   OH248286   0.542   5.261  16.716  0.2216  0.5046  0.7276
 8932TIP3    H148287   0.552   5.356  16.710  0.6026  0.4005 -0.5283
 8932TIP3    H248288   0.460   5.243  16.669  0.4448  0.1692  0.4587
 8933TIP3   OH248289   0.611   6.317   4.339  1.0127 -0.2371 -0.1383
 8933TIP3    H148290   0.581   6.397   4.297  1.1907  0.9200  1.8393
 8933TIP3    H248291   0.691   6.342   4.385  0.2181 -1.1315  1.8306
 8934TIP3   OH248292   4.316   0.175  16.249  0.1352  0.4384  0.0004
 8934TIP3    H148293   4.357   0.151  16.332  0.4770 -0.8101 -0.5149
 8934TIP3    H248294   4.363   0.126  16.183  0.6976  2.3586 -1.1181
 8935TIP3   OH248295   6.471   2.156   4.202 -0.7661 -0.0019 -0.0589
 8935TIP3    H148296   6.456   2.190   4.113  1.5103  1.1964 -0.0718
 8935TIP3    H248297   6.447   2.229   4.259  0.5602  0.3397  0.1098
 8936TIP3   OH248298   6.639   1.240  13.314  0.2350 -0.0796 -0.0717
 8936TIP3    H148299   6.704   1.178  13.283  1.1495  0.7432  0.1386
 8936TIP3    H248300   6.630   1.221  13.407  0.0669 -0.2965 -0.1337
 8937TIP3   OH248301   2.253   1.416   3.635  0.0078  0.6230 -0.2811
 8937TIP3    H148302   2.258   1.464   3.717  0.3046  0.5024 -0.2261
 8937TIP3    H248303   2.337   1.370   3.629 -0.2076  0.2406 -0.4093
 8938TIP3   OH248304   2.317   3.382  16.054 -0.3852 -0.0991 -0.2843
 8938TIP3    H148305   2.307   3.399  16.148 -0.4781 -4.1536  0.6040
 8938TIP3    H248306   2.405   3.346  16.045  0.3464  1.9210 -2.1714
 8939TIP3   OH248307   3.912   1.341  16.230  0.3600  0.2696  0.8538
 8939TIP3    H148308   3.928   1.405  16.300 -0.2765  1.2023  0.1733
 8939TIP3    H248309   3.836   1.291  16.260  2.2030 -1.7681  2.4463
 8940TIP3   OH248310   4.528   3.482  11.440  0.2792  0.2491  0.6184
 8940TIP3    H148311   4.450   3.490  11.385  1.3639  0.6569 -0.9258
 8940TIP3    H248312   4.546   3.388  11.443  0.7264  0.2743 -0.5428
 8941TIP3   OH248313   1.722   1.178   1.847  0.4822  0.2513  0.0699
 8941TIP3    H148314   1.793   1.205   1.905  0.1186  0.5850  0.3722
 8941TIP3    H248315   1.651   1.152   1.907  0.2044  0.3230 -0.2228
 8942TIP3   OH248316   1.369   0.694  11.021 -0.6400 -0.5485 -0.5463
 8942TIP3    H148317   1.395   0.638  10.948  2.2560 -0.9600  0.6645
 8942TIP3    H248318   1.342   0.776  10.979  1.9670 -0.3808 -2.1431
 8943TIP3   OH248319   0.501   5.489  15.854  0.3731  0.9081  0.3492
 8943TIP3    H148320   0.535   5.430  15.921  1.2088  0.0343 -0.8020
 8943TIP3    H248321   0.409   5.465  15.844  0.9112 -0.8820 -0.7419
 8944TIP3   OH248322   2.796   1.240  14.918  0.2161 -0.3331 -0.1662
 8944TIP3    H148323   2.775   1.332  14.932  1.0815  0.1307 -1.6123
 8944TIP3    H248324   2.712   1.196  14.911 -0.2307  0.6560 -1.1874
 8945TIP3   OH248325   3.047   4.753  15.838  0.3269 -0.0180  0.2947
 8945TIP3    H148326   2.981   4.700  15.793  0.3760 -2.0379  2.4402
 8945TIP3    H248327   2.999   4.800  15.906  0.6761  0.8215 -0.0201
 8946TIP3   OH248328   5.801   1.035   3.752 -0.7364  0.7235  0.3634
 8946TIP3    H148329   5.839   0.954   3.787 -0.8062 -0.2810 -1.7367
 8946TIP3    H248330   5.779   1.086   3.830  1.8642 -0.0505  1.7293
 8947TIP3   OH248331   4.301   0.808   3.959 -0.0216  0.1235 -0.3042
 8947TIP3    H148332   4.350   0.862   3.897  0.6748 -1.6533 -1.3533
 8947TIP3    H248333   4.212   0.805   3.924 -0.5641  2.0339  0.7508
 8948TIP3   OH248334   0.362   6.237  14.986 -0.2466 -0.0879  0.4445
 8948TIP3    H148335   0.335   6.287  15.063 -0.2133  0.2682  0.2284
 8948TIP3    H248336   0.279   6.218  14.941 -0.1726  0.8655 -0.1320
 8949TIP3   OH248337   3.921   2.223  11.699 -0.3465 -0.6930 -0.1358
 8949TIP3    H148338   3.936   2.216  11.604 -0.6395 -0.1477 -0.2231
 8949TIP3    H248339   3.888   2.137  11.724  1.9510 -1.6352 -0.1059
 8950TIP3   OH248340   0.265   2.377  16.541  0.0638 -0.0614 -0.2016
 8950TIP3    H148341   0.249   2.318  16.614  0.9169 -0.1481 -0.0696
 8950TIP3    H248342   0.179   2.392  16.502 -0.2956 -0.5868  0.3780
 8951TIP3   OH248343   3.714   0.066  15.334  0.2850 -0.2039  0.0181
 8951TIP3    H148344   3.680  -0.016  15.370 -1.4788 -0.2547 -1.6152
 8951TIP3    H248345   3.768   0.039  15.260  2.0242  0.0214  1.1433
 8952TIP3   OH248346   1.337   0.956  11.351  0.1900  0.3695 -0.3503
 8952TIP3    H148347   1.403   0.909  11.301  0.7414  0.7138  0.0351
 8952TIP3    H248348   1.339   0.914  11.437 -0.9178 -0.3752 -0.6740
 8953TIP3   OH248349   4.697   4.419   4.253  0.1098 -0.6301  0.1317
 8953TIP3    H148350   4.752   4.341   4.244 -0.1144 -0.7873  0.1241
 8953TIP3    H248351   4.676   4.443   4.163 -1.4149 -1.6942  0.1642
 8954TIP3   OH248352   0.677   2.614  13.815 -0.2255 -0.0282 -0.3699
 8954TIP3    H148353   0.600   2.576  13.772  0.1368 -1.4689  0.2110
 8954TIP3    H248354   0.703   2.549  13.880  1.7607  0.2243 -0.8474
 8955TIP3   OH248355   0.263   1.455   1.143  0.0982  0.4448  0.1277
 8955TIP3    H148356   0.264   1.361   1.124 -2.1020  0.7823 -2.2820
 8955TIP3    H248357   0.207   1.464   1.219  0.5942 -0.1941  0.5809
 8956TIP3   OH248358   4.275   2.295   2.767 -0.4099  0.2010 -0.7152
 8956TIP3    H148359   4.307   2.252   2.846 -0.6800 -0.2968 -0.8679
 8956TIP3    H248360   4.215   2.362   2.799  2.0897  2.4087 -0.3213
 8957TIP3   OH248361   6.325   6.638  16.794  0.2947 -0.1275 -0.1566
 8957TIP3    H148362   6.346   6.725  16.827  0.2093  0.1779 -0.8926
 8957TIP3    H248363   6.400   6.615  16.738  0.8500 -0.9990  0.9000
 8958TIP3   OH248364   1.646   6.784  11.172  0.1793  0.1164  0.4354
 8958TIP3    H148365   1.665   6.709  11.229  0.4311 -0.2370 -0.1057
 8958TIP3    H248366   1.620   6.744  11.089 -2.1554  0.5895  0.8819
 8959TIP3   OH248367   3.847   6.308   5.075 -0.4668 -0.6362  0.2853
 8959TIP3    H148368   3.865   6.391   5.030 -2.8001 -0.4371 -0.3942
 8959TIP3    H248369   3.927   6.290   5.125  0.5579  1.3769 -0.5258
 8960TIP3   OH248370   3.277   0.330  11.730 -0.4477  0.3817 -0.7133
 8960TIP3    H148371   3.262   0.254  11.787 -1.5999  0.0733 -1.3966
 8960TIP3    H248372   3.371   0.348  11.739 -0.6680  0.6978  1.6928
 8961TIP3   OH248373   3.214   4.442   3.260  0.1425 -0.2588 -0.1000
 8961TIP3    H148374   3.122   4.454   3.282 -0.2046 -0.5622 -1.2986
 8961TIP3    H248375   3.253   4.529   3.265 -0.3073 -0.0656 -0.0050
 8962TIP3   OH248376   4.777   5.182   2.108  0.2546 -0.0069  0.1120
 8962TIP3    H148377   4.700   5.144   2.066 -0.4770  2.2139 -0.7024
 8962TIP3    H248378   4.742   5.251   2.165  1.5730  0.3235  0.5618
 8963TIP3   OH248379   2.257   2.797   1.515 -0.5829  0.4308 -0.1464
 8963TIP3    H148380   2.299   2.843   1.587 -0.4689 -0.4851  0.3841
 8963TIP3    H248381   2.280   2.848   1.437  0.2754  0.7764  0.3193
 8964TIP3   OH248382   0.456   5.120   3.274  0.1420  0.6771  0.2848
 8964TIP3    H148383   0.449   5.127   3.369 -1.9835  0.8263  0.1645
 8964TIP3    H248384   0.418   5.034   3.253 -1.2223  1.4386 -0.5409
 8965TIP3   OH248385   0.759   6.336   1.614 -0.0447  0.0988 -0.1907
 8965TIP3    H148386   0.778   6.316   1.522  0.6378 -1.0281  0.1750
 8965TIP3    H248387   0.775   6.254   1.660 -0.4121  0.6410  0.9419
 8966TIP3   OH248388   1.978   1.915  11.205 -0.3032  0.1551 -0.4909
 8966TIP3    H148389   2.018   1.855  11.268 -2.6434  0.3132  1.2935
 8966TIP3    H248390   1.953   1.991  11.257 -0.7886  1.0529 -1.9766
 8967TIP3   OH248391   1.530   6.536  11.970  0.2830 -0.4189  0.0702
 8967TIP3    H148392   1.441   6.557  11.943 -0.0901 -0.2156  1.3614
 8967TIP3    H248393   1.562   6.476  11.903  0.0662  1.3741 -1.7399
 8968TIP3   OH248394   3.479   6.014  15.430  0.1290 -0.2534 -0.1105
 8968TIP3    H148395   3.426   6.005  15.351  0.2892  1.0548 -0.3890
 8968TIP3    H248396   3.415   6.027  15.500  0.0373 -0.1311 -0.2183
 8969TIP3   OH248397   2.173   5.229   0.673 -0.3350 -0.4440 -0.7647
 8969TIP3    H148398   2.215   5.143   0.665  0.6667 -0.3577  2.3033
 8969TIP3    H248399   2.111   5.219   0.745  1.8294  1.9922  1.6901
 8970TIP3   OH248400   4.127   2.133   5.385  0.4061  0.4218 -0.1327
 8970TIP3    H148401   4.158   2.169   5.301  1.4738 -0.6902 -0.2482
 8970TIP3    H248402   4.170   2.187   5.451 -0.0627  1.0008 -0.2933
 8971TIP3   OH248403   6.382   0.845   0.220 -0.2814  0.3160  0.1142
 8971TIP3    H148404   6.328   0.846   0.141  0.3596  2.2814 -0.3312
 8971TIP3    H248405   6.406   0.753   0.231  0.9590  0.1624 -2.9026
 8972TIP3   OH248406   5.477   6.698  13.525  0.3227 -0.0850 -0.2161
 8972TIP3    H148407   5.504   6.651  13.603  0.8144  2.0560  0.9937
 8972TIP3    H248408   5.554   6.748  13.499 -0.0319 -0.2556 -1.6968
 8973TIP3   OH248409   5.835   6.464  14.524  0.2599 -0.7208 -0.3029
 8973TIP3    H148410   5.772   6.392  14.526 -1.6220  0.7781 -1.8907
 8973TIP3    H248411   5.805   6.523  14.592  0.4130 -0.3586 -0.5494
 8974TIP3   OH248412   0.592   5.106  14.449  0.0944  0.0603  0.5280
 8974TIP3    H148413   0.529   5.112  14.520  0.4730 -1.4388  1.0239
 8974TIP3    H248414   0.541   5.123  14.370 -1.1037 -1.7765  0.8530
 8975TIP3   OH248415   4.257   6.030  11.103 -0.0619 -0.1679  0.5585
 8975TIP3    H148416   4.321   5.991  11.043  1.6565  1.2153  1.3932
 8975TIP3    H248417   4.224   6.106  11.055  0.6782  0.4461  0.9957
 8976TIP3   OH248418   6.634   4.720  13.649  0.4903 -0.4392  0.4095
 8976TIP3    H148419   6.615   4.627  13.643 -0.8241 -0.1911  0.3351
 8976TIP3    H248420   6.581   4.751  13.723 -0.4309  0.5406 -0.6138
 8977TIP3   OH248421   6.447   0.604  14.404 -0.0808  0.3879  0.0317
 8977TIP3    H148422   6.520   0.584  14.462 -0.7002  1.5547  1.2813
 8977TIP3    H248423   6.485   0.657  14.335  0.7292 -1.2814 -0.8599
 8978TIP3   OH248424   2.363   2.374  14.061  0.1340  0.3589  1.0134
 8978TIP3    H148425   2.425   2.443  14.082 -0.0231  0.0350  2.6290
 8978TIP3    H248426   2.290   2.388  14.121 -0.0043 -1.0501  1.2012
 8979TIP3   OH248427   5.694   4.512   1.367 -0.0113 -0.1625 -0.1772
 8979TIP3    H148428   5.619   4.455   1.389  0.9986 -1.8653 -0.9425
 8979TIP3    H248429   5.691   4.520   1.272  1.2960 -1.0451 -0.3177
 8980TIP3   OH248430   4.741   0.050   5.860  0.2331 -0.0730 -0.1882
 8980TIP3    H148431   4.749   0.143   5.840 -0.3486  0.2722  1.0538
 8980TIP3    H248432   4.807   0.034   5.927 -1.7864  0.2655  2.0391
 8981TIP3   OH248433   0.106   5.017   5.262  0.0913  0.5281 -0.0956
 8981TIP3    H148434   0.143   4.940   5.304 -0.5353  0.2904  0.0312
 8981TIP3    H248435   0.046   5.053   5.328 -0.7663  0.2552 -0.7121
 8982TIP3   OH248436   2.463   4.824  16.724 -0.1155 -0.2311 -0.3709
 8982TIP3    H148437   2.389   4.823  16.785 -0.3353 -0.3440 -0.6327
 8982TIP3    H248438   2.439   4.891  16.660  0.0906 -0.1480 -0.3593
 8983TIP3   OH248439   1.244   1.929  13.278 -0.2970  0.0184 -0.0898
 8983TIP3    H148440   1.283   1.928  13.191 -2.6198  0.0941 -1.2013
 8983TIP3    H248441   1.295   1.993  13.327  1.5194 -0.5650 -1.1471
 8984TIP3   OH248442   5.718   0.929   2.312 -0.5320  0.0370 -0.4451
 8984TIP3    H148443   5.805   0.898   2.337 -0.2351 -0.4132 -1.9443
 8984TIP3    H248444   5.661   0.854   2.327 -0.3437 -0.2524 -1.1231
 8985TIP3   OH248445   0.558   2.571  13.479 -0.0427  0.2077  0.2682
 8985TIP3    H148446   0.551   2.663  13.454  1.2241  0.5020  0.9063
 8985TIP3    H248447   0.503   2.563  13.557  0.0017  0.4702  0.3275
 8986TIP3   OH248448   2.546   2.788   4.238  1.1439  0.4442 -0.0155
 8986TIP3    H148449   2.485   2.791   4.163  0.5184  0.4089  0.4787
 8986TIP3    H248450   2.582   2.876   4.243 -0.2722  1.0146  0.8081
 8987TIP3   OH248451   6.148   4.344  10.918 -0.8745 -0.0441 -0.0417
 8987TIP3    H148452   6.074   4.295  10.880 -0.1502 -1.4455  0.2808
 8987TIP3    H248453   6.166   4.299  11.000  0.8367 -0.2223 -0.4851
 8988TIP3   OH248454   5.151   3.689   5.361 -0.3887  0.4394  0.4214
 8988TIP3    H148455   5.059   3.672   5.384  0.3415  0.4677  4.0309
 8988TIP3    H248456   5.182   3.605   5.326 -1.4261 -0.0240  0.5532
 8989TIP3   OH248457   3.780   5.757  15.079  0.0209 -0.0395 -0.3750
 8989TIP3    H148458   3.708   5.776  15.140  0.8437 -2.3606  1.4642
 8989TIP3    H248459   3.839   5.832  15.088 -0.6836  0.4457  0.3859
 8990TIP3   OH248460   2.068   1.664  12.957 -0.3443  0.2023 -0.2400
 8990TIP3    H148461   2.064   1.597  13.025 -0.3312 -0.5829 -1.0009
 8990TIP3    H248462   1.977   1.686  12.939 -0.3240  1.2453  0.8222
 8991TIP3   OH248463   1.412   0.029  14.641  0.3539 -0.3908  0.2473
 8991TIP3    H148464   1.456   0.010  14.724 -2.2903  0.2125  1.8810
 8991TIP3    H248465   1.347  -0.040  14.632  0.0211  0.0505 -0.9096
 8992TIP3   OH248466   0.379   1.415   5.773 -0.2421  0.1605  0.1787
 8992TIP3    H148467   0.444   1.454   5.831  0.1232  0.7734 -0.6179
 8992TIP3    H248468   0.377   1.322   5.797  0.2490  0.3165  0.8329
 8993TIP3   OH248469   4.986   3.205  12.332 -0.0982  0.1823  0.2236
 8993TIP3    H148470   4.921   3.268  12.301  0.9479  1.6293  0.8317
 8993TIP3    H248471   4.993   3.221  12.426  0.7049 -0.3543  0.2683
 8994TIP3   OH248472   2.682   6.703   4.730  0.0077  0.2701  0.0015
 8994TIP3    H148473   2.724   6.763   4.792  0.0035 -0.4526  0.7242
 8994TIP3    H248474   2.591   6.697   4.761 -0.0389  0.0443 -0.1780
 8995TIP3   OH248475   0.993   6.185  13.780 -0.5523 -0.2405  0.0596
 8995TIP3    H148476   1.074   6.231  13.803 -1.1405  1.1760 -0.5669
 8995TIP3    H248477   0.935   6.199  13.855 -1.2682  1.4288 -0.7519
 8996TIP3   OH248478   1.079   3.246  11.040  0.7350 -0.4775  0.0323
 8996TIP3    H148479   0.989   3.215  11.027  0.8643 -0.8153 -0.0559
 8996TIP3    H248480   1.104   3.284  10.956  0.5043  0.0588  0.2004
 8997TIP3   OH248481   6.538   5.139  13.191 -0.9126 -0.1607  0.0595
 8997TIP3    H148482   6.540   5.173  13.281  1.2897 -0.3349  0.1385
 8997TIP3    H248483   6.584   5.055  13.196 -1.7107 -0.6966 -1.0714
 8998TIP3   OH248484   3.906   4.918  15.554  0.0506 -0.3386  0.2187
 8998TIP3    H148485   3.897   4.908  15.459  0.6839 -0.9237  0.2121
 8998TIP3    H248486   3.901   5.012  15.570 -0.8885 -0.2935 -0.3064
 8999TIP3   OH248487   6.085   0.102   1.966  0.0648  0.0944 -0.1145
 8999TIP3    H148488   6.058   0.027   1.913 -0.2792  0.4850 -0.5038
 8999TIP3    H248489   6.062   0.179   1.913 -0.2792  0.4957  0.5941
 9000TIP3   OH248490   2.948   2.069  14.569  0.5883  0.0968  0.5345
 9000TIP3    H148491   2.989   1.983  14.573 -2.0079 -1.2978 -0.4195
 9000TIP3    H248492   2.863   2.058  14.612 -0.3006  1.8485 -0.6167
 9001TIP3   OH248493   3.582   4.609  10.679  0.5100  0.3421 -0.3305
 9001TIP3    H148494   3.655   4.590  10.737  1.6842 -0.4793 -2.0154
 9001TIP3    H248495   3.567   4.703  10.690 -0.9158 -0.0942  3.0258
 9002TIP3   OH248496   0.465   6.058  13.124 -0.0833 -0.1453  0.2815
 9002TIP3    H148497   0.433   6.041  13.213 -2.5005 -2.0169 -0.8415
 9002TIP3    H248498   0.438   5.982  13.074  1.0429  0.9608 -2.1385
 9003TIP3   OH248499   3.962   5.523  16.829 -0.4929  0.2975 -0.1728
 9003TIP3    H148500   3.898   5.516  16.759  1.9452 -0.0375 -2.5279
 9003TIP3    H248501   3.967   5.617  16.848 -2.3533  0.2483  0.8440
 9004TIP3   OH248502   0.528   1.531  15.261 -0.1800 -0.1311  0.7118
 9004TIP3    H148503   0.507   1.527  15.167 -1.2620  2.1832  0.8074
 9004TIP3    H248504   0.563   1.444  15.281 -1.5453 -1.2482 -1.4454
 9005TIP3   OH248505   2.747   3.986  15.126  0.1857 -0.2880  0.0286
 9005TIP3    H148506   2.730   4.074  15.160 -1.5414 -1.3697  2.2238
 9005TIP3    H248507   2.706   3.986  15.039 -1.0778  0.6782  0.5898
 9006TIP3   OH248508   6.504   2.815  12.484 -0.1216 -0.3474  0.0719
 9006TIP3    H148509   6.435   2.815  12.418  0.9127  0.1316 -1.0693
 9006TIP3    H248510   6.582   2.843  12.436  1.1603 -2.1690  0.9945
 9007TIP3   OH248511   4.351   4.153  13.805  0.2991 -0.2696 -0.2978
 9007TIP3    H148512   4.409   4.212  13.757  1.0941 -2.3275 -2.0363
 9007TIP3    H248513   4.264   4.173  13.771  0.1512  1.6012  1.0215
 9008TIP3   OH248514   4.353   1.563  16.974  0.4183 -0.1385  0.1810
 9008TIP3    H148515   4.407   1.484  16.975 -0.9554 -1.1035  0.5915
 9008TIP3    H248516   4.416   1.634  16.960  1.5844 -1.3666 -1.2341
 9009TIP3   OH248517   2.879   0.694   3.216  0.0415  0.5198  0.1051
 9009TIP3    H148518   2.905   0.782   3.189 -1.7141  0.9410 -0.3922
 9009TIP3    H248519   2.928   0.636   3.158  0.8217  1.1844  0.0780
 9010TIP3   OH248520   0.066   3.671   6.643  0.2407  0.2385  0.4146
 9010TIP3    H148521   0.050   3.714   6.559 -0.5021  1.4960  1.1675
 9010TIP3    H248522   0.044   3.579   6.627 -1.4130  0.7251 -0.3751
 9011TIP3   OH248523   0.604   1.358  13.394  0.4286  0.3795 -0.0385
 9011TIP3    H148524   0.647   1.282  13.433 -1.0652 -0.7305 -0.4472
 9011TIP3    H248525   0.671   1.399  13.340  1.1056 -1.0209 -0.3037
 9012TIP3   OH248526   5.398   1.623   4.331  0.6560  0.0211  0.0170
 9012TIP3    H148527   5.371   1.531   4.331  0.9174 -0.0792 -1.2867
 9012TIP3    H248528   5.483   1.623   4.287  0.5751  0.9095 -0.1478
 9013TIP3   OH248529   3.545   3.038  11.036  0.1969  0.4818  0.0645
 9013TIP3    H148530   3.452   3.052  11.019  0.5058  2.5505 -0.1854
 9013TIP3    H248531   3.577   2.989  10.960 -0.8278 -1.0221  0.5649
 9014TIP3   OH248532   4.695   2.804  12.898  0.3040 -0.3419 -0.2345
 9014TIP3    H148533   4.617   2.792  12.845 -0.9258  2.3918  0.7791
 9014TIP3    H248534   4.709   2.720  12.941 -3.4595 -0.3786  1.2821
 9015TIP3   OH248535   2.992   2.684  15.072  1.0883  0.1269  0.2144
 9015TIP3    H148536   3.062   2.637  15.117  2.0639  1.5137  0.1905
 9015TIP3    H248537   2.912   2.648  15.109  1.7247 -2.2289 -0.4768
 9016TIP3   OH248538   0.470   2.242  14.915  0.3816  0.2551  0.0519
 9016TIP3    H148539   0.494   2.157  14.879 -0.9431 -0.9841  1.9227
 9016TIP3    H248540   0.519   2.249  14.997 -0.3335  0.7738  0.4538
 9017TIP3   OH248541   5.744   6.086  15.485  0.1056 -0.3790 -0.0016
 9017TIP3    H148542   5.790   6.147  15.428  1.7999 -1.2493  0.3933
 9017TIP3    H248543   5.774   5.999  15.458  3.0958 -0.7939  3.8184
 9018TIP3   OH248544   6.529   2.260   2.950  0.6573 -0.3604  0.0115
 9018TIP3    H148545   6.508   2.218   3.034 -2.0037  1.5138  0.4238
 9018TIP3    H248546   6.525   2.354   2.969 -0.7206  0.1228 -2.3172
 9019TIP3   OH248547   6.651   0.239   3.655 -0.3657 -0.1421 -0.8566
 9019TIP3    H148548   6.685   0.328   3.669 -1.4987  0.5164 -2.0434
 9019TIP3    H248549   6.605   0.218   3.736  0.3824  0.1147 -0.3517
 9020TIP3   OH248550   5.103   0.184  13.991  0.3293  0.4184 -0.3737
 9020TIP3    H148551   5.180   0.214  14.038  0.8584 -1.2146 -0.1528
 9020TIP3    H248552   5.118   0.091  13.976 -0.2773  0.6445 -2.8776
 9021TIP3   OH248553   5.814   3.706   1.275 -0.6732 -0.6630 -0.1690
 9021TIP3    H148554   5.860   3.672   1.352 -0.5389  0.1065  0.1011
 9021TIP3    H248555   5.722   3.690   1.293 -0.7393  0.5213  0.6830
 9022TIP3   OH248556   0.993   6.038   3.614  0.4459  0.3125  0.4534
 9022TIP3    H148557   1.003   6.122   3.659 -1.8410  0.9360 -0.0697
 9022TIP3    H248558   1.022   5.973   3.678 -0.3745  1.3412  1.9329
 9023TIP3   OH248559   5.145   3.244  14.231  0.0207  0.5978  0.3901
 9023TIP3    H148560   5.079   3.212  14.170 -0.8406  0.5615  1.3149
 9023TIP3    H248561   5.221   3.187  14.217  0.7222  2.0597 -2.2787
 9024TIP3   OH248562   5.214   5.050   4.943 -0.0469 -0.0921  0.3644
 9024TIP3    H148563   5.193   5.085   4.856 -0.2800 -0.5902  0.2136
 9024TIP3    H248564   5.266   5.118   4.985 -0.6409  0.5078  0.1458
 9025TIP3   OH248565   4.537   0.352   3.675  0.1760 -0.3117  0.0338
 9025TIP3    H148566   4.515   0.408   3.600  0.1025 -1.0023 -0.4751
 9025TIP3    H248567   4.620   0.311   3.650  0.6933  0.2473  0.7908
 9026TIP3   OH248568   6.244   3.277   4.897 -0.0437 -0.0199 -0.2322
 9026TIP3    H148569   6.160   3.310   4.866  0.1734  0.6655 -0.1087
 9026TIP3    H248570   6.252   3.312   4.986 -0.4701 -1.6171  0.4618
 9027TIP3   OH248571   2.454   1.959  17.077  0.1288 -0.2491  0.3615
 9027TIP3    H148572   2.475   1.875  17.116  4.0328 -0.0000 -0.7628
 9027TIP3    H248573   2.435   1.938  16.985 -0.5858 -0.0610  0.4653
 9028TIP3   OH248574   1.683   4.276   3.393 -0.4872  0.1959  0.3278
 9028TIP3    H148575   1.716   4.248   3.307 -0.2273  2.6200 -0.4451
 9028TIP3    H248576   1.720   4.213   3.455  0.8989 -0.4996 -1.1414
 9029TIP3   OH248577   4.208   1.339  11.054  0.2027  0.6106 -0.4463
 9029TIP3    H148578   4.130   1.318  11.002 -0.4796  0.6003  0.5482
 9029TIP3    H248579   4.268   1.380  10.992 -0.9250  1.3814 -1.0575
 9030TIP3   OH248580   0.503   5.975   5.224 -0.1146  0.5742 -0.5696
 9030TIP3    H148581   0.448   5.946   5.152  0.3100  1.6346 -1.3425
 9030TIP3    H248582   0.451   6.041   5.269 -0.4394 -0.1901  0.2140
 9031TIP3   OH248583   5.570   0.641  16.740  0.3860  0.8098 -0.1707
 9031TIP3    H148584   5.641   0.580  16.721  0.2728  0.1386  1.3808
 9031TIP3    H248585   5.528   0.658  16.656  0.3449 -1.3694 -0.6290
 9032TIP3   OH248586   1.453   1.849   2.328 -0.2107 -0.4182 -0.2561
 9032TIP3    H148587   1.407   1.863   2.411 -0.6228  0.2424 -0.5884
 9032TIP3    H248588   1.540   1.819   2.355 -0.1025  0.4631  0.4498
 9033TIP3   OH248589   6.268   2.981   2.908 -0.7788  0.2389  0.2808
 9033TIP3    H148590   6.237   2.905   2.957  0.2897  0.5143  1.4663
 9033TIP3    H248591   6.297   3.042   2.976 -4.1905  2.9759 -0.4370
 9034TIP3   OH248592   5.282   3.630  10.552 -0.3156  0.0270  1.0165
 9034TIP3    H148593   5.331   3.577  10.490 -0.4393 -1.7404  2.3636
 9034TIP3    H248594   5.321   3.718  10.545 -1.7491  0.5228 -3.0613
 9035TIP3   OH248595   4.987   0.291   4.437 -0.0718 -0.2428  0.2486
 9035TIP3    H148596   4.903   0.336   4.427  0.2547  0.5516  0.9417
 9035TIP3    H248597   5.036   0.346   4.498  1.5254  0.1252 -1.3051
 9036TIP3   OH248598   2.574   2.745   0.953  0.7511 -0.6523 -0.2102
 9036TIP3    H148599   2.612   2.659   0.971  0.3460 -0.6949  0.4642
 9036TIP3    H248600   2.523   2.766   1.031 -0.1542 -0.3465 -0.8698
 9037TIP3   OH248601   2.081   0.806   3.170 -0.4259 -0.4453 -0.0501
 9037TIP3    H148602   2.147   0.873   3.150 -0.0455 -0.4752  1.0331
 9037TIP3    H248603   2.050   0.777   3.084  1.3774 -0.8409 -0.6220
 9038TIP3   OH248604   3.021   5.981   5.714  0.6093 -0.2159  0.6976
 9038TIP3    H148605   3.085   6.041   5.752 -1.0292  0.6621  2.2373
 9038TIP3    H248606   2.936   6.016   5.741 -0.4764 -2.3277  0.2591
 9039TIP3   OH248607   2.439   0.216  12.805  0.3248  0.0847  0.3917
 9039TIP3    H148608   2.496   0.183  12.874 -0.0929  1.2345  1.3263
 9039TIP3    H248609   2.395   0.138  12.771 -0.9236 -0.3610  2.7898
 9040TIP3   OH248610   4.113   2.327  14.593 -0.3019 -0.1036 -0.0348
 9040TIP3    H148611   4.181   2.387  14.561 -0.6473  0.0556 -0.4857
 9040TIP3    H248612   4.046   2.329  14.525  0.4277 -2.3161 -0.9077
 9041TIP3   OH248613   1.998   3.484   5.836  0.2081  0.3570 -0.5634
 9041TIP3    H148614   2.012   3.570   5.796 -0.7124  1.1837  0.8081
 9041TIP3    H248615   1.920   3.495   5.890 -1.9599 -2.2271 -2.8474
 9042TIP3   OH248616   3.318   6.800  13.439 -0.3770 -0.0403 -0.2492
 9042TIP3    H148617   3.262   6.844  13.504  0.1175 -0.4130  0.4443
 9042TIP3    H248618   3.288   6.709  13.441  1.2735 -0.6034  1.2977
 9043TIP3   OH248619   4.505   6.367   0.464 -0.0684  0.0527  0.0648
 9043TIP3    H148620   4.504   6.393   0.371  1.5772  1.4833  0.3881
 9043TIP3    H248621   4.427   6.408   0.501 -0.0202  0.6147 -0.4287
 9044TIP3   OH248622   3.228   2.626   2.647  0.2255  0.0766 -0.3771
 9044TIP3    H148623   3.280   2.547   2.635  0.8402  0.0702  1.9207
 9044TIP3    H248624   3.142   2.595   2.674  0.1990  0.1817 -0.3400
 9045TIP3   OH248625   3.639   2.689   0.092 -0.1852 -0.8174  1.0742
 9045TIP3    H148626   3.660   2.631   0.019 -1.4270 -0.7817  0.6746
 9045TIP3    H248627   3.656   2.637   0.170 -1.7657 -1.9206  0.7196
 9046TIP3   OH248628   3.715   4.052  11.067 -0.4474  0.3743 -0.7367
 9046TIP3    H148629   3.754   3.986  11.125 -0.6196 -0.1696 -1.2287
 9046TIP3    H248630   3.710   4.131  11.121 -1.3263 -0.3197  0.2522
 9047TIP3   OH248631   5.003   4.792  10.318  0.4633  0.0148  0.6768
 9047TIP3    H148632   4.971   4.830  10.399 -1.0830 -1.5734  0.8776
 9047TIP3    H248633   5.016   4.866  10.259 -1.1474  0.9545  1.4517
 9048TIP3   OH248634   3.059   5.999   6.081 -0.2630  0.1054 -0.1667
 9048TIP3    H148635   3.101   6.082   6.106  0.0217 -0.0037 -0.2832
 9048TIP3    H248636   3.111   5.967   6.008 -0.6793  0.0762 -0.4580
 9049TIP3   OH248637   2.421   4.659   5.212  0.2687  0.0787 -0.3339
 9049TIP3    H148638   2.453   4.674   5.123  0.2305  2.1609 -0.0327
 9049TIP3    H248639   2.500   4.662   5.266 -0.0234  2.2616  0.0612
 9050TIP3   OH248640   3.089   4.232   3.803 -0.2188 -0.0362  0.3434
 9050TIP3    H148641   3.137   4.208   3.724  1.4891  0.7372  1.0953
 9050TIP3    H248642   3.121   4.319   3.826 -2.3586  0.7385  0.6552
 9051TIP3   OH248643   2.270   5.020   1.205 -0.4716  0.0093  0.4888
 9051TIP3    H148644   2.178   4.997   1.197 -0.5216  0.5521 -0.5959
 9051TIP3    H248645   2.308   4.946   1.253 -0.7775 -2.0725 -2.2092
 9052TIP3   OH248646   6.792   3.573  15.675 -0.3026 -0.0215  0.2504
 9052TIP3    H148647   6.748   3.631  15.613  0.7497 -0.1454 -0.6551
 9052TIP3    H248648   6.763   3.485  15.650  0.8017 -0.1491 -0.6908
 9053TIP3   OH248649   6.262   1.556   1.141  0.1618 -0.2993  0.2097
 9053TIP3    H148650   6.222   1.513   1.216  1.0440 -4.0589 -1.2235
 9053TIP3    H248651   6.351   1.576   1.170  0.4940 -1.7190  0.2517
 9054TIP3   OH248652   2.271   2.630  15.367 -0.2038  0.1089  0.3125
 9054TIP3    H148653   2.293   2.538  15.379  2.8422  0.4331 -1.7722
 9054TIP3    H248654   2.205   2.631  15.299  0.7851 -0.5218 -0.6825
 9055TIP3   OH248655   5.090   5.159  14.625 -0.3715  0.3572 -0.0520
 9055TIP3    H148656   5.161   5.104  14.592  1.7770  2.6714  0.3972
 9055TIP3    H248657   5.064   5.212  14.549 -1.1886 -0.0520 -0.0579
 9056TIP3   OH248658   5.608   1.794   3.744  0.8407  0.2474 -0.5051
 9056TIP3    H148659   5.597   1.708   3.784 -0.3486  0.1871 -0.9329
 9056TIP3    H248660   5.542   1.849   3.787  0.9066  0.6892 -0.9645
 9057TIP3   OH248661   0.744   3.390   6.343 -0.0541 -0.0338  0.4011
 9057TIP3    H148662   0.745   3.296   6.361 -0.2721 -0.2600 -0.7166
 9057TIP3    H248663   0.834   3.418   6.360 -0.1564 -0.2870  1.4556
 9058TIP3   OH248664   4.288   4.006   0.110  0.0597 -0.5048  0.0973
 9058TIP3    H148665   4.299   4.049   0.195  1.3758 -0.9906  0.2021
 9058TIP3    H248666   4.214   4.051   0.070 -1.4204 -1.0737  2.0045
 9059TIP3   OH248667   0.298   5.732   6.299 -0.6536  0.8489 -0.8888
 9059TIP3    H148668   0.216   5.778   6.282 -1.1203 -0.7939 -3.7287
 9059TIP3    H248669   0.344   5.733   6.215 -0.2041 -2.7272 -0.8478
 9060TIP3   OH248670   4.726   6.516   2.437  0.6231  0.5679 -0.3418
 9060TIP3    H148671   4.814   6.542   2.411  0.3241  1.7988 -0.2013
 9060TIP3    H248672   4.708   6.567   2.516 -0.3257  0.5558 -0.5332
 9061TIP3   OH248673   3.196   4.477   5.104  0.2508  0.2798 -0.1340
 9061TIP3    H148674   3.163   4.556   5.148  0.2890  0.3485 -0.2291
 9061TIP3    H248675   3.262   4.509   5.043  0.1537  0.1907 -0.2872
 9062TIP3   OH248676   2.334   5.458  13.288 -0.1271  0.2420 -0.2785
 9062TIP3    H148677   2.430   5.459  13.285 -0.1227  0.6246 -0.1735
 9062TIP3    H248678   2.308   5.402  13.215  0.1730  0.4093 -0.5174
 9063TIP3   OH248679   1.530   2.432   6.083 -0.0381 -0.1859 -0.1591
 9063TIP3    H148680   1.489   2.347   6.099  1.7664 -0.8736  1.1242
 9063TIP3    H248681   1.622   2.412   6.067  0.4326  1.5153  0.2047
 9064TIP3   OH248682   6.669   1.906  11.352  0.3410  0.1622 -0.2375
 9064TIP3    H148683   6.604   1.971  11.328  0.6310 -0.2634 -2.3332
 9064TIP3    H248684   6.700   1.870  11.269  1.9253 -0.9499  0.7682
 9065TIP3   OH248685   4.424   0.395   5.261 -0.3650 -0.2770  0.6292
 9065TIP3    H148686   4.503   0.347   5.238 -0.7327 -0.4564 -0.3205
 9065TIP3    H248687   4.432   0.412   5.354  2.4947  2.7777  0.0211
 9066TIP3   OH248688   4.866   0.518   1.135  0.2930 -0.5352  0.2443
 9066TIP3    H148689   4.778   0.550   1.114 -0.9695 -3.5394  0.3246
 9066TIP3    H248690   4.913   0.520   1.051 -1.8409 -4.1403 -1.3156
 9067TIP3   OH248691   0.733   2.915   0.996  0.3891  0.0542  0.0643
 9067TIP3    H148692   0.822   2.887   0.974  0.7355  0.9302  0.2988
 9067TIP3    H248693   0.745   3.001   1.036 -0.5240 -0.0662  0.6081
 9068TIP3   OH248694   0.084   3.656  15.048 -0.5913 -0.1271  0.0263
 9068TIP3    H148695   0.143   3.699  15.110 -0.7526 -1.0800  0.8702
 9068TIP3    H248696   0.141   3.596  14.999 -0.6334 -0.0983 -0.0571
 9069TIP3   OH248697   1.055   2.111  13.412 -0.0512 -0.0798  0.2368
 9069TIP3    H148698   1.128   2.119  13.473  1.5135  0.3232 -1.5963
 9069TIP3    H248699   1.072   2.028  13.366 -0.4612  0.2749 -0.5684
 9070TIP3   OH248700   1.546   0.007  11.924 -0.2095  0.2406  0.2512
 9070TIP3    H148701   1.565   0.064  11.849 -2.8523 -0.0251 -0.7425
 9070TIP3    H248702   1.483   0.056  11.976 -0.3001 -0.6032  0.9633
 9071TIP3   OH248703   0.787   1.321   6.047 -0.0754 -0.3300 -0.0809
 9071TIP3    H148704   0.711   1.263   6.058 -1.4955  1.6314  1.1906
 9071TIP3    H248705   0.851   1.287   6.110 -1.1999 -0.1078  1.2563
 9072TIP3   OH248706   3.152   3.145  11.778 -0.3206  0.0203  0.3818
 9072TIP3    H148707   3.179   3.156  11.686  1.3128 -1.3739  0.6323
 9072TIP3    H248708   3.086   3.075  11.775  0.3468 -0.6215  0.3290
 9073TIP3   OH248709   3.740   6.739  16.306 -0.3080 -0.2179 -0.3526
 9073TIP3    H148710   3.731   6.821  16.255 -0.5871 -0.9667 -1.5594
 9073TIP3    H248711   3.718   6.670  16.243  1.2469 -1.3255  0.2517
 9074TIP3   OH248712   6.316   3.046   4.017 -0.1472 -0.3510 -0.5964
 9074TIP3    H148713   6.288   3.005   4.099  1.0713 -0.3053 -0.1313
 9074TIP3    H248714   6.298   3.139   4.029  1.5984 -0.0883  0.3514
 9075TIP3   OH248715   6.842   2.800  13.849 -0.0239 -0.1709  0.2297
 9075TIP3    H148716   6.920   2.762  13.888  0.1451  0.8675  0.9629
 9075TIP3    H248717   6.810   2.862  13.915 -0.0537  1.2429 -1.0600
 9076TIP3   OH248718   3.294   3.672   0.628  0.0239  0.0361 -0.0283
 9076TIP3    H148719   3.347   3.725   0.687 -1.0634  1.6223 -0.4201
 9076TIP3    H248720   3.297   3.584   0.666  2.2784  0.2402  0.3667
 9077TIP3   OH248721   5.105   3.773   2.835 -0.1338  0.1632  0.1650
 9077TIP3    H148722   5.058   3.856   2.849  0.1072  0.0657  1.6803
 9077TIP3    H248723   5.065   3.737   2.756 -2.1963  0.3868  1.0424
 9078TIP3   OH248724   0.804   3.742   5.909  0.3422 -0.6047 -0.1001
 9078TIP3    H148725   0.763   3.664   5.873 -0.4933 -0.5158  0.6341
 9078TIP3    H248726   0.733   3.806   5.917  1.2976  0.8413 -2.2610
 9079TIP3   OH248727   1.654   6.737   0.544  0.2167  0.0406  0.2034
 9079TIP3    H148728   1.641   6.791   0.623  1.2228  0.5138  0.0634
 9079TIP3    H248729   1.697   6.796   0.482 -1.2663 -0.0887 -1.0124
 9080TIP3   OH248730   5.063   2.549   3.724 -0.1635 -0.3552  0.1825
 9080TIP3    H148731   5.094   2.525   3.811 -0.5989  0.1397  0.4765
 9080TIP3    H248732   5.053   2.465   3.679  1.1082 -0.5561  0.2304
 9081TIP3   OH248733   5.305   0.938   5.222 -0.1988 -0.4076  0.6341
 9081TIP3    H148734   5.283   0.896   5.139 -1.9774 -0.1302  0.9368
 9081TIP3    H248735   5.238   0.909   5.283 -0.5078  1.5368  1.2796
 9082TIP3   OH248736   3.228   4.826  16.742 -0.2134  0.0389  0.2652
 9082TIP3    H148737   3.151   4.798  16.792 -1.2342  0.3659 -1.0726
 9082TIP3    H248738   3.244   4.916  16.770  1.3287 -0.8163  2.4576
 9083TIP3   OH248739   1.734   0.963   4.670  0.3703 -0.1766 -0.1206
 9083TIP3    H148740   1.690   1.041   4.636  1.2863  0.1902 -0.5043
 9083TIP3    H248741   1.682   0.936   4.746 -0.5228  0.2134 -0.5844
 9084TIP3   OH248742   6.565   3.823  13.026 -0.5128 -0.0600  0.2309
 9084TIP3    H148743   6.574   3.729  13.047  0.4018 -0.1238 -0.3888
 9084TIP3    H248744   6.574   3.827  12.931 -2.8106  0.4274 -0.0396
 9085TIP3   OH248745   6.244   5.470  15.610  0.7283  0.2872 -0.0218
 9085TIP3    H148746   6.222   5.556  15.574  2.1806  0.9593  0.6090
 9085TIP3    H248747   6.232   5.480  15.705 -1.6896 -1.0368 -0.1222
 9086TIP3   OH248748   2.239   0.624   0.651  0.2574  0.0842 -0.0621
 9086TIP3    H148749   2.262   0.563   0.721  0.0078  0.9101  0.7477
 9086TIP3    H248750   2.143   0.624   0.649  0.2530  0.5627  0.0386
 9087TIP3   OH248751   1.327   2.010   0.157 -0.0079  0.3459  0.7049
 9087TIP3    H148752   1.272   2.048   0.089  1.3970  1.4636  0.1290
 9087TIP3    H248753   1.301   2.056   0.237  0.1419  0.9419  0.4172
 9088TIP3   OH248754   3.856   1.524   1.788 -0.0060 -1.0194 -0.1201
 9088TIP3    H148755   3.938   1.554   1.826 -0.3313 -1.5520  1.0223
 9088TIP3    H248756   3.836   1.442   1.833 -1.1687 -0.8963 -0.3647
 9089TIP3   OH248757   6.222   3.969   1.611  0.1135 -0.6257  0.6471
 9089TIP3    H148758   6.249   4.060   1.624  0.6924 -0.8105  0.7707
 9089TIP3    H248759   6.250   3.948   1.522 -2.1255  0.0355 -0.2957
 9090TIP3   OH248760   5.223   4.676   3.559  0.1990  0.2329 -0.0069
 9090TIP3    H148761   5.234   4.585   3.529 -0.6326  0.7396 -2.0305
 9090TIP3    H248762   5.290   4.725   3.512 -0.4269  0.9191 -0.1863
 9091TIP3   OH248763   5.933   3.074  13.491  0.3287 -0.8734  0.2441
 9091TIP3    H148764   5.853   3.097  13.539 -0.1215 -0.9395 -0.4703
 9091TIP3    H248765   5.951   3.150  13.437  0.6044 -0.9659  0.2058
 9092TIP3   OH248766   4.227   5.293  13.347 -0.4736  0.7700 -0.6922
 9092TIP3    H148767   4.299   5.235  13.322  0.6584  2.1607 -0.7546
 9092TIP3    H248768   4.160   5.234  13.381  1.1498 -0.4870  0.4756
 9093TIP3   OH248769   4.230   2.411   4.112  0.4499 -0.1059  0.0743
 9093TIP3    H148770   4.174   2.487   4.096  0.3118 -0.2057  0.0742
 9093TIP3    H248771   4.170   2.344   4.146  0.3831 -0.5541 -0.8930
 9094TIP3   OH248772   3.455   3.357  15.197  0.2579 -0.3916  0.3201
 9094TIP3    H148773   3.450   3.448  15.225  1.8762 -0.2384  0.2155
 9094TIP3    H248774   3.529   3.320  15.247  1.0014 -1.0433 -1.1916
 9095TIP3   OH248775   5.762   1.368  12.431  0.4069  0.6519 -0.3616
 9095TIP3    H148776   5.763   1.278  12.398 -0.4924 -1.1792  3.9410
 9095TIP3    H248777   5.853   1.386  12.456  0.1209 -0.3034  1.4973
 9096TIP3   OH248778   2.637   2.369  16.515  1.0282  0.6634  0.1894
 9096TIP3    H148779   2.648   2.274  16.525 -1.2594  0.4294  0.9246
 9096TIP3    H248780   2.543   2.382  16.511  1.2841  2.9699  0.5431
 9097TIP3   OH248781   0.972   4.409   4.665 -0.3487 -0.2654 -0.0564
 9097TIP3    H148782   1.050   4.424   4.718 -0.7264 -2.2313  1.1547
 9097TIP3    H248783   0.993   4.332   4.613 -1.7451 -1.3551  0.9227
 9098TIP3   OH248784   1.456   6.303  12.568 -0.0581  0.0750 -0.1585
 9098TIP3    H148785   1.513   6.365  12.612 -0.6270  0.0831  0.5915
 9098TIP3    H248786   1.371   6.347  12.564 -0.1986 -0.2224 -0.6097
 9099TIP3   OH248787   6.487   4.609  12.440  0.1970 -0.1652  0.3156
 9099TIP3    H148788   6.492   4.647  12.528  0.3084 -0.2758  0.3569
 9099TIP3    H248789   6.479   4.684  12.381  1.7783  0.0004  0.2778
 9100TIP3   OH248790   5.985   1.411   2.484 -0.4085 -0.5484 -0.2833
 9100TIP3    H148791   5.981   1.321   2.514 -0.5590 -0.6932 -0.7354
 9100TIP3    H248792   6.078   1.427   2.467  0.0970  0.3418  2.6619
 9101TIP3   OH248793   4.907   1.453  13.552 -0.7504  0.1988 -0.0619
 9101TIP3    H148794   4.886   1.374  13.602 -0.9608 -0.1762 -0.7259
 9101TIP3    H248795   4.937   1.516  13.617  0.1846 -0.6905  0.3914
 9102TIP3   OH248796   5.673   0.248  15.338  0.2179  0.1765 -0.1346
 9102TIP3    H148797   5.591   0.257  15.289  0.3022 -0.7400 -0.4663
 9102TIP3    H248798   5.659   0.300  15.417 -0.1132  1.2692 -0.8799
 9103TIP3   OH248799   5.356   2.420   2.878 -0.2172 -0.3836  0.5111
 9103TIP3    H148800   5.281   2.463   2.837 -0.0979  1.0041  1.6616
 9103TIP3    H248801   5.426   2.426   2.813 -0.5494  0.1078  0.1999
 9104TIP3   OH248802   6.433   5.027  14.908  0.9267 -0.4333 -0.0165
 9104TIP3    H148803   6.337   5.034  14.907  0.9160 -0.3076 -1.8558
 9104TIP3    H248804   6.450   4.937  14.932  0.2961 -0.7449 -0.6856
 9105TIP3   OH248805   2.668   1.116  15.311 -0.0647  0.8330  0.0245
 9105TIP3    H148806   2.623   1.143  15.231 -1.1055 -0.9185 -0.0324
 9105TIP3    H248807   2.642   1.024  15.323  0.6647  0.8402  1.9679
 9106TIP3   OH248808   3.476   4.768  13.601  0.0748  0.6194 -0.4039
 9106TIP3    H148809   3.394   4.729  13.571  1.0634 -1.3212 -0.7429
 9106TIP3    H248810   3.515   4.805  13.521 -0.8240  2.3500 -0.0962
 9107TIP3   OH248811   0.943   0.939   5.771  0.4188 -0.1738 -0.5361
 9107TIP3    H148812   0.910   0.940   5.861  0.3404 -0.2403 -0.5644
 9107TIP3    H248813   0.865   0.934   5.716  0.3418  1.7829 -0.6721
 9108TIP3   OH248814   4.797   6.311  11.373  0.6388  0.7332 -0.4664
 9108TIP3    H148815   4.877   6.328  11.325  1.0907  1.1187  0.4033
 9108TIP3    H248816   4.775   6.395  11.414 -0.0404  0.5543 -0.4502
 9109TIP3   OH248817   2.741   6.442  13.522  0.0329 -0.1759 -0.3376
 9109TIP3    H148818   2.709   6.515  13.576  1.3870  0.5704 -0.5026
 9109TIP3    H248819   2.751   6.480  13.434  0.3770 -0.6694 -0.5155
 9110TIP3   OH248820   6.589   6.156  11.353  0.0155  0.4237  0.7081
 9110TIP3    H148821   6.618   6.105  11.277 -0.8637 -0.8167  1.1646
 9110TIP3    H248822   6.603   6.247  11.328 -0.2571  0.0427 -0.9411
 9111TIP3   OH248823   4.925   3.478   4.443  0.2914 -0.3367  0.5943
 9111TIP3    H148824   4.867   3.483   4.367  0.2115  2.0590  0.7265
 9111TIP3    H248825   4.999   3.425   4.414  0.1880  0.4155 -1.1396
 9112TIP3   OH248826   1.467   2.326   3.745  0.2195  0.4878 -0.1639
 9112TIP3    H148827   1.416   2.280   3.812  4.6007 -2.9036  1.3525
 9112TIP3    H248828   1.480   2.414   3.781 -2.7636  0.8755  0.2061
 9113TIP3   OH248829   0.244   0.205  11.340  0.1088  0.0263 -0.1301
 9113TIP3    H148830   0.326   0.163  11.313  0.7908  1.8636 -1.0619
 9113TIP3    H248831   0.198   0.221  11.258 -0.8110 -0.1979  0.3311
 9114TIP3   OH248832   2.336   3.619  15.541  0.0586  0.5762  0.1862
 9114TIP3    H148833   2.413   3.676  15.537  0.7515 -0.3701 -0.7782
 9114TIP3    H248834   2.373   3.532  15.559 -0.6138 -0.1751 -1.8719
 9115TIP3   OH248835   2.063   3.463  11.378 -0.2424 -0.1026  0.3708
 9115TIP3    H148836   2.054   3.433  11.288  1.6486 -2.1605  0.7721
 9115TIP3    H248837   1.995   3.529  11.389 -1.1595 -0.5189 -2.2452
 9116TIP3   OH248838   3.081   1.648   4.548 -0.0557  0.2989 -0.7205
 9116TIP3    H148839   3.154   1.586   4.549  0.7103  1.1552 -1.4712
 9116TIP3    H248840   3.007   1.598   4.513  0.4290 -0.3248 -0.8679
 9117TIP3   OH248841   6.776   1.536   5.749 -0.2158  0.0535 -0.4606
 9117TIP3    H148842   6.771   1.442   5.728  0.3546 -0.1438  0.2881
 9117TIP3    H248843   6.686   1.567   5.734 -0.2743 -0.4682 -1.3317
 9118TIP3   OH248844   2.186   1.981   5.552 -0.6845  1.1345  0.2329
 9118TIP3    H148845   2.141   1.921   5.612 -0.8077  0.8146 -0.1703
 9118TIP3    H248846   2.220   1.924   5.483 -1.7878  1.6378 -0.7679
 9119TIP3   OH248847   4.653   5.320  17.114 -0.1825 -0.1248 -0.0270
 9119TIP3    H148848   4.569   5.275  17.105 -0.4062  0.2203  0.3040
 9119TIP3    H248849   4.631   5.403  17.155  0.5298 -0.7587  1.7209
 9120TIP3   OH248850   4.331   2.937   3.976 -0.0710  0.1325 -0.0802
 9120TIP3    H148851   4.424   2.958   3.971  0.1677 -0.7656  0.3179
 9120TIP3    H248852   4.292   3.012   4.020  0.3267  0.8809 -0.9767
 9121TIP3   OH248853   3.688   0.599   2.327 -0.0859  0.6554 -0.3685
 9121TIP3    H148854   3.696   0.656   2.250  2.5323  0.6382 -0.2132
 9121TIP3    H248855   3.766   0.543   2.322 -0.1684  0.2612  1.9820
 9122TIP3   OH248856   6.579   3.547  11.889  0.2560 -0.4749 -0.3001
 9122TIP3    H148857   6.565   3.640  11.906  0.0293 -0.3080 -1.3123
 9122TIP3    H248858   6.660   3.543  11.839  0.0598 -0.7855 -0.5970
 9123TIP3   OH248859   6.691   6.036  11.137 -0.3786  0.3387 -0.1258
 9123TIP3    H148860   6.767   6.061  11.084  0.9632 -0.4240  1.3597
 9123TIP3    H248861   6.708   5.944  11.160 -0.4866  0.8691  2.2892
 9124TIP3   OH248862   1.356   0.834  12.480  0.0074  0.1856 -0.2278
 9124TIP3    H148863   1.417   0.831  12.553  1.2292  0.7676 -1.1777
 9124TIP3    H248864   1.383   0.761  12.423  2.1902  2.4436 -2.3656
 9125TIP3   OH248865   4.806   0.471   2.386 -0.1808 -0.1628 -0.6812
 9125TIP3    H148866   4.740   0.426   2.332 -1.3287  1.1128 -0.4103
 9125TIP3    H248867   4.804   0.423   2.470 -1.8908  0.7447 -0.1542
 9126TIP3   OH248868   1.807   2.815  11.891  0.5347  1.2115 -0.5489
 9126TIP3    H148869   1.750   2.811  11.968  0.1284 -0.7852 -0.9003
 9126TIP3    H248870   1.824   2.908  11.879 -3.0234  1.9743 -0.6616
 9127TIP3   OH248871   3.162   2.732   0.271  0.0431  0.7444  0.5704
 9127TIP3    H148872   3.148   2.639   0.291 -1.0949  1.3054  2.7172
 9127TIP3    H248873   3.238   2.756   0.323 -0.6040  1.3551  1.2474
 9128TIP3   OH248874   6.284   6.561   1.533  0.6683 -0.0757  1.0564
 9128TIP3    H148875   6.290   6.508   1.612  0.9282 -1.6861 -0.0025
 9128TIP3    H248876   6.346   6.520   1.472  2.2607  2.5182  0.7644
 9129TIP3   OH248877   0.842   3.133   0.205  0.1951 -0.1091  0.0655
 9129TIP3    H148878   0.928   3.175   0.216  0.7665 -1.4202  0.8843
 9129TIP3    H248879   0.820   3.101   0.293  0.0643 -1.9845 -0.6151
 9130TIP3   OH248880   4.203   2.531  11.419  0.1838  0.0559 -0.5192
 9130TIP3    H148881   4.299   2.525  11.420  0.1534 -1.5155 -2.1706
 9130TIP3    H248882   4.182   2.586  11.494  2.3129 -0.5053  0.5667
 9131TIP3   OH248883   3.587   6.237   4.497  0.0302 -0.0699 -0.1042
 9131TIP3    H148884   3.545   6.157   4.529  0.9628 -0.7061 -0.4297
 9131TIP3    H248885   3.657   6.254   4.561  0.6833 -0.2694 -0.7597
 9132TIP3   OH248886   3.507   5.931   5.389  0.4640 -0.2562  0.6063
 9132TIP3    H148887   3.502   5.978   5.473  1.4299  0.4381  0.2842
 9132TIP3    H248888   3.472   5.993   5.325  1.3028 -0.1463  0.2499
 9133TIP3   OH248889   1.596   1.234   5.891 -0.0739 -0.1620  0.1449
 9133TIP3    H148890   1.542   1.258   5.967  0.8804 -0.9320  1.1023
 9133TIP3    H248891   1.651   1.162   5.923  0.3092 -0.5409 -1.3094
 9134TIP3   OH248892   5.013   3.123  13.894  0.1678 -0.2583  0.5530
 9134TIP3    H148893   5.021   3.213  13.862  0.9489 -0.5692 -0.1459
 9134TIP3    H248894   4.944   3.128  13.961 -0.2985  0.7184  0.0245
 9135TIP3   OH248895   5.342   4.383  16.037  0.0300  0.2234 -0.0556
 9135TIP3    H148896   5.353   4.437  15.959 -0.0321  0.9588  0.4364
 9135TIP3    H248897   5.429   4.345  16.052  0.1154  0.3185 -0.3028
 9136TIP3   OH248898   0.983   1.027   2.177 -0.3985  0.5908 -0.1101
 9136TIP3    H148899   1.015   0.937   2.187  0.1933  0.7323 -0.6493
 9136TIP3    H248900   1.021   1.074   2.251  1.8494  1.0666 -1.4719
 9137TIP3   OH248901   2.817   4.773  12.057  0.2013  0.0149 -0.3723
 9137TIP3    H148902   2.799   4.734  12.142 -0.2545  0.4261 -0.2752
 9137TIP3    H248903   2.848   4.700  12.003  0.0647 -0.3348  0.0151
 9138TIP3   OH248904   0.977   3.241   4.482  0.3606  0.0651  0.3380
 9138TIP3    H148905   0.992   3.153   4.447  0.8813 -0.4576  1.7843
 9138TIP3    H248906   1.058   3.262   4.529 -0.9424 -0.0439  2.7519
 9139TIP3   OH248907   3.325   5.718  17.104  0.1101  0.0600  0.1899
 9139TIP3    H148908   3.306   5.757  17.019  2.5018  0.3957 -0.2568
 9139TIP3    H248909   3.380   5.642  17.085  0.1491 -0.2454  1.3987
 9140TIP3   OH248910   4.603   1.702  14.568 -0.0866  0.0737  0.4379
 9140TIP3    H148911   4.676   1.755  14.535  0.2557 -1.7250 -1.9547
 9140TIP3    H248912   4.641   1.648  14.636 -0.0428  1.5702  1.6610
 9141TIP3   OH248913   0.665   5.334   3.915  0.4096 -0.2753  0.4682
 9141TIP3    H148914   0.729   5.405   3.923 -0.8404  0.8855  0.6169
 9141TIP3    H248915   0.714   5.255   3.935  1.7197  0.6072  0.8940
 9142TIP3   OH248916   0.730   3.315   2.164  0.3668  0.2716  0.2330
 9142TIP3    H148917   0.677   3.271   2.231  0.1875  1.6630  1.0365
 9142TIP3    H248918   0.817   3.277   2.174  0.0018 -0.5835  0.2626
 9143TIP3   OH248919   1.164   4.016   0.620 -0.2553  0.3999  0.1878
 9143TIP3    H148920   1.173   3.986   0.530 -1.6645  2.8497 -0.8927
 9143TIP3    H248921   1.108   3.951   0.662 -0.9126  0.0146 -1.2087
 9144TIP3   OH248922   3.447   4.669   5.424  0.1768  0.0002 -0.1601
 9144TIP3    H148923   3.493   4.745   5.459 -0.0947  0.0076  0.1931
 9144TIP3    H248924   3.487   4.594   5.469 -0.8204  0.0775  0.9214
 9145TIP3   OH248925   4.042   5.912  15.103  0.3883  0.3986 -0.1245
 9145TIP3    H148926   4.064   5.932  15.194  2.6777 -1.0353 -0.2887
 9145TIP3    H248927   4.023   5.997  15.064  2.1861  1.3934  1.0283
 9146TIP3   OH248928   2.600   1.596  16.150 -0.3755 -0.5737 -0.6095
 9146TIP3    H148929   2.515   1.638  16.146  0.2055  0.7299  0.1936
 9146TIP3    H248930   2.655   1.656  16.201  0.4937 -2.3071  0.6145
 9147TIP3   OH248931   2.199   4.485   5.715  0.7888  0.2960 -0.0330
 9147TIP3    H148932   2.268   4.535   5.672 -0.4386  3.0327  0.9742
 9147TIP3    H248933   2.224   4.483   5.807 -1.2857  3.1090  0.7358
 9148TIP3   OH248934   0.232   4.405   1.671  0.4280  0.0711 -0.4365
 9148TIP3    H148935   0.305   4.430   1.615 -0.3403 -0.7433 -1.8611
 9148TIP3    H248936   0.161   4.465   1.647 -0.5465 -1.5535 -1.8820
 9149TIP3   OH248937   2.114   5.711   2.250 -0.8989  0.3983  0.3626
 9149TIP3    H148938   2.126   5.659   2.171 -1.6045 -0.4599  0.7876
 9149TIP3    H248939   2.182   5.680   2.310 -0.0211  1.4272 -0.0744
 9150TIP3   OH248940   1.724   3.970  13.343  0.0686  0.1218 -0.2023
 9150TIP3    H148941   1.660   3.919  13.392  0.3168 -0.4681 -0.4805
 9150TIP3    H248942   1.683   4.055  13.329  0.8246  1.1736  3.0251
 9151TIP3   OH248943   5.125   3.226   4.849 -0.1839  0.7292  0.1559
 9151TIP3    H148944   5.068   3.291   4.809  0.9093  2.0979  0.7487
 9151TIP3    H248945   5.208   3.272   4.865  1.1364 -1.1980 -0.7153
 9152TIP3   OH248946   1.621   2.224   1.709 -0.4947 -0.3877  0.5234
 9152TIP3    H148947   1.590   2.297   1.655 -2.3462 -2.0628 -0.7970
 9152TIP3    H248948   1.544   2.196   1.757  0.2059 -1.4841  1.0384
 9153TIP3   OH248949   4.800   6.078   0.041 -0.1293 -0.0672  0.0417
 9153TIP3    H148950   4.834   6.159   0.003 -0.9121 -0.9428 -2.7490
 9153TIP3    H248951   4.865   6.012   0.019  0.2746 -0.3411  1.8902
 9154TIP3   OH248952   5.674   1.199  11.657  0.1020  0.4241  0.0533
 9154TIP3    H148953   5.761   1.161  11.657  0.1937  0.4672 -2.5467
 9154TIP3    H248954   5.661   1.232  11.568 -3.3307 -1.4027 -0.3166
 9155TIP3   OH248955   3.356   0.714   1.596  0.2280 -0.1178  0.2721
 9155TIP3    H148956   3.371   0.643   1.657  1.2375  0.2483  0.4541
 9155TIP3    H248957   3.365   0.674   1.509  0.7847 -0.2147  0.3739
 9156TIP3   OH248958   2.925   6.141  15.363  0.6627  0.0372  0.0059
 9156TIP3    H148959   2.853   6.154  15.424  0.0931  0.2530 -0.7044
 9156TIP3    H248960   2.937   6.226  15.321  1.3267  0.0011  0.1036
 9157TIP3   OH248961   3.286   2.632  15.593  0.0750  0.6500  0.1097
 9157TIP3    H148962   3.241   2.621  15.677  1.2637 -0.1244  0.6618
 9157TIP3    H248963   3.304   2.543  15.563 -1.8952  0.8391 -1.8707
 9158TIP3   OH248964   1.463   5.631  11.558 -0.2127  0.3873  0.3774
 9158TIP3    H148965   1.437   5.633  11.466 -0.9621 -0.1193  0.5675
 9158TIP3    H248966   1.381   5.619  11.606  0.3339 -1.0792  1.0139
 9159TIP3   OH248967   5.003   4.362   1.639 -0.5406  0.1986  0.7346
 9159TIP3    H148968   4.936   4.370   1.571  1.4652  0.8737 -1.3121
 9159TIP3    H248969   5.023   4.452   1.663  1.3232  0.1988 -0.5674
 9160TIP3   OH248970   4.369   2.458  15.002  0.2654 -0.6978 -0.4929
 9160TIP3    H148971   4.416   2.509  15.068 -1.1058  1.1884 -0.8934
 9160TIP3    H248972   4.278   2.458  15.032 -0.1515 -0.9438 -1.6975
 9161TIP3   OH248973   4.531   0.273  15.755 -0.4658 -0.4704 -0.5636
 9161TIP3    H148974   4.449   0.228  15.775 -0.6130 -0.5504 -1.2935
 9161TIP3    H248975   4.592   0.243  15.821 -0.9176 -0.7307 -0.2573
 9162TIP3   OH248976   6.058   5.034   3.125  0.0064 -1.0246 -0.2654
 9162TIP3    H148977   6.036   4.998   3.211  1.3151 -0.6527  0.2461
 9162TIP3    H248978   6.149   5.008   3.111 -0.3192 -1.4725 -1.7529
 9163TIP3   OH248979   0.387   3.991  13.853 -0.4649  0.4254  0.1055
 9163TIP3    H148980   0.361   4.001  13.944 -1.1750 -1.0632  0.0925
 9163TIP3    H248981   0.385   4.080  13.817  0.4063  1.1135  1.6689
 9164TIP3   OH248982   4.415   1.937   1.624 -0.0204 -0.0890  0.3310
 9164TIP3    H148983   4.439   2.026   1.650 -0.7727 -0.5717  2.9656
 9164TIP3    H248984   4.498   1.894   1.603  0.2734  1.4618 -2.0340
 9165TIP3   OH248985   3.858   2.403   2.241  0.5026 -0.4034  0.7737
 9165TIP3    H148986   3.774   2.381   2.200  0.1510 -0.8590  1.7174
 9165TIP3    H248987   3.885   2.322   2.284  1.3898 -0.2289  0.5577
 9166TIP3   OH248988   3.977   1.749   2.591  0.0728  0.0542  0.3113
 9166TIP3    H148989   3.998   1.796   2.510  1.0083  1.9778  1.5788
 9166TIP3    H248990   4.057   1.701   2.613 -0.4339 -1.0967 -0.2639
 9167TIP3   OH248991   5.218   5.484   4.851 -0.1727  0.4499  0.8294
 9167TIP3    H148992   5.292   5.448   4.803  0.0882  2.5352 -0.4337
 9167TIP3    H248993   5.216   5.576   4.827 -2.2773  0.7725  2.0072
 9168TIP3   OH248994   5.972   0.388  16.609  0.4630  0.3091 -0.2030
 9168TIP3    H148995   5.995   0.356  16.522  1.0319  0.6762 -0.1994
 9168TIP3    H248996   5.877   0.393  16.609  0.4749  0.7736 -0.9822
 9169TIP3   OH248997   2.260   0.010   1.018 -0.0598 -0.0533  0.9082
 9169TIP3    H148998   2.185   0.004   1.077  0.2585 -0.5657  1.2719
 9169TIP3    H248999   2.330   0.047   1.072  0.0408  0.1128  0.6630
 9170TIP3   OH249000   4.324   6.582  12.901  0.6804 -0.1926 -0.3245
 9170TIP3    H149001   4.399   6.637  12.879  0.7599 -0.9705 -2.1495
 9170TIP3    H249002   4.268   6.639  12.954  1.2902  1.2790 -1.1892
 9171TIP3   OH249003   5.671   5.497   1.315  0.3918 -0.2961 -0.8045
 9171TIP3    H149004   5.652   5.423   1.373  0.2347  0.9119  0.7187
 9171TIP3    H249005   5.763   5.485   1.290  0.9343 -0.0136  0.9497
 9172TIP3   OH249006   4.319   5.091   6.205 -0.0313 -0.6854 -0.3986
 9172TIP3    H149007   4.226   5.099   6.228  0.0588 -0.6298 -0.0413
 9172TIP3    H249008   4.319   5.049   6.119 -0.4812  1.7527 -1.6820
 9173TIP3   OH249009   1.739   5.164  15.662  0.2761 -0.0064  0.6416
 9173TIP3    H149010   1.743   5.195  15.572  2.3316 -2.4655 -0.2240
 9173TIP3    H249011   1.664   5.104  15.663 -0.3673  0.7768  0.8868
 9174TIP3   OH249012   4.371   5.078  13.026  0.5951 -0.1358 -0.4292
 9174TIP3    H149013   4.432   5.103  12.956 -0.4994 -0.0874 -1.3828
 9174TIP3    H249014   4.290   5.123  13.005  0.4800  0.5990  1.3818
 9175TIP3   OH249015   5.583   3.414   3.234  0.2811  0.0067 -0.4694
 9175TIP3    H149016   5.663   3.466   3.238  0.6317 -0.4745 -1.1588
 9175TIP3    H249017   5.518   3.467   3.281  1.0845  0.2252  0.4265
 9176TIP3   OH249018   3.230   4.549  11.064 -0.1365 -0.0331  0.0776
 9176TIP3    H149019   3.174   4.598  11.125  0.3257 -0.0384  0.5165
 9176TIP3    H249020   3.315   4.546  11.108  0.5643  1.0829 -1.1476
 9177TIP3   OH249021   6.616   0.101   5.997 -0.3229  0.0475 -0.3038
 9177TIP3    H149022   6.526   0.074   6.016  0.0453 -1.1135 -0.1431
 9177TIP3    H249023   6.669   0.059   6.065  0.3458  0.6701 -0.4314
 9178TIP3   OH249024   0.347   5.485   4.366 -0.5420  0.1926  0.4451
 9178TIP3    H149025   0.345   5.520   4.277  0.8297 -1.7419 -0.4343
 9178TIP3    H249026   0.423   5.527   4.406  1.3223 -1.8554 -0.7258
 9179TIP3   OH249027   1.330   5.273  14.930  0.2758 -0.4289 -0.7124
 9179TIP3    H149028   1.325   5.233  14.843 -0.1740 -0.0011 -0.8828
 9179TIP3    H249029   1.372   5.206  14.984  2.0427 -0.1039 -1.6098
 9180TIP3   OH249030   0.936   1.770  17.024 -0.1719 -0.0054 -0.2169
 9180TIP3    H149031   0.882   1.725  16.960 -0.5901  0.1725  0.0058
 9180TIP3    H249032   0.916   1.726  17.107  0.9683 -0.7710 -0.3255
 9181TIP3   OH249033   1.018   3.420  16.250 -0.5534  0.2407 -0.1963
 9181TIP3    H149034   1.067   3.366  16.187 -2.7232 -0.4446 -1.4209
 9181TIP3    H249035   1.033   3.510  16.222  1.6589  0.2295  0.7682
 9182TIP3   OH249036   0.434   3.603  15.490  0.2989  0.7166 -0.3664
 9182TIP3    H149037   0.438   3.641  15.402 -0.8621 -0.9549 -1.1976
 9182TIP3    H249038   0.367   3.655  15.535 -0.0315  0.7732 -0.9083
 9183TIP3   OH249039   2.493   6.739  13.219 -0.2994  0.2632  0.2409
 9183TIP3    H149040   2.502   6.784  13.303  0.1437  0.0887  0.2913
 9183TIP3    H249041   2.405   6.701  13.221  0.3066 -1.2241  1.3780
 9184TIP3   OH249042   5.065   1.501  11.974 -0.1462 -0.2853  0.0359
 9184TIP3    H149043   5.010   1.460  11.907 -0.8599 -1.4805  1.3025
 9184TIP3    H249044   5.020   1.583  11.994 -0.0168  0.0008 -0.8229
 9185TIP3   OH249045   2.102   3.683   6.101 -0.1983  0.2807  0.7545
 9185TIP3    H149046   2.117   3.591   6.121 -1.3183 -0.6403 -2.1028
 9185TIP3    H249047   2.189   3.721   6.094  0.6103 -1.8285 -2.8799
 9186TIP3   OH249048   0.843   4.841   4.813 -0.1257 -0.3031  0.5006
 9186TIP3    H149049   0.808   4.757   4.781  0.1703 -0.4213  0.4826
 9186TIP3    H249050   0.938   4.829   4.811 -0.1031 -0.3847  1.6304
 9187TIP3   OH249051   5.772   0.218   2.108 -0.0079 -0.1981  0.1132
 9187TIP3    H149052   5.748   0.310   2.116  1.9131  0.3905 -0.1771
 9187TIP3    H249053   5.818   0.213   2.024  0.5266 -1.2676  0.4470
 9188TIP3   OH249054   4.765   0.002   2.078  0.3070 -0.0079 -0.2586
 9188TIP3    H149055   4.856   0.030   2.068  0.9127 -1.2126  1.4760
 9188TIP3    H249056   4.747  -0.051   2.000  1.3722 -0.4493 -0.2097
 9189TIP3   OH249057   0.915   2.971  15.714  0.1013  0.0613  0.2959
 9189TIP3    H149058   1.003   2.935  15.723  0.3026  0.2971 -0.6153
 9189TIP3    H249059   0.923   3.036  15.644 -0.1758  2.0830  2.0213
 9190TIP3   OH249060   0.920   2.429  13.117 -0.0711 -0.4158 -0.2544
 9190TIP3    H149061   0.863   2.500  13.147  0.3691 -0.4328  0.6355
 9190TIP3    H249062   0.877   2.396  13.038 -1.0111 -0.0705  0.1002
 9191TIP3   OH249063   0.788   5.563   4.403  0.6223  0.4332 -0.1597
 9191TIP3    H149064   0.818   5.475   4.380 -0.5107  0.3459 -1.4389
 9191TIP3    H249065   0.817   5.618   4.330  2.0692  1.3111  1.0341
 9192TIP3   OH249066   1.937   5.940  11.429  0.4266 -0.0150 -0.1641
 9192TIP3    H149067   1.863   5.967  11.374 -1.6155 -1.9032  1.4816
 9192TIP3    H249068   2.008   5.925  11.367 -1.0393  0.2458 -2.0260
 9193TIP3   OH249069   3.612   5.619  13.501 -0.3830  0.0994  0.1694
 9193TIP3    H149070   3.693   5.668  13.515 -0.0207  0.1414 -1.7834
 9193TIP3    H249071   3.546   5.686  13.484 -0.4101 -0.0095 -0.1514
 9194TIP3   OH249072   1.374   3.327  15.022 -0.1020  0.1664 -0.4438
 9194TIP3    H149073   1.283   3.297  15.029  0.2560 -0.7506  0.6359
 9194TIP3    H249074   1.425   3.246  15.024  0.8880  0.7779  2.0572
 9195TIP3   OH249075   5.386   5.763  11.759 -0.3169 -0.4967 -0.0536
 9195TIP3    H149076   5.389   5.674  11.792 -0.7845 -0.4303  0.1709
 9195TIP3    H249077   5.294   5.777  11.735 -0.2721 -0.0272  0.0464
 9196TIP3   OH249078   1.333   0.144   1.825 -0.7037  0.8627  0.2062
 9196TIP3    H149079   1.316   0.231   1.789  0.0083  0.9278  0.0081
 9196TIP3    H249080   1.413   0.116   1.781 -0.7582  0.2382  0.5047
 9197TIP3   OH249081   0.981   4.280   3.132  0.0264  0.2041 -0.0083
 9197TIP3    H149082   1.062   4.330   3.142  0.7155 -1.0474  0.9585
 9197TIP3    H249083   0.927   4.307   3.207  0.4534 -0.5540  0.5917
 9198TIP3   OH249084   3.897   3.500  14.512 -0.1833 -0.2993 -0.3447
 9198TIP3    H149085   3.989   3.524  14.504 -0.6472  2.6166  1.6215
 9198TIP3    H249086   3.895   3.434  14.581  0.4746 -0.9949 -0.9761
 9199TIP3   OH249087   1.262   5.325  13.543  0.1630  0.1739 -0.2206
 9199TIP3    H149088   1.279   5.366  13.628  0.9336  0.9509 -0.7263
 9199TIP3    H249089   1.167   5.313  13.541  0.2825 -1.4015  1.4199
 9200TIP3   OH249090   6.002   2.416   4.629  0.3676  0.3369 -0.4540
 9200TIP3    H149091   5.965   2.361   4.699  1.5620  0.5657  0.3764
 9200TIP3    H249092   5.960   2.501   4.642 -1.5549 -0.3283 -1.7965
 9201TIP3   OH249093   4.138   3.697  13.283  0.0235 -0.0643 -0.4668
 9201TIP3    H149094   4.162   3.614  13.325 -0.0896  0.7220  1.2118
 9201TIP3    H249095   4.043   3.697  13.283  0.0114  0.6181  0.7110
 9202TIP3   OH249096   3.776   4.730   6.296 -0.1792 -0.7684 -0.1791
 9202TIP3    H149097   3.689   4.698   6.319 -0.0753 -1.6165 -0.8991
 9202TIP3    H249098   3.828   4.650   6.283  0.7850 -0.2705  0.5366
 9203TIP3   OH249099   2.272   6.511  15.061  0.3084  0.3333  0.1119
 9203TIP3    H149100   2.299   6.442  15.121  1.0792 -1.8427 -2.5273
 9203TIP3    H249101   2.200   6.473  15.011  0.8810  1.3179 -1.5491
 9204TIP3   OH249102   2.728   6.620   5.339 -0.1617  0.1405  0.4295
 9204TIP3    H149103   2.768   6.619   5.426  0.5970  2.8218  0.1847
 9204TIP3    H249104   2.671   6.696   5.340 -0.4716 -0.0288 -1.3013
 9205TIP3   OH249105   6.643   2.858   4.585  0.5600  0.1772 -0.0645
 9205TIP3    H149106   6.562   2.829   4.545  0.8269  0.8202 -1.1165
 9205TIP3    H249107   6.682   2.779   4.621 -1.0718  0.0280  1.5053
 9206TIP3   OH249108   2.842   5.194   3.298 -0.0648  0.1076 -0.2937
 9206TIP3    H149109   2.841   5.107   3.259  1.5322 -0.3342  0.5719
 9206TIP3    H249110   2.935   5.218   3.302 -0.1890  0.4669  2.3911
 9207TIP3   OH249111   2.619   6.664  13.631  0.3032 -0.1320 -0.1781
 9207TIP3    H149112   2.534   6.655  13.586  0.1070  0.8095 -0.0252
 9207TIP3    H249113   2.612   6.747  13.678  0.8040 -0.7099  0.9686
 9208TIP3   OH249114   4.458   2.835   4.217  0.1875 -0.0496 -0.1444
 9208TIP3    H149115   4.504   2.762   4.177 -1.5959 -2.4071  1.8102
 9208TIP3    H249116   4.386   2.854   4.157 -0.6260 -1.4384  0.3456
 9209TIP3   OH249117   2.176   0.540   3.001 -0.0889 -0.1590  0.1694
 9209TIP3    H149118   2.184   0.539   3.096 -1.4162  1.8212  0.3735
 9209TIP3    H249119   2.242   0.603   2.973 -1.7668  1.6980  0.1425
 9210TIP3   OH249120   2.831   5.833  16.071 -0.5328 -0.5323  0.8247
 9210TIP3    H149121   2.896   5.867  16.010 -1.3354  0.5006  0.5211
 9210TIP3    H249122   2.809   5.747  16.036 -0.6655 -0.1302 -0.1107
 9211TIP3   OH249123   0.582   4.926   4.234  0.2931  0.2757 -0.2800
 9211TIP3    H149124   0.650   4.970   4.184  0.6565  1.0510  0.8746
 9211TIP3    H249125   0.500   4.965   4.202  0.5210  0.7899 -0.2408
 9212TIP3   OH249126   5.219   4.577   1.210 -0.1115  0.4582  0.5545
 9212TIP3    H149127   5.245   4.662   1.174 -0.7789  0.5331  0.2393
 9212TIP3    H249128   5.146   4.596   1.268 -0.8818 -0.0165 -0.2487
 9213TIP3   OH249129   6.223   3.669   1.424 -0.1405  0.1529  0.2249
 9213TIP3    H149130   6.267   3.596   1.379 -0.0299 -0.1591  0.8346
 9213TIP3    H249131   6.198   3.729   1.353  0.3584 -0.1573 -0.2213
 9214TIP3   OH249132   3.607   1.866  16.528  0.4797 -0.0447  0.2593
 9214TIP3    H149133   3.528   1.888  16.577 -0.9876 -1.1250 -1.5074
 9214TIP3    H249134   3.669   1.935  16.551 -0.5234  0.1776  2.6439
 9215TIP3   OH249135   5.453   0.906  16.188  0.2921  0.3315  0.0501
 9215TIP3    H149136   5.431   0.848  16.115  0.5718  0.6653 -0.3026
 9215TIP3    H249137   5.480   0.988  16.146 -3.3241  1.9624  0.5639
 9216TIP3   OH249138   1.056   0.373  14.326 -0.1322  0.7358 -0.2844
 9216TIP3    H149139   1.002   0.317  14.381  0.3122  2.7114  2.3761
 9216TIP3    H249140   1.113   0.313  14.278  0.9666 -1.1457  3.0920
 9217TIP3   OH249141   3.893   1.589   6.225  0.2688 -0.1493  0.3360
 9217TIP3    H149142   3.876   1.563   6.315 -0.5101 -0.8321 -0.0077
 9217TIP3    H249143   3.816   1.562   6.176 -0.8558  3.1347 -0.0083
 9218TIP3   OH249144   4.891   1.900   0.371 -0.4184 -0.2724 -0.3286
 9218TIP3    H149145   4.834   1.921   0.297 -0.5047  2.2774  0.3693
 9218TIP3    H249146   4.832   1.893   0.446 -0.0423  0.3596  0.0370
 9219TIP3   OH249147   0.987   4.709  12.158 -0.3261 -0.6145 -0.3720
 9219TIP3    H149148   0.913   4.667  12.201 -0.2895 -0.0088  0.3080
 9219TIP3    H249149   0.991   4.668  12.071 -0.1517 -2.1309  0.3333
 9220TIP3   OH249150   2.322   0.960  14.933  0.1637  0.1205  0.2763
 9220TIP3    H149151   2.358   1.032  14.881 -0.0368 -0.2416 -0.3680
 9220TIP3    H249152   2.390   0.893  14.932 -0.7394 -0.8150 -1.4635
 9221TIP3   OH249153   5.542   5.054  14.381 -0.4351 -0.0521 -0.0405
 9221TIP3    H149154   5.595   5.069  14.303 -0.8168 -2.4894 -0.8473
 9221TIP3    H249155   5.605   5.020  14.446 -0.7378 -1.8775 -0.6417
 9222TIP3   OH249156   0.086   2.787  16.921  0.3429  0.0356  0.4513
 9222TIP3    H149157   0.073   2.701  16.881  1.0433  0.7411 -1.4149
 9222TIP3    H249158   0.067   2.849  16.851  1.6283  1.3579  1.2083
 9223TIP3   OH249159   3.892   3.729   4.757 -0.4073 -0.1582 -0.5502
 9223TIP3    H149160   3.835   3.802   4.782 -1.9101 -1.7403  0.9012
 9223TIP3    H249161   3.959   3.727   4.826 -1.2735 -1.0482  0.3043
 9224TIP3   OH249162   0.852   4.036   6.140 -0.1704  0.3588  0.3286
 9224TIP3    H149163   0.831   4.114   6.192  1.7511  1.5636 -0.6260
 9224TIP3    H249164   0.783   4.032   6.074 -0.9906  0.4793  1.1475
 9225TIP3   OH249165   2.403   2.185  12.939 -0.0434 -0.1607 -0.1033
 9225TIP3    H149166   2.468   2.191  13.009 -0.1146 -2.2437  0.2139
 9225TIP3    H249167   2.453   2.202  12.859  0.6903 -0.6593  0.2313
 9226TIP3   OH249168   4.903   3.346  17.072 -0.0304 -0.2337 -0.6680
 9226TIP3    H149169   4.846   3.388  17.136  0.8149  2.2099 -1.4230
 9226TIP3    H249170   4.888   3.252  17.086 -3.6582  0.2260 -0.3468
 9227TIP3   OH249171   3.360   2.086   2.026 -0.0128 -0.0990 -0.3494
 9227TIP3    H149172   3.429   2.044   1.975 -1.6283 -2.9310 -0.3970
 9227TIP3    H249173   3.379   2.064   2.117 -0.4152 -0.2244 -0.2907
 9228TIP3   OH249174   2.152   3.205  11.497 -0.3438 -0.2341  0.4943
 9228TIP3    H149175   2.094   3.271  11.458  0.3852 -0.5138 -1.1398
 9228TIP3    H249176   2.143   3.219  11.592  0.1848  2.5555  0.2278
 9229TIP3   OH249177   4.768   1.394  14.115  0.0411  0.8354  0.5507
 9229TIP3    H149178   4.832   1.443  14.063  0.3989 -0.0852  0.0917
 9229TIP3    H249179   4.722   1.460  14.166  0.0433  1.7132 -0.5604
 9230TIP3   OH249180   3.329   1.304   3.382 -0.2107  0.2011  0.5707
 9230TIP3    H149181   3.402   1.242   3.385  0.2594  0.7808  1.6373
 9230TIP3    H249182   3.344   1.363   3.456  0.7253  3.1468 -1.7485
 9231TIP3   OH249183   6.685   1.406  16.434  0.1835  0.3415  0.8125
 9231TIP3    H149184   6.595   1.405  16.401  1.3459 -0.4842 -2.7911
 9231TIP3    H249185   6.719   1.319  16.415  2.1558  1.0651  0.7808
 9232TIP3   OH249186   5.486   4.622   1.882 -0.6577 -0.1504 -0.2474
 9232TIP3    H149187   5.524   4.534   1.892  0.5085  0.4787  1.3707
 9232TIP3    H249188   5.522   4.654   1.800  1.7380  0.0571  0.7829
 9233TIP3   OH249189   2.495   3.981   6.005 -1.0854  0.0664  0.3638
 9233TIP3    H149190   2.456   4.024   6.081 -1.0787  0.0171  0.3953
 9233TIP3    H249191   2.533   4.052   5.955 -0.8465  0.0718  0.5495
 9234TIP3   OH249192   0.938   3.254  14.588 -0.4684 -0.1606  0.6042
 9234TIP3    H149193   0.849   3.253  14.552 -0.6565  2.4097  0.8144
 9234TIP3    H249194   0.975   3.337  14.558  2.2866 -1.6051 -0.3552
 9235TIP3   OH249195   2.751   1.179   2.785  0.1830  0.0583  0.5594
 9235TIP3    H149196   2.789   1.091   2.791 -2.1741 -1.0430  0.7396
 9235TIP3    H249197   2.670   1.173   2.837 -0.6499  1.9836 -0.4260
 9236TIP3   OH249198   3.424   4.663  16.103  0.3280  0.4480  0.0598
 9236TIP3    H149199   3.387   4.742  16.064  0.0132 -0.5846 -1.8966
 9236TIP3    H249200   3.471   4.620  16.031  2.1383 -0.1949  1.5508
 9237TIP3   OH249201   2.279   5.352  10.162 -0.0939 -0.6764 -0.2256
 9237TIP3    H149202   2.287   5.431  10.108 -1.0506  0.7971  1.6885
 9237TIP3    H249203   2.370   5.325  10.178  0.2633  0.3308 -0.4961
 9238TIP3   OH249204   0.818   5.761   3.924 -0.0794  0.0765  0.1144
 9238TIP3    H149205   0.898   5.813   3.934  0.3625 -0.3212 -1.1464
 9238TIP3    H249206   0.747   5.825   3.918  0.2398  0.4587  0.3905
 9239TIP3   OH249207   1.105   3.724   4.868 -0.4840  0.6368  0.1474
 9239TIP3    H149208   1.111   3.629   4.861 -2.9804  0.4941 -1.2704
 9239TIP3    H249209   1.141   3.757   4.786  0.3105  0.9289  0.6046
 9240TIP3   OH249210   0.003   5.336   3.178 -0.2176  0.1678  0.0449
 9240TIP3    H149211  -0.082   5.348   3.220  0.7327  1.9841  1.6222
 9240TIP3    H249212   0.051   5.417   3.197  1.0360  0.2508 -2.8929
 9241TIP3   OH249213   1.768   4.644  14.262 -0.0400 -0.3069 -0.5358
 9241TIP3    H149214   1.833   4.679  14.200  0.0721 -0.4148 -0.4804
 9241TIP3    H249215   1.818   4.626  14.341 -0.3964  0.8805 -0.0293
 9242TIP3   OH249216   0.627   5.904  10.537 -0.3760  0.4223  0.4709
 9242TIP3    H149217   0.533   5.894  10.519  0.0141  0.8163 -2.2291
 9242TIP3    H249218   0.658   5.816  10.556 -1.1045  0.1028  0.2034
 9243TIP3   OH249219   6.235   0.569  11.898  0.3814 -0.7871 -0.2221
 9243TIP3    H149220   6.254   0.507  11.968  0.1749 -1.5169 -0.8095
 9243TIP3    H249221   6.300   0.639  11.910 -0.1393 -0.5079  1.1576
 9244TIP3   OH249222   0.471   3.498   3.839  0.8931  0.8801 -0.4219
 9244TIP3    H149223   0.534   3.474   3.907  0.2885 -0.1008 -0.1914
 9244TIP3    H249224   0.512   3.470   3.757  1.0095  0.7713 -0.3268
 9245TIP3   OH249225   1.043   0.257   4.227 -0.2144 -0.3681  0.1102
 9245TIP3    H149226   1.010   0.188   4.285  0.7303 -0.9910 -0.0780
 9245TIP3    H249227   0.982   0.256   4.152 -1.4200  0.4212  1.0333
 9246TIP3   OH249228   4.779   3.529  14.166 -0.5500 -0.3138 -0.2084
 9246TIP3    H149229   4.795   3.623  14.152 -2.8956  0.1761 -0.0522
 9246TIP3    H249230   4.684   3.522  14.174 -0.3445 -2.5524  1.0678
 9247TIP3   OH249231   0.605   6.488  12.851 -0.0730 -0.5774 -0.3141
 9247TIP3    H149232   0.547   6.532  12.912 -2.6312 -1.6014 -1.8569
 9247TIP3    H249233   0.612   6.398  12.885 -1.4814 -1.1414 -1.4353
 9248TIP3   OH249234   0.886   6.291  11.595 -0.3399 -0.2784  0.5125
 9248TIP3    H149235   0.829   6.308  11.520 -1.1593 -1.3370  0.8550
 9248TIP3    H249236   0.969   6.332  11.573 -0.9803  0.5929 -0.3756
 9249TIP3   OH249237   4.524   2.689   2.368  0.1973 -0.3481 -0.4804
 9249TIP3    H149238   4.494   2.755   2.306  0.7376 -1.0855 -1.5519
 9249TIP3    H249239   4.472   2.611   2.348  1.0783 -0.8933 -0.6922
 9250TIP3   OH249240   1.280   5.150  16.930 -0.2344 -0.0328  0.1700
 9250TIP3    H149241   1.301   5.194  17.012  2.5106 -0.7069 -0.0759
 9250TIP3    H249242   1.325   5.066  16.935 -0.4524 -0.3114 -1.7922
 9251TIP3   OH249243   4.323   3.219  17.020 -0.4483  0.8659 -0.5702
 9251TIP3    H149244   4.355   3.224  17.110  0.9843  0.2331 -1.0221
 9251TIP3    H249245   4.371   3.145  16.982 -1.1663  1.0165 -1.8055
 9252TIP3   OH249246   6.324   0.925  10.627  0.0438  0.7099 -0.1723
 9252TIP3    H149247   6.242   0.961  10.660  1.3002  2.1210  1.6211
 9252TIP3    H249248   6.355   0.866  10.696  1.4299  1.6668  0.0751
 9253TIP3   OH249249   0.524   1.457   1.909 -0.1094  0.2207  0.2628
 9253TIP3    H149250   0.557   1.544   1.932  1.9841 -1.0266  2.3771
 9253TIP3    H249251   0.491   1.421   1.991  0.5214 -1.5482 -0.2094
 9254TIP3   OH249252   1.407   1.691  15.867  0.0666  0.4321 -0.2766
 9254TIP3    H149253   1.329   1.648  15.832  1.4190 -0.3366 -2.5064
 9254TIP3    H249254   1.438   1.631  15.935 -0.6875  0.2371 -0.0860
 9255TIP3   OH249255   1.979   1.072  11.840 -0.1422 -0.4633 -0.2201
 9255TIP3    H149256   1.967   1.166  11.853  0.4169 -0.4358  0.1460
 9255TIP3    H249257   2.012   1.041  11.924 -3.4738 -1.5831  0.8437
 9256TIP3   OH249258   2.744   4.310   2.616  0.0408  0.3375  0.2364
 9256TIP3    H149259   2.737   4.325   2.710 -0.2180 -0.8560  0.4194
 9256TIP3    H249260   2.659   4.336   2.580  0.2030  0.9669  0.3022
 9257TIP3   OH249261   1.284   0.300  14.690 -0.0188  0.0991 -0.4539
 9257TIP3    H149262   1.313   0.301  14.781  0.2648  1.0078 -0.5492
 9257TIP3    H249263   1.324   0.221  14.653 -0.5467 -0.5548  0.3282
 9258TIP3   OH249264   3.692   3.153   2.967  0.2431  0.3107  0.6915
 9258TIP3    H149265   3.685   3.247   2.952 -1.3142  0.0547 -0.4445
 9258TIP3    H249266   3.662   3.113   2.885 -0.0117 -1.1646  1.4632
 9259TIP3   OH249267   2.374   2.139  15.491 -0.2900 -0.5220 -0.5555
 9259TIP3    H149268   2.466   2.141  15.463  0.8726 -0.8068  2.7420
 9259TIP3    H249269   2.328   2.192  15.426  2.5058  1.1168 -1.3996
 9260TIP3   OH249270   4.990   6.130  16.198 -0.1420  0.0486  0.4746
 9260TIP3    H149271   5.077   6.167  16.182 -0.2153 -0.0341 -0.1374
 9260TIP3    H249272   4.961   6.099  16.112 -1.2296  1.0582  0.4474
 9261TIP3   OH249273   3.778   0.894   6.542  0.0612  0.0232 -0.3118
 9261TIP3    H149274   3.787   0.980   6.499  1.3970 -0.2540 -0.6343
 9261TIP3    H249275   3.706   0.852   6.496  0.6676  0.2232 -1.4945
 9262TIP3   OH249276   4.638   3.307   2.227  0.0601 -0.0020  0.2756
 9262TIP3    H149277   4.628   3.346   2.140 -2.9251 -0.4136  0.3230
 9262TIP3    H249278   4.637   3.381   2.287 -1.0424  0.1593  0.0912
 9263TIP3   OH249279   0.554   2.272   3.520 -0.8390  0.3991 -0.1003
 9263TIP3    H149280   0.527   2.232   3.437  2.3246 -0.7510 -0.6819
 9263TIP3    H249281   0.532   2.364   3.509 -2.1700 -0.0235 -1.4492
 9264TIP3   OH249282   5.253   3.779   4.349 -0.1377  0.2274 -0.3707
 9264TIP3    H149283   5.179   3.731   4.313 -0.5457  0.3569  0.2835
 9264TIP3    H249284   5.276   3.732   4.429 -0.9624  1.4743  0.6360
 9265TIP3   OH249285   1.928   1.948  10.464 -0.1292 -0.1716  0.7575
 9265TIP3    H149286   1.959   1.883  10.528  1.6356  0.8931  1.0416
 9265TIP3    H249287   1.947   2.032  10.505  0.3705  0.5345 -0.8747
 9266TIP3   OH249288   2.307   2.933   6.315 -0.2292 -0.5237  0.3331
 9266TIP3    H149289   2.336   2.922   6.224 -0.4023 -1.6300  0.3987
 9266TIP3    H249290   2.362   2.872   6.365 -2.6288 -2.7496  0.4554
 9267TIP3   OH249291   3.789   5.152   2.120 -0.1336 -0.1898 -0.1275
 9267TIP3    H149292   3.786   5.192   2.033  0.4663  0.9603  0.3545
 9267TIP3    H249293   3.698   5.143   2.146 -0.3108  2.1041  0.2602
 9268TIP3   OH249294   5.340   0.486   4.475  0.2724 -0.1831  0.3669
 9268TIP3    H149295   5.331   0.576   4.444 -2.2998 -0.4842  0.0343
 9268TIP3    H249296   5.366   0.436   4.398 -0.2362 -0.0269  0.0953
 9269TIP3   OH249297   2.494   4.464  13.131  0.3220 -0.0221  0.0655
 9269TIP3    H149298   2.527   4.379  13.104 -1.3935 -1.4098  1.9969
 9269TIP3    H249299   2.458   4.503  13.051  1.4292 -0.9352 -0.9088
 9270TIP3   OH249300   3.937   2.649   5.265 -0.4759  0.2873 -0.0768
 9270TIP3    H149301   3.882   2.580   5.228 -0.5052  0.9746 -1.3622
 9270TIP3    H249302   3.876   2.721   5.282 -0.4977 -0.0667  1.5288
 9271TIP3   OH249303   4.634   6.026   0.254  0.2299  0.2679  0.2567
 9271TIP3    H149304   4.544   6.050   0.234  0.2410  0.2979  0.2418
 9271TIP3    H249305   4.680   6.037   0.171  0.3171  0.5781  0.3458
 9272TIP3   OH249306   3.852   2.551  15.258  0.4149 -0.3701 -0.1216
 9272TIP3    H149307   3.923   2.609  15.286  0.4265 -0.1382 -0.6184
 9272TIP3    H249308   3.838   2.573  15.166 -1.8695  1.2171  0.5190
 9273TIP3   OH249309   2.027   1.038   5.308 -0.2370  0.3056  0.0064
 9273TIP3    H149310   1.975   0.959   5.323  1.8969 -0.9345  1.4501
 9273TIP3    H249311   2.106   1.006   5.263  0.5559  1.6565  0.3996
 9274TIP3   OH249312   0.563   3.499  12.204 -0.2531 -0.6081 -0.3901
 9274TIP3    H149313   0.562   3.404  12.215  0.8568 -0.6843 -0.7990
 9274TIP3    H249314   0.478   3.520  12.167 -0.9235 -1.3110  0.6992
 9275TIP3   OH249315   5.374   5.943   6.703  0.2483  0.2885 -0.0740
 9275TIP3    H149316   5.427   5.864   6.714 -0.6789 -0.2787  0.3507
 9275TIP3    H249317   5.424   5.996   6.640  0.0447 -1.3705 -1.7190
 9276TIP3   OH249318   6.750   1.804  13.755 -0.4818  0.0843  0.2752
 9276TIP3    H149319   6.790   1.889  13.737 -0.3241  0.5132  2.3875
 9276TIP3    H249320   6.712   1.777  13.671 -2.0147  3.0198 -0.1101
 9277TIP3   OH249321   0.792   0.722  13.278  0.3358 -0.1242 -0.8222
 9277TIP3    H149322   0.885   0.710  13.261  0.0053 -1.8444 -1.5813
 9277TIP3    H249323   0.788   0.755  13.368  1.6699  0.3266 -0.9076
 9278TIP3   OH249324   2.163   4.912   2.132  0.1093  0.2615 -0.1215
 9278TIP3    H149325   2.199   4.918   2.043  0.2736 -0.8348 -0.1418
 9278TIP3    H249326   2.081   4.864   2.121  0.2767 -0.1399  0.3496
 9279TIP3   OH249327   2.506   4.488  14.705  0.4430  0.2353  0.4705
 9279TIP3    H149328   2.510   4.410  14.760  0.4591 -0.1717 -0.1092
 9279TIP3    H249329   2.429   4.475  14.650 -0.6424  1.4659  1.6165
 9280TIP3   OH249330   0.046   3.871  11.735  0.3076  0.1714 -0.5821
 9280TIP3    H149331   0.085   3.939  11.681  0.6651  1.1154  0.8097
 9280TIP3    H249332   0.100   3.868  11.814  0.6844 -2.1917 -0.8477
 9281TIP3   OH249333   2.454   6.217   0.390 -0.2179 -0.1736  0.0539
 9281TIP3    H149334   2.494   6.244   0.307 -1.1203 -0.1320 -0.3827
 9281TIP3    H249335   2.473   6.288   0.451  1.1702 -0.5792  0.1280
 9282TIP3   OH249336   5.682   4.892  14.815  0.6361  0.1223  0.0150
 9282TIP3    H149337   5.660   4.801  14.838 -0.1696  0.1854 -0.4689
 9282TIP3    H249338   5.769   4.886  14.774  0.4019 -0.4884 -0.4021
 9283TIP3   OH249339   0.880   5.549   2.354 -0.1917  0.0664  0.5247
 9283TIP3    H149340   0.921   5.632   2.376  1.7973 -1.0057  1.1452
 9283TIP3    H249341   0.890   5.495   2.432 -3.0845 -0.2223  0.7927
 9284TIP3   OH249342   0.708   1.844  14.492  0.0204  0.0890 -0.6106
 9284TIP3    H149343   0.656   1.921  14.516  1.1827  0.4335  0.9818
 9284TIP3    H249344   0.787   1.879  14.451 -0.3955 -0.3754 -1.8575
 9285TIP3   OH249345   1.923   5.841  14.690  0.3496  0.0954  0.3493
 9285TIP3    H149346   1.884   5.777  14.631 -1.2542  0.2975  1.1390
 9285TIP3    H249347   1.979   5.790  14.748  0.0626 -0.4187  0.1748
 9286TIP3   OH249348   1.897   6.519   0.712  0.4201  0.1708  0.0361
 9286TIP3    H149349   1.943   6.602   0.710  1.6397 -0.4864 -0.3390
 9286TIP3    H249350   1.958   6.457   0.671 -0.1869 -1.0358  0.9106
 9287TIP3   OH249351   5.831   1.416  13.004 -0.9729 -0.7928 -0.1180
 9287TIP3    H149352   5.748   1.435  12.961 -1.2249  0.1458  0.7433
 9287TIP3    H249353   5.805   1.371  13.085 -0.4877 -3.0117 -1.1034
 9288TIP3   OH249354   5.343   5.066  16.456  0.3056 -0.3672  0.0646
 9288TIP3    H149355   5.290   5.139  16.423 -0.9420 -0.8200  1.0019
 9288TIP3    H249356   5.328   5.066  16.550 -1.3054 -2.9717 -0.0787
 9289TIP3   OH249357   1.276   0.580   5.980  0.7166  0.0299  0.3667
 9289TIP3    H149358   1.355   0.632   5.993  0.0497  1.4729 -1.0354
 9289TIP3    H249359   1.208   0.627   6.029  0.6182 -1.0020  1.2616
 9290TIP3   OH249360   0.791   5.005  12.851  0.1578 -0.3697 -0.0254
 9290TIP3    H149361   0.717   5.043  12.803 -1.0504 -0.4886  1.6388
 9290TIP3    H249362   0.866   5.014  12.792 -1.3024 -0.8493 -2.0467
 9291TIP3   OH249363   4.641   0.799  15.129  0.3923 -0.1677  0.1172
 9291TIP3    H149364   4.605   0.887  15.116  1.1867  0.6464  2.7222
 9291TIP3    H249365   4.674   0.773  15.043  0.7800  2.3775 -0.5849
 9292TIP3   OH249366   4.956   4.128  16.006 -0.1398 -0.2072  0.3456
 9292TIP3    H149367   4.996   4.214  15.989  0.7238 -0.0676  2.6407
 9292TIP3    H249368   5.027   4.077  16.045 -1.0923 -1.4210  0.5198
 9293TIP3   OH249369   5.938   6.481  16.311  0.1277  0.1964  0.0124
 9293TIP3    H149370   5.981   6.409  16.358  1.0495  0.5273 -0.2965
 9293TIP3    H249371   5.994   6.557  16.327  0.0018  0.4981 -0.9188
 9294TIP3   OH249372   3.980   0.268   1.210 -0.0853  0.2234 -0.5252
 9294TIP3    H149373   4.001   0.308   1.126  3.1279  1.0231  0.5121
 9294TIP3    H249374   4.019   0.181   1.206 -1.7512 -0.5563 -0.5628
 9295TIP3   OH249375   4.371   3.875   3.584  0.3269 -0.0839  0.4860
 9295TIP3    H149376   4.350   3.817   3.511 -0.3203 -1.6939  1.8686
 9295TIP3    H249377   4.450   3.838   3.622  0.3370  0.3881  0.9376
 9296TIP3   OH249378   5.106   1.858  16.517  0.3059  0.1314 -0.0966
 9296TIP3    H149379   5.185   1.811  16.492  0.6784  0.0424  1.1698
 9296TIP3    H249380   5.125   1.891  16.605 -1.4796 -0.9136  0.7500
 9297TIP3   OH249381   6.619   4.543   0.608 -0.1965  0.2590 -0.0989
 9297TIP3    H149382   6.602   4.492   0.529  0.3664  0.3008 -0.2503
 9297TIP3    H249383   6.537   4.538   0.658 -0.2811 -0.4554 -0.2986
 9298TIP3   OH249384   6.258   0.664   2.744 -0.3364  0.9573 -0.7455
 9298TIP3    H149385   6.351   0.650   2.726  0.0159  1.2312  0.7154
 9298TIP3    H249386   6.250   0.651   2.838 -1.3746  3.0266 -0.4852
 9299TIP3   OH249387   6.151   6.439   2.454  0.0875  0.0159  0.0069
 9299TIP3    H149388   6.141   6.437   2.359 -2.1887  2.1169  0.0941
 9299TIP3    H249389   6.151   6.532   2.476  0.7606 -0.4149  2.0769
 9300TIP3   OH249390   0.723   5.136  13.379  0.2233 -0.0132 -0.1269
 9300TIP3    H149391   0.744   5.131  13.285 -0.3224  0.2550 -0.2669
 9300TIP3    H249392   0.710   5.229  13.396 -0.8716 -0.1589 -0.0643
 9301TIP3   OH249393   1.362   4.634   1.311  0.0546  0.5861  0.4040
 9301TIP3    H149394   1.299   4.695   1.351  1.1232  0.8206  1.7892
 9301TIP3    H249395   1.436   4.633   1.371  0.2375 -1.8059  0.2360
 9302TIP3   OH249396   4.066   2.287  12.428 -0.7332 -0.2975 -0.0341
 9302TIP3    H149397   4.017   2.355  12.382 -1.3396 -0.6314  0.0981
 9302TIP3    H249398   4.109   2.333  12.500 -1.8657 -0.1832  0.6009
 9303TIP3   OH249399   3.784   1.805   6.074  0.1385  0.6720 -0.4486
 9303TIP3    H149400   3.708   1.799   6.015 -0.0107  0.5267 -0.2407
 9303TIP3    H249401   3.823   1.718   6.073 -0.6522  0.2852  0.7166
 9304TIP3   OH249402   0.775   0.588  16.903  0.0716 -0.3460 -0.3040
 9304TIP3    H149403   0.818   0.567  16.986  0.3361 -0.5120 -0.4831
 9304TIP3    H249404   0.846   0.612  16.844 -0.0551 -0.8706 -0.6747
 9305TIP3   OH249405   1.590   5.891   3.938 -0.0249 -0.2281  0.1145
 9305TIP3    H149406   1.638   5.898   4.020 -0.0519 -1.2427  0.2358
 9305TIP3    H249407   1.524   5.824   3.955 -0.2450 -0.2105 -0.6333
 9306TIP3   OH249408   3.838   1.128  11.026  0.3957  0.3787  0.4098
 9306TIP3    H149409   3.757   1.163  10.990  0.5194 -1.2722 -1.7071
 9306TIP3    H249410   3.903   1.144  10.958  1.1362 -1.0625  0.7426
 9307TIP3   OH249411   5.428   3.156  14.012 -1.2194 -0.0575  0.1400
 9307TIP3    H149412   5.415   3.087  13.948  0.6592 -0.5569  0.2385
 9307TIP3    H249413   5.511   3.135  14.054 -1.0265  1.7902  0.7907
 9308TIP3   OH249414   2.708   5.894  15.415  0.0094  0.4014  0.0369
 9308TIP3    H149415   2.758   5.874  15.336 -0.2008  0.4399 -0.1058
 9308TIP3    H249416   2.649   5.819  15.426  2.1871 -1.1891  1.9306
 9309TIP3   OH249417   3.193   6.678   0.307  0.1424 -0.1068  0.0543
 9309TIP3    H149418   3.123   6.724   0.262 -0.6082 -0.0202  1.2487
 9309TIP3    H249419   3.185   6.587   0.278  0.1115  0.0723 -0.4998
 9310TIP3   OH249420   0.749   1.718   1.307  0.1654 -0.0138  0.0211
 9310TIP3    H149421   0.753   1.813   1.318 -0.2871  0.3403 -2.3209
 9310TIP3    H249422   0.704   1.686   1.385  0.5602  1.6572  0.9649
 9311TIP3   OH249423   0.917   2.012   2.702  0.4358 -0.6615 -0.1416
 9311TIP3    H149424   1.008   2.003   2.674  0.8450  1.5516  0.3312
 9311TIP3    H249425   0.904   1.940   2.764  1.3899 -1.8768 -1.2812
 9312TIP3   OH249426   4.230   1.556   1.564 -0.1739  0.0832  0.9033
 9312TIP3    H149427   4.249   1.558   1.658  1.6166  1.9250  0.5707
 9312TIP3    H249428   4.201   1.645   1.543 -0.0460 -0.1621 -0.3881
 9313TIP3   OH249429   6.312   3.833  12.021  0.5064  0.3694 -0.2724
 9313TIP3    H149430   6.283   3.924  12.016 -0.0266  0.4137  2.1828
 9313TIP3    H249431   6.396   3.837  12.067 -0.4717 -0.4637  1.7007
 9314TIP3   OH249432   2.434   4.300  15.590  0.5062 -0.1025 -0.2400
 9314TIP3    H149433   2.465   4.214  15.563 -1.1805 -0.6559 -0.5680
 9314TIP3    H249434   2.440   4.354  15.511  1.3076  0.0223 -0.1036
 9315TIP3   OH249435   3.224   1.139  14.780  0.4441  0.1880  0.4267
 9315TIP3    H149436   3.218   1.159  14.873 -0.0153  0.6126  0.3078
 9315TIP3    H249437   3.138   1.105  14.757  0.7859 -0.6192  0.3154
 9316TIP3   OH249438   1.616   5.948   0.924  0.1767 -0.1984 -0.2081
 9316TIP3    H149439   1.670   5.875   0.894  3.0030  2.2129 -1.5486
 9316TIP3    H249440   1.675   6.002   0.976 -1.8162  1.1513  0.7909
 9317TIP3   OH249441   6.732   2.164  13.978  0.0189 -0.2095  0.0456
 9317TIP3    H149442   6.642   2.130  13.981  0.4229 -1.2466  1.4827
 9317TIP3    H249443   6.728   2.235  13.914 -1.9817  0.1860  0.5256
 9318TIP3   OH249444   4.769   3.306  15.048  0.0564 -0.0114 -0.5367
 9318TIP3    H149445   4.798   3.251  14.976 -1.0774 -1.0182 -0.2673
 9318TIP3    H249446   4.734   3.244  15.113 -0.7138  0.9773  0.0281
 9319TIP3   OH249447   5.710   2.325  14.828 -0.5545  0.1176 -0.0275
 9319TIP3    H149448   5.758   2.243  14.812 -1.6577 -0.7969  1.1579
 9319TIP3    H249449   5.779   2.390  14.838  0.3416 -0.5431 -1.4828
 9320TIP3   OH249450   5.012   3.789   5.127  0.0917  0.6812 -0.2343
 9320TIP3    H149451   5.104   3.766   5.134  0.4109  0.5849 -3.4839
 9320TIP3    H249452   5.003   3.867   5.182  1.5241 -0.6136  1.9712
 9321TIP3   OH249453   5.702   1.785  12.449  0.6429  0.4975 -0.2703
 9321TIP3    H149454   5.733   1.821  12.366  0.1484 -0.5818 -0.9447
 9321TIP3    H249455   5.613   1.755  12.430  0.8142 -0.4825  0.4308
 9322TIP3   OH249456   4.069   1.811   0.014 -0.1481 -0.0690  0.5540
 9322TIP3    H149457   4.011   1.768  -0.049 -0.0961 -0.1232  0.5431
 9322TIP3    H249458   4.011   1.858   0.073 -0.1871  0.2515  0.2663
 9323TIP3   OH249459   5.260   4.980  12.312  0.1854  0.2282 -0.0529
 9323TIP3    H149460   5.267   4.997  12.218 -0.4841  1.1174  0.0488
 9323TIP3    H249461   5.350   4.985  12.344  0.9832 -3.4510 -1.1546
 9324TIP3   OH249462   5.843   1.828   1.200  0.2461 -0.1414 -0.8429
 9324TIP3    H149463   5.843   1.923   1.190  0.7942 -0.1628 -1.0477
 9324TIP3    H249464   5.845   1.794   1.111  0.5513 -0.3444 -0.7599
 9325TIP3   OH249465   5.370   1.760  16.681 -0.7515 -0.3131  0.1185
 9325TIP3    H149466   5.373   1.790  16.772  0.8025 -1.1216  0.3642
 9325TIP3    H249467   5.322   1.677  16.685 -0.5854 -0.4042  0.2086
 9326TIP3   OH249468   0.221   6.252  13.769 -0.0596 -0.2097 -0.7133
 9326TIP3    H149469   0.208   6.342  13.796  1.0955 -0.8885  2.4973
 9326TIP3    H249470   0.298   6.223  13.817 -1.0088 -3.2336 -0.8045
 9327TIP3   OH249471   0.853   5.065  11.997 -0.0789 -0.2030  0.1974
 9327TIP3    H149472   0.814   5.133  11.942  0.2976 -0.6361 -0.6236
 9327TIP3    H249473   0.796   4.989  11.984  0.7432 -0.6915 -0.6162
 9328TIP3   OH249474   1.901   3.508   2.402 -0.5112  0.1291  0.0966
 9328TIP3    H149475   1.912   3.541   2.492 -1.0625 -1.4222  0.7753
 9328TIP3    H249476   1.936   3.418   2.406 -0.9562 -0.1128 -1.1335
 9329TIP3   OH249477   2.327   6.604  11.195  0.2901  0.6209 -0.4547
 9329TIP3    H149478   2.289   6.600  11.283 -1.1992  0.2940 -1.0839
 9329TIP3    H249479   2.390   6.676  11.200  0.8304  0.0780  1.0868
 9330TIP3   OH249480   2.323   2.050  11.127 -0.1496  0.1418 -0.2001
 9330TIP3    H149481   2.274   2.113  11.179 -2.0170 -1.3421 -0.0494
 9330TIP3    H249482   2.396   2.024  11.182 -1.0776 -0.0588  0.9720
 9331TIP3   OH249483   6.467   3.206   3.780 -0.7036 -0.5303  0.1867
 9331TIP3    H149484   6.422   3.142   3.835 -0.5110 -0.4696  0.4213
 9331TIP3    H249485   6.533   3.244   3.838 -0.1704 -0.8130 -0.2203
 9332TIP3   OH249486   2.854   0.315  16.632  0.7368 -0.2057 -0.2798
 9332TIP3    H149487   2.845   0.344  16.542  1.4939  0.2462 -0.2196
 9332TIP3    H249488   2.815   0.228  16.634  1.9082 -0.7892 -1.3605
 9333TIP3   OH249489   5.557   4.668   1.535 -0.4222  0.1046 -0.0685
 9333TIP3    H149490   5.580   4.646   1.445 -0.5736  2.2708 -0.6811
 9333TIP3    H249491   5.629   4.721   1.567 -0.7548  0.0480  0.8134
 9334TIP3   OH249492   2.363   6.403  11.519  0.0434 -0.2239 -0.2706
 9334TIP3    H149493   2.406   6.321  11.493 -2.0317 -0.9506 -1.6020
 9334TIP3    H249494   2.304   6.377  11.590 -0.7180  0.0656 -0.7856
 9335TIP3   OH249495   0.502   4.574   2.174 -0.6726 -0.2161 -0.2819
 9335TIP3    H149496   0.439   4.565   2.103 -0.4294 -0.1529 -0.5050
 9335TIP3    H249497   0.583   4.600   2.131 -0.2573 -1.1584 -0.1019
 9336TIP3   OH249498   3.146   2.087   1.350 -0.0556 -0.4578 -0.0111
 9336TIP3    H149499   3.053   2.100   1.367 -0.1745 -1.9465  0.6967
 9336TIP3    H249500   3.173   2.023   1.416  1.3372 -0.4887 -0.5792
 9337TIP3   OH249501   4.018   2.902   3.080 -0.2595 -0.2565  0.4238
 9337TIP3    H149502   3.981   2.920   2.993 -2.5944  1.1721  1.6283
 9337TIP3    H249503   4.108   2.874   3.062 -0.6586 -0.0018 -2.4404
 9338TIP3   OH249504   2.892   0.096   3.411 -0.8559 -0.2567 -0.4325
 9338TIP3    H149505   2.945   0.071   3.486 -1.1913 -0.8249 -0.3744
 9338TIP3    H249506   2.867   0.187   3.428 -2.5338 -0.9471  1.1144
 9339TIP3   OH249507   6.775   5.126   2.564 -0.0339  0.9686  0.0260
 9339TIP3    H149508   6.814   5.040   2.578 -1.0954  0.2517 -1.2071
 9339TIP3    H249509   6.702   5.110   2.505  0.4504  2.9004 -1.1849
 9340TIP3   OH249510   4.669   6.592   3.020  0.0960  0.1855  0.4819
 9340TIP3    H149511   4.643   6.637   3.100  1.1440  1.2625  0.2375
 9340TIP3    H249512   4.608   6.624   2.954  0.2284  0.5207  0.5188
 9341TIP3   OH249513   1.949   6.267   3.234  0.3322 -0.2696 -0.0710
 9341TIP3    H149514   1.860   6.232   3.231  0.6653 -1.1477  0.0373
 9341TIP3    H249515   1.983   6.240   3.320 -0.2458  2.4849  1.1488
 9342TIP3   OH249516   2.612   4.260   1.049  0.0819  0.2379 -0.2736
 9342TIP3    H149517   2.667   4.182   1.047 -1.5697 -0.9397 -1.4890
 9342TIP3    H249518   2.571   4.258   1.136 -1.4967 -1.4143 -0.9958
 9343TIP3   OH249519   5.948   3.305  14.837  0.3665 -0.4802 -0.2192
 9343TIP3    H149520   5.963   3.288  14.743 -0.6456  0.9646 -0.6726
 9343TIP3    H249521   5.866   3.259  14.856 -0.1847  0.3947 -0.4199
 9344TIP3   OH249522   5.551   5.376  15.663  0.3202  0.1511 -0.1250
 9344TIP3    H149523   5.515   5.351  15.577 -1.1516 -1.3217  0.8678
 9344TIP3    H249524   5.645   5.367  15.653  0.3324  1.7864 -2.1177
 9345TIP3   OH249525   2.529   2.584  14.143 -0.4953 -0.1502 -0.1402
 9345TIP3    H149526   2.504   2.647  14.210 -0.3869  0.8393 -1.0060
 9345TIP3    H249527   2.616   2.554  14.169  0.1135  1.2269 -0.5348
 9346TIP3   OH249528   5.961   4.296   1.594 -0.2236 -0.2642 -0.1201
 9346TIP3    H149529   5.919   4.376   1.564 -0.0955  0.1163  0.6884
 9346TIP3    H249530   5.890   4.242   1.629 -0.2306 -0.2321 -0.0851
 9347TIP3   OH249531   1.001   0.004   2.854  0.4492  0.6711  0.0420
 9347TIP3    H149532   1.058  -0.055   2.804  0.2602  0.5746 -0.0591
 9347TIP3    H249533   0.918  -0.043   2.860  0.5140  0.6274  0.5634
 9348TIP3   OH249534   6.727   2.388   1.747 -0.8123 -0.6960 -0.3071
 9348TIP3    H149535   6.662   2.447   1.783  0.2291  0.5829 -0.4425
 9348TIP3    H249536   6.787   2.445   1.698  0.2187 -1.8617 -0.4585
 9349TIP3   OH249537   4.012   3.954   4.201 -0.0966  0.2468 -0.1984
 9349TIP3    H149538   3.922   3.970   4.230 -0.0835  1.3881 -0.7489
 9349TIP3    H249539   4.067   4.000   4.265  0.0330  0.6753 -0.6119
 9350TIP3   OH249540   5.864   2.116  14.766  0.2220  0.1268 -0.2753
 9350TIP3    H149541   5.875   2.021  14.772  0.9853  0.2682  1.0403
 9350TIP3    H249542   5.858   2.134  14.673 -0.4329 -1.2642 -0.5299
 9351TIP3   OH249543   3.008   4.079   5.509  0.5979  0.3791  0.8399
 9351TIP3    H149544   3.031   4.164   5.472  0.2166  0.0872 -0.1166
 9351TIP3    H249545   3.053   4.016   5.452 -1.3553 -0.1472 -0.1868
 9352TIP3   OH249546   6.483   1.870  14.679  0.0173  0.2519  0.6623
 9352TIP3    H149547   6.502   1.942  14.618 -0.6560  2.3547  2.7759
 9352TIP3    H249548   6.558   1.870  14.739  0.2556 -1.2092  0.3919
 9353TIP3   OH249549   2.023   4.359   5.500  1.1488 -0.0927 -0.4051
 9353TIP3    H149550   2.047   4.401   5.583 -0.2777  0.7051 -0.3477
 9353TIP3    H249551   2.096   4.378   5.441  1.0619  1.5337 -0.0443
 9354TIP3   OH249552   4.932   1.943   5.463  0.7836 -0.4246 -0.0520
 9354TIP3    H149553   4.907   1.963   5.373 -0.3818 -2.5201 -0.2672
 9354TIP3    H249554   4.998   1.874   5.455  2.4661  1.0205  0.6893
 9355TIP3   OH249555   2.935   5.279   1.918 -0.4050  0.1337  0.2960
 9355TIP3    H149556   2.906   5.310   2.004 -1.4471 -0.2250  0.0883
 9355TIP3    H249557   2.874   5.319   1.856  1.1861  1.5315 -0.4455
 9356TIP3   OH249558   0.909   1.529  10.582  0.4134 -0.0811  0.6449
 9356TIP3    H149559   0.925   1.559  10.672  1.1515  0.7656  0.2507
 9356TIP3    H249560   0.819   1.555  10.564  0.8263  1.4136  0.5410
 9357TIP3   OH249561   1.596   3.619  12.129  0.3330  0.3661 -0.1178
 9357TIP3    H149562   1.634   3.589  12.212 -0.5615 -2.0522 -0.4897
 9357TIP3    H249563   1.655   3.586  12.062 -0.7445 -0.7837 -0.5498
 9358TIP3   OH249564   1.735   3.452  12.571 -0.2399 -0.8983  0.0612
 9358TIP3    H149565   1.655   3.469  12.522 -0.1730 -0.6573  0.0348
 9358TIP3    H249566   1.710   3.385  12.635 -0.9893  0.6077  1.4058
 9359TIP3   OH249567   1.131   6.315  15.596  0.9450  0.4055 -0.3684
 9359TIP3    H149568   1.046   6.273  15.608 -0.0063  1.2473 -3.2906
 9359TIP3    H249569   1.111   6.408  15.587  2.4230  0.8698  0.6654
 9360TIP3   OH249570   2.033   0.010  11.166  0.1283 -0.4940  0.0371
 9360TIP3    H149571   2.114  -0.011  11.212  0.8406  1.9200  0.0120
 9360TIP3    H249572   2.043  -0.031  11.080  1.9605  0.8393 -0.4461
 9361TIP3   OH249573   1.398   5.617  15.855 -0.3493 -0.2395 -0.2985
 9361TIP3    H149574   1.493   5.631  15.852 -0.0647 -2.0972 -1.9413
 9361TIP3    H249575   1.373   5.641  15.944  1.9728 -1.4412  0.7588
 9362TIP3   OH249576   4.121   4.045  12.048 -0.0068  0.1046  0.6677
 9362TIP3    H149577   4.052   4.020  11.986 -0.4501  1.0615  0.7515
 9362TIP3    H249578   4.145   4.134  12.021  2.3058 -0.7605 -0.3304
 9363TIP3   OH249579   3.610   6.798   1.918 -0.1181 -0.5137  0.3191
 9363TIP3    H149580   3.640   6.862   1.983 -1.6607  0.9933 -0.3859
 9363TIP3    H249581   3.644   6.830   1.835 -1.8930  0.1301 -0.2122
 9364TIP3   OH249582   3.098   4.239  14.709 -0.5829 -0.0074 -0.5471
 9364TIP3    H149583   3.153   4.233  14.631  0.0009 -2.5498 -0.0449
 9364TIP3    H249584   3.128   4.318  14.754 -0.0556  0.7961 -2.2385
 9365TIP3   OH249585   1.180   1.203   1.732 -0.5182  1.1674  0.3155
 9365TIP3    H149586   1.154   1.239   1.816  1.9632  3.6347  0.1669
 9365TIP3    H249587   1.236   1.128   1.754  0.3065  1.9361  0.9270
 9366TIP3   OH249588   2.079   6.314   3.861 -0.5537 -0.5485  0.2016
 9366TIP3    H149589   2.062   6.228   3.821  0.1035 -0.4079 -0.3915
 9366TIP3    H249590   2.175   6.320   3.865 -0.4596  1.4697 -2.6805
 9367TIP3   OH249591   5.187   2.603  11.433  0.1630 -0.4164  0.3639
 9367TIP3    H149592   5.193   2.671  11.500  0.4516  0.0531 -0.1359
 9367TIP3    H249593   5.135   2.534  11.475  0.2485 -0.0888  1.0354
 9368TIP3   OH249594   4.076   4.762  12.267  0.6529  0.3397 -0.6104
 9368TIP3    H149595   3.987   4.731  12.251  0.3843 -0.2853  1.7731
 9368TIP3    H249596   4.132   4.704  12.215 -0.1179 -1.7059  0.7309
 9369TIP3   OH249597   3.721   5.104   3.603 -0.0156  0.8867 -0.4603
 9369TIP3    H149598   3.792   5.142   3.655 -0.2096  0.3596  0.2053
 9369TIP3    H249599   3.761   5.081   3.520  1.1208 -1.3369  0.6265
 9370TIP3   OH249600   3.027   6.738   5.311  0.2934  0.0410 -0.2925
 9370TIP3    H149601   3.122   6.747   5.302  0.2877 -0.6454 -1.2386
 9370TIP3    H249602   3.009   6.647   5.285 -0.6147  0.1528 -0.0892
 9371TIP3   OH249603   3.917   6.603  11.133 -0.1951  0.2132  0.6772
 9371TIP3    H149604   3.975   6.619  11.058  0.5598  1.4057  1.4625
 9371TIP3    H249605   3.835   6.574  11.095  0.4274  0.0354 -0.5678
 9372TIP3   OH249606   4.799   6.314   5.723 -0.3042 -0.3275 -0.1167
 9372TIP3    H149607   4.738   6.359   5.665 -0.6055  0.1477  0.5514
 9372TIP3    H249608   4.842   6.385   5.771  0.4211 -0.6808 -0.2264
 9373TIP3   OH249609   1.149   0.275  13.373  0.0987 -0.4206  0.0071
 9373TIP3    H149610   1.075   0.215  13.360 -0.0111 -0.2439 -0.1933
 9373TIP3    H249611   1.156   0.323  13.290 -0.6142  0.7458  0.5999
 9374TIP3   OH249612   0.235   3.514   0.089  0.4008  0.0998  0.0341
 9374TIP3    H149613   0.181   3.554   0.157 -1.0685  1.1204 -1.6470
 9374TIP3    H249614   0.204   3.552   0.008  3.0654  0.0180 -1.1400
 9375TIP3   OH249615   1.331   4.574  10.047  0.2810  0.2603  0.2321
 9375TIP3    H149616   1.345   4.658  10.002 -0.5438 -0.8441 -2.2623
 9375TIP3    H249617   1.418   4.535  10.051  0.6125  1.0384  1.0835
 9376TIP3   OH249618   0.323   1.774   3.671  0.9265  0.4286  0.0792
 9376TIP3    H149619   0.411   1.759   3.705  0.4636 -3.0719  0.0669
 9376TIP3    H249620   0.266   1.723   3.729 -0.4333 -1.7340 -2.8890
 9377TIP3   OH249621   2.341   6.401  17.028  0.3861  0.4272 -0.1626
 9377TIP3    H149622   2.326   6.311  17.056 -0.2371  0.8063  0.7708
 9377TIP3    H249623   2.335   6.398  16.933 -0.6597 -0.3447 -0.0903
 9378TIP3   OH249624   6.479   4.918   2.036 -0.5730 -0.3724  0.3526
 9378TIP3    H149625   6.385   4.931   2.022 -0.8981 -2.0476  0.8008
 9378TIP3    H249626   6.490   4.926   2.130 -0.2110  0.0980  0.2717
 9379TIP3   OH249627   2.598   5.845  11.155  0.1563  0.0645  0.1304
 9379TIP3    H149628   2.543   5.923  11.161  0.5506  0.2278  1.9103
 9379TIP3    H249629   2.680   5.877  11.115  0.1441  0.4649  0.4185
 9380TIP3   OH249630   3.792   3.401  12.543 -0.4338  0.4912 -0.4450
 9380TIP3    H149631   3.741   3.365  12.470  1.0581 -0.1467 -1.1968
 9380TIP3    H249632   3.773   3.495  12.541  0.6928  0.7226 -2.5915
 9381TIP3   OH249633   6.150   0.234  11.303 -0.0233 -0.0510  0.5343
 9381TIP3    H149634   6.207   0.252  11.228 -2.8780  2.1484 -1.3910
 9381TIP3    H249635   6.093   0.163  11.273  0.1657 -0.6054  1.4727
 9382TIP3   OH249636   6.647   0.843   6.384 -0.3197  0.0356  0.0258
 9382TIP3    H149637   6.651   0.797   6.468 -0.9052  0.6943  0.4279
 9382TIP3    H249638   6.735   0.879   6.371 -0.5936  1.1700  1.0881
 9383TIP3   OH249639   4.704   4.056  14.170 -0.1350 -0.3835  0.7012
 9383TIP3    H149640   4.663   3.979  14.131  1.1174 -1.5533  1.5787
 9383TIP3    H249641   4.635   4.122  14.171 -1.8383 -2.0841  1.6734
 9384TIP3   OH249642   0.698   3.426  14.307 -0.3074 -0.1126  0.1434
 9384TIP3    H149643   0.692   3.409  14.401  1.4332 -3.2977 -0.1903
 9384TIP3    H249644   0.759   3.500  14.300 -1.2775  0.8553  1.5219
 9385TIP3   OH249645   0.710   0.296  13.023  0.2369 -0.1778 -0.1747
 9385TIP3    H149646   0.702   0.321  13.115 -0.4966  0.4067 -0.3833
 9385TIP3    H249647   0.759   0.214  13.024  1.1771  0.3754  0.6598
 9386TIP3   OH249648   3.897   4.329  11.394 -0.1312  0.3017 -0.6614
 9386TIP3    H149649   3.964   4.363  11.453 -1.4785  1.0233  0.5078
 9386TIP3    H249650   3.912   4.234  11.393 -0.0708  0.2717  0.8447
 9387TIP3   OH249651   3.689   0.779   4.785  0.0158 -0.0270 -0.2538
 9387TIP3    H149652   3.728   0.738   4.863 -0.8890 -1.9388 -0.7470
 9387TIP3    H249653   3.747   0.853   4.765  1.5840 -0.8974  0.8737
 9388TIP3   OH249654   2.163   0.256  14.448 -0.3855  0.2229  0.0218
 9388TIP3    H149655   2.198   0.198  14.381 -3.4516 -0.3973 -1.1768
 9388TIP3    H249656   2.239   0.279  14.502  1.8486 -0.7524 -2.5157
 9389TIP3   OH249657   1.144   2.893   6.181  0.2754 -0.2987  0.4098
 9389TIP3    H149658   1.123   2.960   6.247  0.3535 -1.3714  1.5807
 9389TIP3    H249659   1.122   2.934   6.097  1.0246  1.4498  1.0140
 9390TIP3   OH249660   2.851   0.311  14.072 -0.2332  0.1570 -0.6359
 9390TIP3    H149661   2.846   0.349  14.160 -1.4861  0.0364 -0.6382
 9390TIP3    H249662   2.927   0.353  14.032 -0.5262  1.3305 -0.0102
 9391TIP3   OH249663   4.597   3.219  11.441  0.0002 -0.0494  0.2033
 9391TIP3    H149664   4.682   3.192  11.406 -0.5218  1.3297 -2.4751
 9391TIP3    H249665   4.535   3.195  11.372 -1.4826  0.8260  1.1809
 9392TIP3   OH249666   3.586   1.161   1.561  0.0634 -0.2989 -0.0126
 9392TIP3    H149667   3.498   1.175   1.525 -0.3206 -2.5881 -0.0986
 9392TIP3    H249668   3.606   1.070   1.542  2.3025  0.0361  0.4170
 9393TIP3   OH249669   2.414   3.138   3.594  0.4867 -0.7390 -0.3811
 9393TIP3    H149670   2.321   3.140   3.572  0.6281 -1.5974 -1.1645
 9393TIP3    H249671   2.435   3.045   3.599  1.7310 -0.6275 -2.2742
 9394TIP3   OH249672   1.437   4.244  16.067 -0.0595 -0.1339 -0.0286
 9394TIP3    H149673   1.446   4.193  15.987 -0.5909 -0.1246 -0.0948
 9394TIP3    H249674   1.498   4.317  16.055  2.2843 -1.7794  0.9258
 9395TIP3   OH249675   6.031   6.525   1.195 -0.8758 -0.3148  0.0337
 9395TIP3    H149676   6.034   6.601   1.253  1.7687 -1.8653  2.1775
 9395TIP3    H249677   6.011   6.452   1.252  0.3498 -1.7391 -1.2780
 9396TIP3   OH249678   6.585   3.907   4.421 -0.7166 -0.1233 -0.3311
 9396TIP3    H149679   6.645   3.981   4.427 -1.6778  0.7083 -0.7163
 9396TIP3    H249680   6.547   3.914   4.334  0.2106 -1.9051 -0.9263
 9397TIP3   OH249681   5.870   5.863  13.788  0.0894 -0.0368  0.0823
 9397TIP3    H149682   5.802   5.912  13.742  0.8366  0.0271 -0.9874
 9397TIP3    H249683   5.947   5.870  13.732  0.6098 -1.2422  0.6088
 9398TIP3   OH249684   6.652   0.596   1.846  0.0017  0.1196  0.5102
 9398TIP3    H149685   6.631   0.545   1.924  1.0154 -1.3628 -0.1325
 9398TIP3    H249686   6.717   0.659   1.876  0.6439 -0.6652  0.8323
 9399TIP3   OH249687   0.548   3.678   3.194  0.5429  0.3368  0.3206
 9399TIP3    H149688   0.635   3.716   3.185  1.0448 -0.6657  0.8157
 9399TIP3    H249689   0.517   3.667   3.104  1.9767 -1.6256  0.0010
 9400TIP3   OH249690   5.540   5.501  15.915  0.0755  0.3462 -0.1039
 9400TIP3    H149691   5.609   5.562  15.892 -0.8961  1.2894 -0.6372
 9400TIP3    H249692   5.514   5.461  15.831  1.2398 -1.4271  0.3378
 9401TIP3   OH249693   5.783   4.580  13.955 -0.5631  0.5291  0.1170
 9401TIP3    H149694   5.860   4.618  13.913 -0.7818 -0.3787 -1.1472
 9401TIP3    H249695   5.803   4.487  13.964 -1.5760  0.2352 -0.4517
 9402TIP3   OH249696   4.774   3.849   1.577  0.0205 -0.3660 -0.4933
 9402TIP3    H149697   4.750   3.906   1.504 -0.7593  1.1352  0.8639
 9402TIP3    H249698   4.866   3.868   1.594  0.0504 -0.3029 -0.7262
 9403TIP3   OH249699   5.331   0.676   1.717  0.8439 -0.4676 -0.0134
 9403TIP3    H149700   5.289   0.700   1.800  1.1143  1.6029 -0.4148
 9403TIP3    H249701   5.262   0.634   1.666  0.0971  0.0951  0.5044
 9404TIP3   OH249702   2.708   5.208   5.247 -0.0374 -0.2323  0.2903
 9404TIP3    H149703   2.716   5.230   5.154 -1.3891  0.1324  0.2320
 9404TIP3    H249704   2.772   5.265   5.290 -1.6572  2.0428 -0.1259
 9405TIP3   OH249705   4.320   4.844  13.186  0.7072 -0.0385  0.6172
 9405TIP3    H149706   4.405   4.857  13.228  0.0331  2.3020  1.3689
 9405TIP3    H249707   4.320   4.906  13.113  0.0335 -0.7730 -0.0216
 9406TIP3   OH249708   3.007   6.244   3.311 -0.2418  0.2442 -0.3278
 9406TIP3    H149709   3.102   6.255   3.318 -0.2748  0.3706 -0.0366
 9406TIP3    H249710   2.975   6.266   3.399 -0.4930 -0.2675 -0.2869
 9407TIP3   OH249711   3.114   2.681  12.467  0.3857  0.0264 -0.5107
 9407TIP3    H149712   3.089   2.764  12.428 -0.2796 -0.2533 -0.6941
 9407TIP3    H249713   3.034   2.649  12.510 -0.6218 -2.3731 -3.7335
 9408TIP3   OH249714   0.722   2.666  16.261 -0.3568 -0.5820 -0.0958
 9408TIP3    H149715   0.810   2.674  16.297 -0.6128  0.8372  0.2469
 9408TIP3    H249716   0.735   2.619  16.178  0.5203 -1.7066  0.6416
 9409TIP3   OH249717   6.029   2.713  15.533  0.4573  0.0544 -0.4629
 9409TIP3    H149718   6.123   2.724  15.523  0.5607 -0.8297 -0.4910
 9409TIP3    H249719   6.019   2.631  15.580 -0.2885  0.3610 -0.0596
 9410TIP3   OH249720   1.530   2.512   4.409  0.3065 -0.1908 -0.3032
 9410TIP3    H149721   1.473   2.578   4.369  1.4195  1.0525  0.0772
 9410TIP3    H249722   1.579   2.476   4.335  2.5169  2.2572 -0.1701
 9411TIP3   OH249723   5.081   3.894   1.593  0.3757  0.1846  0.1783
 9411TIP3    H149724   5.096   3.949   1.670  0.2795 -0.2889  0.5416
 9411TIP3    H249725   5.102   3.805   1.623 -0.1631 -0.0715 -0.1860
 9412TIP3   OH249726   1.511   2.419   1.525 -0.1178 -0.1438 -0.3912
 9412TIP3    H149727   1.560   2.496   1.555 -1.2561  1.0159 -1.3820
 9412TIP3    H249728   1.420   2.441   1.541 -0.6281 -0.3825 -2.5863
 9413TIP3   OH249729   6.411   4.925   3.972 -0.8158  0.0221  0.0517
 9413TIP3    H149730   6.458   4.860   4.024 -1.0693  1.3015  1.9902
 9413TIP3    H249731   6.319   4.898   3.977 -0.6206 -1.1347 -1.7326
 9414TIP3   OH249732   1.687   4.668  13.382  0.0458 -0.2642 -0.1753
 9414TIP3    H149733   1.777   4.658  13.353  1.8531  0.7640  4.3076
 9414TIP3    H249734   1.678   4.761  13.402 -2.6555 -0.0255 -1.9413
 9415TIP3   OH249735   3.716   2.617   4.593  0.1237  0.1926  0.1291
 9415TIP3    H149736   3.669   2.589   4.515  1.1361 -1.6741  0.1180
 9415TIP3    H249737   3.735   2.710   4.578 -3.2943  1.0033  0.0742
 9416TIP3   OH249738   0.095   3.170   5.248  0.0551  0.3806  0.0472
 9416TIP3    H149739   0.038   3.094   5.236 -1.6033  1.4699  0.6496
 9416TIP3    H249740   0.140   3.153   5.331 -0.1423 -0.0652  0.0644
 9417TIP3   OH249741   3.339   4.843  10.474  0.1598 -0.0401  0.0396
 9417TIP3    H149742   3.331   4.935  10.451  1.5081  0.3906  1.1348
 9417TIP3    H249743   3.257   4.822  10.518 -1.0514  0.0132 -2.0731
 9418TIP3   OH249744   2.231   3.326  11.781  0.3765  0.2067 -0.5340
 9418TIP3    H149745   2.189   3.383  11.716  2.6652  1.5155 -0.9434
 9418TIP3    H249746   2.280   3.385  11.837  0.7262 -1.1707  0.6680
 9419TIP3   OH249747   0.077   2.775   3.445  0.6027  0.2040  0.2325
 9419TIP3    H149748   0.120   2.699   3.405  0.1929 -0.5576  1.1990
 9419TIP3    H249749   0.080   2.758   3.539  0.6086  1.4541  0.4772
 9420TIP3   OH249750   4.999   6.657   0.475 -0.1378  0.1022 -0.5152
 9420TIP3    H149751   4.931   6.610   0.426 -0.4915  0.0198  0.0498
 9420TIP3    H249752   5.078   6.604   0.463 -0.7366 -1.1844  0.8971
 9421TIP3   OH249753   3.965   5.051   1.537 -0.2146 -0.8011 -0.6702
 9421TIP3    H149754   3.961   4.970   1.588 -0.6675  0.4786  1.4680
 9421TIP3    H249755   3.873   5.072   1.518 -0.2598  0.1506  0.4562
 9422TIP3   OH249756   5.147   5.356   5.672 -0.0811  0.1897  0.0056
 9422TIP3    H149757   5.177   5.445   5.692  1.2154 -0.3094  0.4108
 9422TIP3    H249758   5.211   5.299   5.715 -1.4907 -0.9609  0.6932
 9423TIP3   OH249759   1.050   4.820   4.257  0.6333 -0.1136 -0.0768
 9423TIP3    H149760   1.144   4.798   4.258  0.6490 -0.2101  2.5860
 9423TIP3    H249761   1.019   4.798   4.345 -1.7455  0.6446 -0.6519
 9424TIP3   OH249762   0.953   1.341   2.194 -0.0927 -0.4500 -0.2445
 9424TIP3    H149763   0.862   1.357   2.169  0.6416  2.5077 -1.4459
 9424TIP3    H249764   0.948   1.318   2.287 -1.9865  1.6223  0.2687
 9425TIP3   OH249765   6.534   2.726   0.458  0.5618 -0.0456 -0.0536
 9425TIP3    H149766   6.541   2.780   0.380  0.8018 -1.0406 -0.7449
 9425TIP3    H249767   6.440   2.723   0.477  0.5124  0.2992 -0.2296
 9426TIP3   OH249768   0.736   3.117   3.911 -0.1851 -0.0191  0.2909
 9426TIP3    H149769   0.797   3.104   3.983  0.5310  1.4294 -0.0113
 9426TIP3    H249770   0.666   3.053   3.926  2.2209 -2.9891 -0.3304
 9427TIP3   OH249771   3.351   5.269   0.854 -0.5113 -0.1403  0.3257
 9427TIP3    H149772   3.322   5.254   0.764 -0.4223  1.3144  0.0330
 9427TIP3    H249773   3.362   5.181   0.891  1.0401 -0.8154 -1.5729
 9428TIP3   OH249774   2.713   6.041  15.635 -0.2805  0.1368  0.2316
 9428TIP3    H149775   2.706   5.994  15.552 -0.1600 -0.1839  0.4007
 9428TIP3    H249776   2.804   6.031  15.660 -0.4391 -0.2546  0.6814
 9429TIP3   OH249777   5.225   3.502  11.554 -0.4857  0.1341  0.0522
 9429TIP3    H149778   5.252   3.473  11.641 -0.7969 -0.0733  0.0820
 9429TIP3    H249779   5.134   3.529  11.565 -0.6982 -0.4159 -0.3225
 9430TIP3   OH249780   1.360   3.521  11.404 -0.0502 -0.1891  0.3987
 9430TIP3    H149781   1.299   3.572  11.352 -1.8050 -3.7716 -1.4041
 9430TIP3    H249782   1.410   3.470  11.340  1.7658 -0.5724  2.0283
 9431TIP3   OH249783   0.316   2.853  16.657 -0.0774 -0.2834  0.2194
 9431TIP3    H149784   0.349   2.836  16.569  0.0114 -2.0402  0.5479
 9431TIP3    H249785   0.391   2.838  16.714 -0.5178 -0.6973  0.6987
 9432TIP3   OH249786   3.790   4.276   1.566  0.4357 -0.2847 -0.0138
 9432TIP3    H149787   3.873   4.232   1.548 -0.3891 -1.5704 -0.7503
 9432TIP3    H249788   3.745   4.280   1.482  0.4913  2.0759 -0.0021
 9433TIP3   OH249789   4.654   5.434   3.102 -0.1037 -0.5440 -0.4726
 9433TIP3    H149790   4.564   5.426   3.133 -0.8898  1.4140 -2.0479
 9433TIP3    H249791   4.654   5.387   3.018  0.9055 -2.1940  0.3933
 9434TIP3   OH249792   4.638   1.370  14.527 -0.6746 -0.7835 -0.8092
 9434TIP3    H149793   4.681   1.313  14.590 -0.2048  1.5658  1.1287
 9434TIP3    H249794   4.555   1.393  14.568 -1.2850 -0.7870 -1.9854
 9435TIP3   OH249795   4.358   4.934   3.566  0.2217 -0.1535  0.4197
 9435TIP3    H149796   4.367   4.942   3.661  1.7776 -0.8239  0.3549
 9435TIP3    H249797   4.286   4.993   3.544  0.7304  1.0656  1.8456
 9436TIP3   OH249798   2.336   4.728  14.056  0.2253 -0.0868  0.2805
 9436TIP3    H149799   2.282   4.718  13.977  0.7291  1.4467 -0.2995
 9436TIP3    H249800   2.411   4.781  14.027  1.3730 -1.0573  1.3738
 9437TIP3   OH249801   0.122   5.468   5.858  0.0670 -0.4461  0.5647
 9437TIP3    H149802   0.119   5.449   5.951  0.8355 -0.6582  0.5533
 9437TIP3    H249803   0.174   5.549   5.851 -0.4986 -0.0947  0.3678
 9438TIP3   OH249804   2.486   3.401  14.497  0.1916  0.6778  1.2444
 9438TIP3    H149805   2.534   3.483  14.488  2.7881 -0.9054 -0.6548
 9438TIP3    H249806   2.516   3.365  14.581  0.8003  0.6725  1.0339
 9439TIP3   OH249807   3.249   5.785  12.409  0.3374  0.0757  0.2331
 9439TIP3    H149808   3.329   5.784  12.356 -0.3195  0.0597 -0.7830
 9439TIP3    H249809   3.179   5.770  12.346 -0.4116 -0.6868  1.2291
 9440TIP3   OH249810   1.172   1.219  16.168 -0.3283 -0.2902  0.4778
 9440TIP3    H149811   1.244   1.164  16.200  1.1121  1.0231 -0.3288
 9440TIP3    H249812   1.187   1.225  16.074 -2.0617 -0.7059  0.1513
 9441TIP3   OH249813   0.607   6.576   1.093 -0.4344 -0.2476 -0.0208
 9441TIP3    H149814   0.659   6.651   1.062 -2.0176  0.7794 -0.2721
 9441TIP3    H249815   0.533   6.572   1.033 -0.1642 -2.3406 -0.2990
 9442TIP3   OH249816   0.282   4.768   0.012 -0.4404  0.0635  0.6132
 9442TIP3    H149817   0.247   4.679   0.005  0.9523 -0.4706  0.0064
 9442TIP3    H249818   0.377   4.757   0.004 -0.2804  1.6605 -0.0330
 9443TIP3   OH249819   1.736   5.867  14.909  0.3520  0.1230 -0.1597
 9443TIP3    H149820   1.748   5.783  14.953  1.7617  0.4242  0.0687
 9443TIP3    H249821   1.798   5.866  14.836  2.4407  2.0034  1.4518
 9444TIP3   OH249822   4.311   0.228   1.158 -0.1206  0.1724 -0.1963
 9444TIP3    H149823   4.288   0.267   1.242 -0.8752  0.0688 -0.3443
 9444TIP3    H249824   4.398   0.192   1.171  0.8127  2.2659 -0.1742
 9445TIP3   OH249825   1.042   2.614   4.386  0.5572 -0.0560 -0.5595
 9445TIP3    H149826   1.075   2.530   4.354  0.3077  0.0919 -1.2092
 9445TIP3    H249827   1.116   2.674   4.375  0.2711  0.1418 -1.4717
 9446TIP3   OH249828   0.434   6.728  16.000 -0.3192  0.4355  0.0312
 9446TIP3    H149829   0.415   6.635  15.988  0.2087  0.4010 -0.5986
 9446TIP3    H249830   0.348   6.769  16.007 -0.5545 -0.2374  1.5525
 9447TIP3   OH249831   0.670   6.843   3.963  0.6622 -0.4767  0.3179
 9447TIP3    H149832   0.642   6.757   3.994 -1.5995 -0.3733 -1.1827
 9447TIP3    H249833   0.592   6.880   3.921  1.6578  2.1730  0.5940
 9448TIP3   OH249834   4.058   2.535  15.829 -0.0733  0.5070  0.2550
 9448TIP3    H149835   4.056   2.439  15.832  0.2671  0.4683 -0.6680
 9448TIP3    H249836   4.137   2.558  15.878 -0.8543  0.3861  1.6207
 9449TIP3   OH249837   3.464   6.452   1.470 -0.4118  0.0026 -0.0483
 9449TIP3    H149838   3.435   6.539   1.442  2.2265  0.7216 -0.8920
 9449TIP3    H249839   3.466   6.457   1.566  1.1631  1.4780 -0.1009
 9450TIP3   OH249840   5.636   0.635   5.125 -0.4639  0.0321 -0.1306
 9450TIP3    H149841   5.700   0.592   5.182 -0.6129 -0.1630 -0.1099
 9450TIP3    H249842   5.670   0.723   5.113 -0.4997  0.1214  0.3837
 9451TIP3   OH249843   6.588   2.987   3.107  0.0650 -0.3032 -0.0134
 9451TIP3    H149844   6.677   2.977   3.141  0.9922  2.8131 -1.1872
 9451TIP3    H249845   6.533   2.942   3.171  2.1926  0.6673  2.7187
 9452TIP3   OH249846   2.865   6.644   0.319  0.0996  0.2021 -0.0745
 9452TIP3    H149847   2.922   6.638   0.396  0.4120  1.4190 -0.1916
 9452TIP3    H249848   2.925   6.658   0.246 -0.2654  0.0989 -0.3948
 9453TIP3   OH249849   4.277   3.769  15.751 -0.0902 -0.3130 -0.4739
 9453TIP3    H149850   4.296   3.681  15.716 -1.9712 -0.9906  0.0982
 9453TIP3    H249851   4.343   3.825  15.711  1.6544 -2.1021 -0.2691
 9454TIP3   OH249852   1.321   4.575   0.376 -0.5835 -0.0842  0.3377
 9454TIP3    H149853   1.387   4.507   0.360 -1.0424 -0.6549  0.8412
 9454TIP3    H249854   1.367   4.657   0.359  0.6993 -0.3876  2.1128
 9455TIP3   OH249855   0.719   6.772   0.918  0.2882  0.3043 -0.4803
 9455TIP3    H149856   0.655   6.843   0.918  1.2941  1.2393 -0.5675
 9455TIP3    H249857   0.804   6.816   0.915  0.9242 -0.9209 -1.2353
 9456TIP3   OH249858   5.559   0.893  13.569  0.4623  0.8904 -0.7121
 9456TIP3    H149859   5.596   0.840  13.498 -0.5743  0.1182 -0.7010
 9456TIP3    H249860   5.465   0.889  13.555  0.2921  1.4500  0.2117
 9457TIP3   OH249861   6.487   1.007   0.658  0.3274 -0.8351  0.3574
 9457TIP3    H149862   6.481   0.933   0.719  1.8509  0.0109  1.5909
 9457TIP3    H249863   6.557   1.062   0.693 -1.2131  1.5820 -0.1258
 9458TIP3   OH249864   0.794   3.389  15.172  0.4106 -0.2765 -0.2903
 9458TIP3    H149865   0.795   3.448  15.248  1.4459 -0.7068  0.0506
 9458TIP3    H249866   0.878   3.404  15.129  0.1744 -0.6314 -0.8915
 9459TIP3   OH249867   5.619   4.045  16.396 -0.2373  0.3172 -0.1112
 9459TIP3    H149868   5.527   4.070  16.402 -0.2484  0.6684 -1.4517
 9459TIP3    H249869   5.623   3.983  16.324  0.4939 -0.1833  0.3351
 9460TIP3   OH249870   0.414   4.887   3.482  0.1514  0.3560 -0.1616
 9460TIP3    H149871   0.504   4.857   3.469  0.0479  0.1319 -0.3662
 9460TIP3    H249872   0.414   4.925   3.570  0.2476 -0.4113  0.1784
 9461TIP3   OH249873   2.001   5.233   0.893  0.5151  0.1769 -0.4056
 9461TIP3    H149874   1.924   5.273   0.851  0.9531 -0.6626 -2.1023
 9461TIP3    H249875   2.011   5.281   0.975 -1.5604  0.6025 -0.3446
 9462TIP3   OH249876   5.062   2.936  11.367  0.3924  0.8575  0.2451
 9462TIP3    H149877   5.147   2.913  11.331 -0.0867  0.2141 -0.5106
 9462TIP3    H249878   5.081   2.969  11.455  1.4330  0.9534 -0.0029
 9463TIP3   OH249879   3.324   3.623  10.052 -0.3900  0.5753  0.2139
 9463TIP3    H149880   3.298   3.547  10.104  0.5216 -0.3742 -0.6690
 9463TIP3    H249881   3.242   3.668  10.031 -0.9073  0.0360  1.0482
 9464TIP3   OH249882   4.891   4.829   4.215  0.0271  0.4231  0.3837
 9464TIP3    H149883   4.854   4.916   4.198  0.5517  0.7820  1.0206
 9464TIP3    H249884   4.826   4.787   4.271 -0.3365  0.3132 -0.1140
 9465TIP3   OH249885   6.005   3.309   1.272 -0.2802 -0.4988 -0.3835
 9465TIP3    H149886   5.939   3.338   1.209  0.8445  1.3424 -0.7664
 9465TIP3    H249887   6.076   3.274   1.218 -0.0117 -0.4408 -0.0732
 9466TIP3   OH249888   0.719   4.466  13.851 -0.0573 -0.4901  0.0205
 9466TIP3    H149889   0.756   4.544  13.808 -2.3528 -0.3278 -1.8720
 9466TIP3    H249890   0.750   4.393  13.799 -0.1869 -0.6033  0.1034
 9467TIP3   OH249891   3.015   5.748  11.409  0.3247 -0.1135 -0.7318
 9467TIP3    H149892   3.035   5.829  11.457 -0.7883  0.0504 -0.5311
 9467TIP3    H249893   2.920   5.750  11.397  0.4425 -0.7456 -1.8966
 9468TIP3   OH249894   0.845   3.059   4.181  0.3957  0.2830  0.5040
 9468TIP3    H149895   0.829   3.007   4.260  0.8697  2.3367  2.0292
 9468TIP3    H249896   0.903   3.004   4.128  1.3151 -0.5626  2.2913
 9469TIP3   OH249897   6.295   6.514  14.421 -0.2794 -0.3825 -0.0187
 9469TIP3    H149898   6.268   6.487  14.333  0.3041 -0.4279 -0.1858
 9469TIP3    H249899   6.311   6.608  14.413 -0.5579 -0.3210  0.1257
 9470TIP3   OH249900   4.735   6.311   3.004 -0.0961  0.3034  0.4660
 9470TIP3    H149901   4.691   6.395   3.006 -1.8424 -0.5530  0.0093
 9470TIP3    H249902   4.693   6.259   3.072  0.1815 -0.5636 -0.0041
 9471TIP3   OH249903   5.754   3.537  14.563  0.2811  0.0094  0.2596
 9471TIP3    H149904   5.677   3.493  14.598  0.3532  0.3562  0.8584
 9471TIP3    H249905   5.719   3.601  14.501  0.0323  0.7394  1.1448
 9472TIP3   OH249906   2.031   6.201  14.344 -0.0301  0.1471  0.6208
 9472TIP3    H149907   2.103   6.262  14.362  0.8008  0.1246 -2.1263
 9472TIP3    H249908   2.072   6.126  14.301 -1.7165  0.7064 -2.2769
 9473TIP3   OH249909   2.424   4.215   3.693  0.5396 -0.5050 -0.2297
 9473TIP3    H149910   2.420   4.293   3.749 -1.4399 -0.9490  0.3358
 9473TIP3    H249911   2.518   4.200   3.680  0.9837  1.8156 -0.1694
 9474TIP3   OH249912   5.761   6.260  16.231  0.1502  0.1682 -0.1245
 9474TIP3    H149913   5.809   6.342  16.242  1.4351 -0.7235  1.4066
 9474TIP3    H249914   5.718   6.245  16.315 -1.1181 -0.0990 -0.8065
 9475TIP3   OH249915   6.824   0.932  16.146  0.3555  0.6953  0.6059
 9475TIP3    H149916   6.754   0.991  16.118 -0.0312 -0.4783 -1.1139
 9475TIP3    H249917   6.794   0.845  16.119  2.6339  0.1943 -0.5915
 9476TIP3   OH249918   0.980   0.297  15.960 -0.1244  0.5407 -0.4732
 9476TIP3    H149919   0.972   0.393  15.959 -0.4922  0.5096 -0.4339
 9476TIP3    H249920   0.893   0.265  15.938 -0.3169  0.1962  0.7126
 9477TIP3   OH249921   6.462   2.264   1.422  0.2876  0.4538 -0.0824
 9477TIP3    H149922   6.509   2.345   1.439  1.4620 -0.5096  1.5762
 9477TIP3    H249923   6.494   2.203   1.489 -0.1232 -1.5580 -1.6124
 9478TIP3   OH249924   6.268   2.008  13.799 -0.6810  0.2085  0.2294
 9478TIP3    H149925   6.307   2.001  13.712  0.4418 -0.0973  0.7491
 9478TIP3    H249926   6.227   2.094  13.800 -1.4246 -0.1028 -0.8836
 9479TIP3   OH249927   0.393   3.955  15.980 -0.7435 -0.6563 -0.0022
 9479TIP3    H149928   0.397   3.892  15.908 -3.5712 -0.2520 -0.6265
 9479TIP3    H249929   0.475   4.004  15.975  0.9464 -3.3099 -0.3394
 9480TIP3   OH249930   2.941   1.497  16.902 -0.2122  0.4525 -0.6753
 9480TIP3    H149931   2.972   1.428  16.844  0.0357 -0.0907  0.0802
 9480TIP3    H249932   2.851   1.472  16.923  0.6821 -1.1247  1.6857
 9481TIP3   OH249933   0.888   1.979   4.075 -0.3774  0.3456 -0.8097
 9481TIP3    H149934   0.967   1.998   4.125 -0.3393  0.7648 -1.0161
 9481TIP3    H249935   0.846   1.907   4.121  0.1902  0.0360 -0.7698
 9482TIP3   OH249936   1.518   0.942   3.378  0.4171 -0.5149  0.2276
 9482TIP3    H149937   1.599   0.896   3.397 -0.3865 -0.6495  4.1961
 9482TIP3    H249938   1.449   0.878   3.397 -0.6220  0.8307  1.3010
 9483TIP3   OH249939   5.614   3.993   0.461 -0.4491  0.3276  0.1212
 9483TIP3    H149940   5.708   4.010   0.458 -0.5780  1.1479  0.3265
 9483TIP3    H249941   5.584   4.005   0.371 -0.1513 -1.3160 -0.2265
 9484TIP3   OH249942   4.371   3.099  13.437  0.2312 -0.2615  0.2279
 9484TIP3    H149943   4.308   3.028  13.452 -0.4726  0.3659  0.2953
 9484TIP3    H249944   4.362   3.119  13.344 -3.4097  3.1983  1.0586
 9485TIP3   OH249945   2.676   4.989  11.200 -0.2674 -0.2215  0.2772
 9485TIP3    H149946   2.656   5.016  11.110  1.4229  1.5352  0.3680
 9485TIP3    H249947   2.591   4.977  11.241 -1.0720 -0.6664 -1.4439
 9486TIP3   OH249948   0.889   4.427   5.169  0.1184 -0.4065  0.1032
 9486TIP3    H149949   0.872   4.513   5.129 -0.3630 -0.9925 -1.0099
 9486TIP3    H249950   0.806   4.381   5.162  0.8155 -1.5732 -0.9244
 9487TIP3   OH249951   0.844   2.096   5.370  0.7430  0.0988  0.1954
 9487TIP3    H149952   0.780   2.111   5.300  0.3464 -0.2296  0.4811
 9487TIP3    H249953   0.887   2.014   5.345  0.3811 -0.1880  0.4880
 9488TIP3   OH249954   3.496   4.029   5.855 -0.5417 -0.1329  0.3176
 9488TIP3    H149955   3.419   4.043   5.800  0.3034  1.6519 -0.5000
 9488TIP3    H249956   3.556   3.978   5.801 -0.2114  0.5458  0.0309
 9489TIP3   OH249957   0.110   1.821  11.230 -0.2440  0.7124  0.2472
 9489TIP3    H149958   0.024   1.781  11.217  0.2887 -0.2953 -0.4156
 9489TIP3    H249959   0.118   1.884  11.158  0.0561 -0.0983 -0.4476
 9490TIP3   OH249960   3.034   3.937   1.637 -0.0515  0.0247  0.1019
 9490TIP3    H149961   3.124   3.958   1.662 -0.2118  0.2555  0.4855
 9490TIP3    H249962   3.000   3.887   1.711  0.1701 -1.1919 -0.5859
 9491TIP3   OH249963   5.526   2.975   2.322 -0.1520  0.0211 -0.1299
 9491TIP3    H149964   5.444   3.023   2.310  0.1041  0.3514 -0.5940
 9491TIP3    H249965   5.526   2.909   2.252  1.1070  1.6182 -1.7364
 9492TIP3   OH249966   2.625   1.716   0.687  0.2807 -0.2982 -0.3334
 9492TIP3    H149967   2.680   1.756   0.754  0.0849 -1.6052  0.6498
 9492TIP3    H249968   2.539   1.706   0.729 -0.7335  1.5912 -1.8000
 9493TIP3   OH249969   1.306   5.051   3.689 -0.2005 -0.6466  0.3276
 9493TIP3    H149970   1.390   5.033   3.730 -0.3790  0.4179  1.1963
 9493TIP3    H249971   1.241   5.017   3.751 -0.4409 -0.0963  0.3832
 9494TIP3   OH249972   3.451   2.500  11.575 -0.8791 -0.2278 -0.1822
 9494TIP3    H149973   3.454   2.586  11.532 -0.1730 -0.8933 -1.5521
 9494TIP3    H249974   3.502   2.511  11.655  1.4696  0.0173 -1.6116
 9495TIP3   OH249975   3.956   3.936  13.585  0.3159  0.7329 -0.3760
 9495TIP3    H149976   4.023   3.868  13.584  0.2155  0.5914  0.8479
 9495TIP3    H249977   4.003   4.015  13.614 -0.3559  0.1969  2.5263
 9496TIP3   OH249978   0.029   6.669   2.023 -0.3711 -0.3287 -0.7160
 9496TIP3    H149979   0.018   6.762   2.003 -1.1788 -0.3752 -0.5328
 9496TIP3    H249980   0.116   6.648   1.990  1.4931  1.3983  2.6274
 9497TIP3   OH249981   1.733   3.326  12.955 -0.1359  0.3659 -0.2082
 9497TIP3    H149982   1.821   3.359  12.935 -0.3579 -0.1231 -2.2358
 9497TIP3    H249983   1.676   3.401  12.941 -0.2774  0.0571 -1.4029
 9498TIP3   OH249984   2.476   4.063  16.806  0.1391  0.1797 -1.0091
 9498TIP3    H149985   2.448   4.150  16.832 -0.0429 -0.0674 -0.3635
 9498TIP3    H249986   2.410   4.004  16.844  2.6919 -0.6446  2.6647
 9499TIP3   OH249987   3.103   3.855   1.171 -0.3220 -0.9476  0.3802
 9499TIP3    H149988   3.139   3.944   1.165 -0.6342 -0.8637 -0.4864
 9499TIP3    H249989   3.166   3.801   1.124 -1.3472 -0.7765 -1.2790
 9500TIP3   OH249990   1.439   0.903  12.055 -0.4151  0.0092 -0.4281
 9500TIP3    H149991   1.370   0.919  11.992  0.5190 -0.7102 -1.6819
 9500TIP3    H249992   1.499   0.976  12.044 -0.7216  0.3785  0.3113
 9501TIP3   OH249993   6.601   0.751   5.870  0.1041  0.3022  0.2802
 9501TIP3    H149994   6.576   0.760   5.962 -0.3447 -1.1129  0.3275
 9501TIP3    H249995   6.696   0.758   5.869  0.1319  0.0190  0.9070
 9502TIP3   OH249996   3.511   2.347  14.191  0.2058  0.1529 -0.1788
 9502TIP3    H149997   3.517   2.366  14.097  1.0162 -0.7212 -0.3150
 9502TIP3    H249998   3.486   2.255  14.195 -0.5140  0.3635  0.4789
 9503TIP3   OH249999   0.256   1.237  14.872  0.2440 -0.1265 -0.0552
 9503TIP3    H150000   0.294   1.314  14.830  1.3351  0.0817  1.2855
 9503TIP3    H250001   0.196   1.273  14.937 -1.9230 -0.4501 -1.7430
 9504TIP3   OH250002   5.840   0.982   6.361 -0.5924 -0.7919 -0.1894
 9504TIP3    H150003   5.835   1.074   6.335 -2.5564 -0.0503  2.3759
 9504TIP3    H250004   5.896   0.981   6.439 -1.0646 -1.6466  0.1595
 9505TIP3   OH250005   2.599   5.831  13.440  0.6098 -0.2167  0.1568
 9505TIP3    H150006   2.597   5.922  13.409  1.8426  0.1995  1.2087
 9505TIP3    H250007   2.634   5.782  13.365  2.4989  0.6065  0.4317
 9506TIP3   OH250008   2.476   0.290  16.240 -0.0848  0.0689 -0.0842
 9506TIP3    H150009   2.455   0.303  16.332 -1.2226 -0.2333 -0.2869
 9506TIP3    H250010   2.444   0.202  16.220 -3.2956  1.4603 -1.6836
 9507TIP3   OH250011   5.186   3.617   3.855  0.0999  0.1026 -0.6872
 9507TIP3    H150012   5.129   3.540   3.864 -1.4616  1.2829  0.0638
 9507TIP3    H250013   5.201   3.646   3.945  0.3680  0.8694 -0.9756
 9508TIP3   OH250014   0.513   4.091   0.316 -0.0178 -0.1946 -0.4283
 9508TIP3    H150015   0.492   4.044   0.235  0.7919 -0.8034 -0.2955
 9508TIP3    H250016   0.587   4.044   0.353 -0.3723  0.0802  0.6804
 9509TIP3   OH250017   0.349   1.964   2.534 -0.2371  0.4210 -0.0622
 9509TIP3    H150018   0.396   1.891   2.494 -2.9850 -1.3751 -0.2269
 9509TIP3    H250019   0.257   1.942   2.525 -1.1327  2.7352  2.1475
 9510TIP3   OH250020   1.172   1.840   4.351 -0.2305  0.0879  0.1411
 9510TIP3    H150021   1.258   1.800   4.364 -0.4342 -0.3364  0.2083
 9510TIP3    H250022   1.151   1.820   4.259  1.1318  2.9242 -0.9015
 9511TIP3   OH250023   3.532   4.485   3.217  0.0719  0.2024  0.1990
 9511TIP3    H150024   3.574   4.403   3.191  2.4697  1.6694 -0.8812
 9511TIP3    H250025   3.542   4.489   3.312  0.5090 -0.4447  0.1844
 9512TIP3   OH250026   5.169   2.937  11.636 -0.1005  0.4647  0.0652
 9512TIP3    H150027   5.185   3.023  11.598  0.6968 -0.3366 -1.5553
 9512TIP3    H250028   5.256   2.904  11.657 -0.3882  0.0004  0.5520
 9513TIP3   OH250029   5.642   6.349  15.781  0.0969 -0.3330  0.3247
 9513TIP3    H150030   5.557   6.324  15.816  0.6517 -1.1326  1.1226
 9513TIP3    H250031   5.632   6.441  15.757 -0.6508 -0.0991  1.4763
 9514TIP3   OH250032   2.883   4.172  14.959  0.1835  0.0587  0.0495
 9514TIP3    H150033   2.855   4.083  14.980 -2.6568  1.2274  1.8106
 9514TIP3    H250034   2.892   4.172  14.864 -2.0813 -1.5831 -0.2583
 9515TIP3   OH250035   2.748   3.138   0.118  0.1410  0.6471 -0.0663
 9515TIP3    H150036   2.776   3.132   0.210  0.4441 -0.3942 -0.2139
 9515TIP3    H250037   2.820   3.098   0.069 -0.0450  1.1480 -0.7648
 9516TIP3   OH250038   3.787   5.510  14.980  0.4474 -0.0216 -0.0173
 9516TIP3    H150039   3.742   5.591  15.003 -1.2059 -1.0744  0.6758
 9516TIP3    H250040   3.753   5.446  15.043  2.0517 -1.1487 -0.2536
 9517TIP3   OH250041   5.957   1.772   4.208  0.0709  0.0755  0.0058
 9517TIP3    H150042   5.950   1.816   4.123  0.8725  1.1193  0.4556
 9517TIP3    H250043   6.049   1.746   4.213 -0.2474 -1.1037  0.0342
 9518TIP3   OH250044   5.396   1.619   5.218 -0.4084  0.3887  0.0387
 9518TIP3    H150045   5.413   1.612   5.312 -0.1193  0.6168  0.0043
 9518TIP3    H250046   5.305   1.647   5.213 -0.8482 -0.9032  0.2247
 9519TIP3   OH250047   4.776   5.277  12.404 -0.4720  0.0872  0.1373
 9519TIP3    H150048   4.794   5.307  12.315 -0.9186 -1.3012 -0.4428
 9519TIP3    H250049   4.712   5.207  12.394  1.2590 -1.7796  1.3040
 9520TIP3   OH250050   5.764   1.342  16.804  0.3476  0.1036 -0.8074
 9520TIP3    H150051   5.671   1.353  16.825  0.8140 -0.9879  2.5166
 9520TIP3    H250052   5.802   1.429  16.817  0.2629 -0.1203  1.3735
 9521TIP3   OH250053   6.651   2.322   6.589 -0.0614 -0.1565  0.2762
 9521TIP3    H150054   6.716   2.278   6.643  1.4521  1.3038 -0.2843
 9521TIP3    H250055   6.680   2.307   6.499 -0.6148  0.3439  0.0097
 9522TIP3   OH250056   0.720   6.390   5.686  0.3691 -0.2706 -0.3017
 9522TIP3    H150057   0.784   6.320   5.669  0.3883 -0.1632 -0.6823
 9522TIP3    H250058   0.771   6.471   5.676  1.2335 -0.1703  3.4430
 9523TIP3   OH250059   4.170   0.067   5.600  0.0810  0.0248 -0.2324
 9523TIP3    H150060   4.197   0.090   5.690 -0.0077  0.8828 -0.4133
 9523TIP3    H250061   4.083   0.030   5.610 -0.2327  0.7855 -0.0216
 9524TIP3   OH250062   5.293   3.248  16.729  0.1116 -0.7873 -0.0756
 9524TIP3    H150063   5.343   3.190  16.671  1.3075 -0.3577  0.5032
 9524TIP3    H250064   5.330   3.232  16.816 -0.2333  0.1234  0.2444
 9525TIP3   OH250065   1.105   1.448  13.345 -0.6936 -0.2534  0.1466
 9525TIP3    H150066   1.087   1.370  13.293 -1.8829 -1.6781  2.5384
 9525TIP3    H250067   1.019   1.485  13.363 -0.2231  0.9027  0.1248
 9526TIP3   OH250068   1.090   2.100  12.457  0.0742 -0.4377  0.2044
 9526TIP3    H150069   1.013   2.153  12.438  0.6943 -0.5107 -3.1574
 9526TIP3    H250070   1.082   2.025  12.397  1.6214 -1.6428  1.4267
 9527TIP3   OH250071   1.924   5.193   1.378  0.3091 -0.9258  0.2332
 9527TIP3    H150072   1.991   5.153   1.322 -0.2110 -1.1977 -0.2077
 9527TIP3    H250073   1.853   5.129   1.380 -0.7781  0.1796 -0.9306
 9528TIP3   OH250074   3.243   1.375   2.754  0.3132 -0.1956 -0.1695
 9528TIP3    H150075   3.181   1.443   2.731 -1.3948 -1.7914 -0.5260
 9528TIP3    H250076   3.246   1.318   2.677 -0.9467 -2.3653  1.2507
 9529TIP3   OH250077   1.837   3.107  16.073 -0.3061  0.2268 -0.2948
 9529TIP3    H150078   1.887   3.049  16.130  0.2228 -1.4566 -2.3554
 9529TIP3    H250079   1.892   3.185  16.063 -0.6176  0.7719  1.7808
 9530TIP3   OH250080   5.249   3.673  16.814  0.2930 -0.7371 -0.5307
 9530TIP3    H150081   5.180   3.607  16.805 -0.4635  0.0311 -0.4247
 9530TIP3    H250082   5.302   3.643  16.888 -1.9699  0.4557  1.7065
 9531TIP3   OH250083   3.216   3.474  15.518 -0.4281  0.2290 -0.2279
 9531TIP3    H150084   3.178   3.539  15.458  3.0657  0.9739 -1.9370
 9531TIP3    H250085   3.224   3.395  15.464  2.6084  0.8616 -0.9037
 9532TIP3   OH250086   2.180   2.810   4.166 -0.2267  0.3991  0.4602
 9532TIP3    H150087   2.086   2.819   4.179 -0.2004  0.6559  0.4850
 9532TIP3    H250088   2.216   2.896   4.191 -0.0717  0.5803 -0.3616
 9533TIP3   OH250089   0.567   4.819  12.051 -0.2184 -0.1477  0.1060
 9533TIP3    H150090   0.485   4.803  12.097 -0.7472  0.0490 -0.7298
 9533TIP3    H250091   0.545   4.886  11.986  0.3850 -0.7252 -0.7133
 9534TIP3   OH250092   3.175   6.182  10.980 -0.1710 -0.0508  0.0550
 9534TIP3    H150093   3.185   6.249  10.913 -0.8003  0.9089  0.8913
 9534TIP3    H250094   3.196   6.227  11.062  1.3613 -1.3951  0.4635
 9535TIP3   OH250095   3.357   6.825   4.748  0.2773 -0.2713  0.6213
 9535TIP3    H150096   3.271   6.795   4.718  1.1078 -1.8353 -0.2768
 9535TIP3    H250097   3.358   6.806   4.842 -0.5618  0.2989  0.7565
 9536TIP3   OH250098   5.937   1.589  12.503 -0.0061  0.3827 -0.9199
 9536TIP3    H150099   5.911   1.658  12.442 -1.0022  0.0531 -0.8847
 9536TIP3    H250100   6.031   1.602  12.515 -0.1896  1.7991 -0.8245
 9537TIP3   OH250101   2.489   1.768  11.399  0.6752 -0.2970 -0.1673
 9537TIP3    H150102   2.491   1.685  11.446  0.7528 -0.5060 -0.5272
 9537TIP3    H250103   2.411   1.763  11.344  0.1749  0.2566  0.4836
 9538TIP3   OH250104   2.955   4.166  16.644 -0.0157 -0.0444 -0.3606
 9538TIP3    H150105   2.883   4.143  16.704 -0.0360  0.0027 -0.3676
 9538TIP3    H250106   3.034   4.144  16.694 -0.0099  0.7968  0.0171
 9539TIP3   OH250107   3.102   1.926  15.832 -0.3479  0.3090 -0.5359
 9539TIP3    H150108   3.109   1.893  15.743  0.2612 -1.1559  0.0252
 9539TIP3    H250109   3.161   2.002  15.834  0.2703 -0.1409 -1.1606
 9540TIP3   OH250110   4.895   2.075   6.400 -0.0155  0.5831 -0.3098
 9540TIP3    H150111   4.868   2.132   6.328 -1.1638  0.6696  0.1702
 9540TIP3    H250112   4.835   2.096   6.472 -1.6424 -2.3828 -0.6214
 9541TIP3   OH250113   2.193   2.343  16.305  0.1640 -0.5884 -0.5043
 9541TIP3    H150114   2.104   2.378  16.308  0.2610 -0.2461 -1.4111
 9541TIP3    H250115   2.202   2.304  16.218  0.3208 -2.2145  0.2089
 9542TIP3   OH250116   4.444   5.106   2.149  0.2049 -0.1227 -0.2211
 9542TIP3    H150117   4.417   5.140   2.064  1.2301 -1.3239 -1.0342
 9542TIP3    H250118   4.413   5.016   2.151 -1.4979  0.4207  1.4795
 9543TIP3   OH250119   1.441   3.428  13.229  0.5549  0.1928  0.4150
 9543TIP3    H150120   1.419   3.504  13.281 -0.2540  0.9387 -0.9498
 9543TIP3    H250121   1.522   3.452  13.184 -0.9344  1.2910 -1.8705
 9544TIP3   OH250122   3.151   6.445  16.784  0.9511 -0.2857 -0.0266
 9544TIP3    H150123   3.114   6.501  16.716  2.5904  0.4063 -0.4120
 9544TIP3    H250124   3.081   6.384  16.806  0.4712 -0.7648 -2.5838
 9545TIP3   OH250125   2.578   4.348   4.688  0.0848 -0.2118  0.5232
 9545TIP3    H150126   2.643   4.280   4.669  0.5193  0.2092  0.4841
 9545TIP3    H250127   2.607   4.423   4.635 -1.3343 -0.5258 -0.7605
 9546TIP3   OH250128   6.565   0.888  12.446 -0.9662 -0.3559 -0.2342
 9546TIP3    H150129   6.480   0.893  12.488 -0.5599 -2.2099  0.9436
 9546TIP3    H250130   6.619   0.837  12.507  1.0487  0.9242 -0.8415
 9547TIP3   OH250131   4.392   3.748  15.367 -0.2771  0.0553  0.3073
 9547TIP3    H150132   4.370   3.655  15.366  1.4779 -0.4149  1.4087
 9547TIP3    H250133   4.311   3.792  15.340 -0.6113 -1.8462 -2.1024
 9548TIP3   OH250134   3.131   3.316   5.191 -0.8134  0.6575  0.0357
 9548TIP3    H150135   3.066   3.385   5.202 -1.3904  0.5251 -2.1008
 9548TIP3    H250136   3.201   3.338   5.253 -2.3731  1.3794  1.6424
 9549TIP3   OH250137   0.069   3.169   4.153  0.1354 -0.4738  0.2007
 9549TIP3    H150138   0.108   3.232   4.092 -0.7878 -1.2417 -1.2376
 9549TIP3    H250139   0.013   3.223   4.209  0.9284  0.2421  0.3249
 9550TIP3   OH250140   2.134   4.005   2.568  0.4672 -0.4773  0.0323
 9550TIP3    H150141   2.204   3.956   2.525 -0.9054 -1.3066 -1.3778
 9550TIP3    H250142   2.121   3.960   2.652 -0.5274 -2.4128 -1.0887
 9551TIP3   OH250143   5.712   2.146   3.269  0.1161 -0.5557  0.2089
 9551TIP3    H150144   5.667   2.224   3.301 -0.4015 -0.1111 -1.5376
 9551TIP3    H250145   5.665   2.073   3.309 -0.1670 -0.0155  0.8826
 9552TIP3   OH250146   3.549   5.581   1.458 -0.2206 -0.0863 -0.3801
 9552TIP3    H150147   3.525   5.630   1.537  1.4956 -0.6452  0.5351
 9552TIP3    H250148   3.512   5.494   1.471  0.0929 -0.1890 -0.1693
 9553TIP3   OH250149   2.181   1.142   3.955  0.5052 -0.5188 -0.2542
 9553TIP3    H150150   2.168   1.108   3.866 -2.4791  3.1354 -1.4750
 9553TIP3    H250151   2.222   1.228   3.942  1.8259 -0.6963  2.1475
 9554TIP3   OH250152   2.951   6.733   1.981 -0.4634  0.4381 -0.4648
 9554TIP3    H150153   2.955   6.733   1.885  0.3606  0.7815 -0.4344
 9554TIP3    H250154   2.862   6.763   2.001 -0.0436  2.1845 -1.0991
 9555TIP3   OH250155   5.544   4.632   2.892  0.4361  0.3853  0.3436
 9555TIP3    H150156   5.576   4.542   2.889 -0.0251  0.1577  1.4946
 9555TIP3    H250157   5.623   4.685   2.902  0.6000 -0.0602  1.7216
 9556TIP3   OH250158   1.872   0.319  14.721 -0.0030 -0.2824  0.3101
 9556TIP3    H150159   1.943   0.363  14.767 -0.1072 -0.7165  0.9030
 9556TIP3    H250160   1.796   0.375  14.736  0.0825 -0.1369  0.1982
 9557TIP3   OH250161   3.064   2.969  14.975  0.6529 -0.6564 -0.1147
 9557TIP3    H150162   3.009   2.892  14.990 -0.4070  0.2768  1.0269
 9557TIP3    H250163   3.148   2.934  14.948  0.6136 -2.2867  1.6977
 9558TIP3   OH250164   1.752   5.510   4.038 -0.0466 -0.2567 -0.2907
 9558TIP3    H150165   1.818   5.478   3.976  1.4213  0.2680  0.9353
 9558TIP3    H250166   1.675   5.526   3.985  1.1023 -0.0027 -1.9510
 9559TIP3   OH250167   2.694   5.443  15.205  0.1435  0.3354  0.1767
 9559TIP3    H150168   2.668   5.472  15.292 -0.0316  1.2035 -0.1562
 9559TIP3    H250169   2.789   5.434  15.210  0.0548 -0.3510  0.6676
 9560TIP3   OH250170   4.451   6.095  11.706 -0.4348 -0.0076  0.5306
 9560TIP3    H150171   4.499   6.024  11.748 -2.2932  0.0455  2.9312
 9560TIP3    H250172   4.520   6.155  11.674  1.1118 -1.8740  0.1441
 9561TIP3   OH250173   5.949   3.114  12.796 -0.6464  0.3583 -0.3795
 9561TIP3    H150174   6.037   3.077  12.806 -0.9314 -0.4885 -0.9332
 9561TIP3    H250175   5.890   3.041  12.812 -1.3356  1.2987  1.7438
 9562TIP3   OH250176   0.945   0.088  16.202 -0.0560  0.1987 -0.1086
 9562TIP3    H150177   0.899   0.021  16.152  1.9156 -0.9177 -0.5202
 9562TIP3    H250178   0.994   0.138  16.137  0.5443  0.3532  0.4484
 9563TIP3   OH250179   1.304   0.372   1.648 -0.2174 -0.3381 -0.4123
 9563TIP3    H150180   1.233   0.378   1.584 -0.2806  0.0302 -0.3102
 9563TIP3    H250181   1.382   0.399   1.599 -0.3422  0.4034 -0.2130
 9564TIP3   OH250182   4.036   0.645   6.955 -0.7715  0.9056 -0.4779
 9564TIP3    H150183   4.080   0.572   6.912 -0.3883  0.9897 -0.2287
 9564TIP3    H250184   4.020   0.708   6.885 -1.1564  0.5612 -0.7065
 9565TIP3   OH250185   1.710   1.815  15.652  0.1492 -0.0295  0.0127
 9565TIP3    H150186   1.656   1.771  15.586  0.7458 -0.6386 -0.0867
 9565TIP3    H250187   1.800   1.803  15.621  0.3738  0.5015  0.4490
 9566TIP3   OH250188   6.051   5.533   5.661  0.6548 -0.0160  0.1924
 9566TIP3    H150189   5.977   5.595   5.659  1.1015  0.5170 -0.9987
 9566TIP3    H250190   6.012   5.448   5.643  0.0724 -0.0714  1.5608
 9567TIP3   OH250191   4.149   2.037   0.227 -0.6379 -0.3647  0.5824
 9567TIP3    H150192   4.058   2.015   0.210 -0.9566  0.0469  1.6866
 9567TIP3    H250193   4.181   1.967   0.285 -0.5014 -0.0741  0.8664
 9568TIP3   OH250194   4.836   6.490  14.589 -0.0442  0.1036 -0.2877
 9568TIP3    H150195   4.761   6.542  14.559 -0.2971  0.4443  0.8811
 9568TIP3    H250196   4.904   6.555  14.608 -0.2151 -0.0018  0.7589
 9569TIP3   OH250197   5.828   2.259  15.673 -0.1777  0.1113  0.2238
 9569TIP3    H150198   5.894   2.319  15.639 -1.6456  2.1782  0.7910
 9569TIP3    H250199   5.825   2.187  15.610  2.3812  0.0507  0.0667
 9570TIP3   OH250200   6.288   6.681   5.659 -0.2703  0.2863 -0.1127
 9570TIP3    H150201   6.258   6.756   5.710 -0.3605  0.2004 -0.0386
 9570TIP3    H250202   6.245   6.690   5.574  0.0777  0.5667 -0.2641
 9571TIP3   OH250203   6.121   3.278  13.036  0.1496 -0.7199 -0.2049
 9571TIP3    H150204   6.151   3.228  13.112 -0.0798 -0.5521 -0.0010
 9571TIP3    H250205   6.185   3.260  12.968  1.4219  0.6384  0.5903
 9572TIP3   OH250206   5.705   2.325  11.468  0.3972 -0.3997  0.6048
 9572TIP3    H150207   5.745   2.240  11.488  0.3671 -0.7812 -0.8685
 9572TIP3    H250208   5.702   2.329  11.373 -0.3952  0.8990  0.6535
 9573TIP3   OH250209   2.608   0.013   2.665 -0.2904  0.1780 -0.2258
 9573TIP3    H150210   2.526   0.011   2.617 -0.2109 -1.4481 -0.3324
 9573TIP3    H250211   2.583  -0.005   2.756 -0.0599 -0.3484 -0.2629
 9574TIP3   OH250212   4.959   2.391   1.534  0.4428 -0.7801  0.0284
 9574TIP3    H150213   4.866   2.405   1.515  1.0134  0.7043 -2.0716
 9574TIP3    H250214   4.974   2.299   1.513 -0.1758 -0.5509 -1.5490
 9575TIP3   OH250215   2.997   2.197  16.107 -0.3661 -0.3010 -0.4256
 9575TIP3    H150216   2.989   2.274  16.164 -0.9284 -0.7318  0.0903
 9575TIP3    H250217   2.988   2.232  16.018 -0.4439  0.2504 -0.2068
 9576TIP3   OH250218   1.761   4.773  12.538  0.4107 -0.0192 -0.2671
 9576TIP3    H150219   1.685   4.715  12.541 -1.2853  2.0703 -0.0846
 9576TIP3    H250220   1.802   4.763  12.624 -1.1029  0.5818  0.5588
 9577TIP3   OH250221   2.289   3.288   4.187 -0.9372  0.3112 -0.3935
 9577TIP3    H150222   2.309   3.276   4.094  0.6240 -0.1774 -0.0267
 9577TIP3    H250223   2.207   3.336   4.188 -1.9810 -1.2949 -2.0244
 9578TIP3   OH250224   3.664   1.209  16.196 -0.1460  0.1942 -0.1386
 9578TIP3    H150225   3.618   1.293  16.187 -2.4679 -0.8392  1.2082
 9578TIP3    H250226   3.594   1.146  16.214  1.9038 -1.1498  4.4304
 9579TIP3   OH250227   6.658   5.238  10.430  0.4393 -0.1953  0.0414
 9579TIP3    H150228   6.676   5.198  10.345 -0.5458  1.8589 -1.2162
 9579TIP3    H250229   6.710   5.319  10.429 -0.2180  0.2579  1.0571
 9580TIP3   OH250230   2.174   4.651  16.701 -0.2724  0.6006 -0.1069
 9580TIP3    H150231   2.223   4.624  16.780  0.5167  2.6812  0.1712
 9580TIP3    H250232   2.085   4.667  16.733 -1.2181 -2.8538 -0.5493
 9581TIP3   OH250233   4.340   2.632   2.720 -0.0599  0.4138  0.4989
 9581TIP3    H150234   4.353   2.538   2.709  1.5983  0.5074  1.3515
 9581TIP3    H250235   4.326   2.665   2.631  0.1388 -0.5160  0.1109
 9582TIP3   OH250236   6.670   4.287   3.284 -0.8502  0.4452  0.2725
 9582TIP3    H150237   6.670   4.312   3.377 -1.2836  1.3276  0.0403
 9582TIP3    H250238   6.593   4.232   3.274 -1.2935  1.0585  0.2576
 9583TIP3   OH250239   0.984   6.295  14.568 -0.2611  0.5110 -0.4118
 9583TIP3    H150240   0.916   6.274  14.505 -1.1867  0.5240  0.5572
 9583TIP3    H250241   1.011   6.210  14.604  1.7243  0.2839 -2.2338
 9584TIP3   OH250242   4.298   6.100  15.028 -0.2603 -0.2739 -0.1494
 9584TIP3    H150243   4.214   6.106  15.073 -1.3153 -2.2298 -1.7005
 9584TIP3    H250244   4.352   6.167  15.070 -2.6361  1.2241  0.7453
 9585TIP3   OH250245   0.442   4.789  11.397  0.0291  0.4089  0.4083
 9585TIP3    H150246   0.372   4.726  11.378  1.3770 -0.2583 -3.3731
 9585TIP3    H250247   0.506   4.738  11.447  1.5885 -1.9050 -3.4597
 9586TIP3   OH250248   2.382   5.750   1.084  0.0605 -0.5516  0.5922
 9586TIP3    H150249   2.353   5.661   1.102  1.9717 -1.3462  0.0654
 9586TIP3    H250250   2.465   5.739   1.037  0.1460  1.5098  0.1480
 9587TIP3   OH250251   2.476   4.675   5.842 -0.3872  0.1591 -0.6980
 9587TIP3    H150252   2.538   4.633   5.783  1.0606  0.7872  0.3091
 9587TIP3    H250253   2.446   4.605   5.899  1.7756  0.3239  0.7729
 9588TIP3   OH250254   1.839   2.576   3.235 -0.3384 -0.0305  0.2498
 9588TIP3    H150255   1.790   2.537   3.162 -0.9216  1.6011 -0.2629
 9588TIP3    H250256   1.821   2.670   3.230  2.7729  0.6848  0.0738
 9589TIP3   OH250257   0.600   4.994   3.821  0.1857  0.4315 -0.7754
 9589TIP3    H150258   0.634   5.010   3.909 -0.5736 -1.9731  0.0552
 9589TIP3    H250259   0.527   5.055   3.811  0.3159  0.7610  0.2608
 9590TIP3   OH250260   1.468   0.160   0.543 -0.2793 -0.1882  0.4574
 9590TIP3    H150261   1.435   0.219   0.475  0.3229  0.5733  0.8137
 9590TIP3    H250262   1.389   0.121   0.581 -0.6068 -1.1241 -1.0982
 9591TIP3   OH250263   5.887   3.630  15.956  0.0498 -0.2467  0.5434
 9591TIP3    H150264   5.939   3.687  16.014 -0.4753  0.2802  0.4995
 9591TIP3    H250265   5.927   3.544  15.966  0.7183  0.0831  0.7786
 9592TIP3   OH250266   6.448   3.277  11.771  0.5884  0.1376 -0.7414
 9592TIP3    H150267   6.470   3.205  11.830  2.8561  0.1619 -1.4669
 9592TIP3    H250268   6.418   3.347  11.829  1.4031 -0.3278  0.2714
 9593TIP3   OH250269   1.082   1.239  12.389 -0.7907  0.1556 -0.8310
 9593TIP3    H150270   1.032   1.173  12.437  0.4710 -0.7680 -0.7187
 9593TIP3    H250271   1.032   1.319  12.399 -0.2078  0.2591  2.7984
 9594TIP3   OH250272   5.501   2.774  13.353 -0.7116  0.9230 -0.2406
 9594TIP3    H150273   5.522   2.822  13.272 -0.5641  0.2804 -0.5945
 9594TIP3    H250274   5.582   2.777  13.403 -1.0117  1.9402  0.2204
 9595TIP3   OH250275   5.562   2.506  14.292 -0.3057 -0.4682 -0.3273
 9595TIP3    H150276   5.522   2.470  14.371  0.0846 -1.0565 -0.3927
 9595TIP3    H250277   5.641   2.454  14.279  1.2350  1.5208  0.5524
 9596TIP3   OH250278   2.733   3.043   2.762  0.3819  0.1938  0.3748
 9596TIP3    H150279   2.712   2.969   2.704  1.0568 -1.7257  2.4525
 9596TIP3    H250280   2.648   3.073   2.794  0.0305  1.0158 -1.2111
 9597TIP3   OH250281   4.519   4.120  15.201  0.0082 -0.5456  0.3306
 9597TIP3    H150282   4.579   4.170  15.257 -0.5530 -0.7262  1.1099
 9597TIP3    H250283   4.437   4.118  15.250 -0.3062 -1.2652 -0.2114
 9598TIP3   OH250284   2.343   6.375  16.752 -0.3939 -0.0205  0.0250
 9598TIP3    H150285   2.404   6.449  16.740 -1.9297  1.2278 -0.3685
 9598TIP3    H250286   2.400   6.298  16.760  1.2248  1.0656 -0.5882
 9599TIP3   OH250287   6.788   5.831   4.575 -0.2279  0.1522  0.0154
 9599TIP3    H150288   6.748   5.752   4.613 -0.2891 -0.0656 -0.4950
 9599TIP3    H250289   6.826   5.802   4.493  0.6132  0.4565  0.2860
 9600TIP3   OH250290   4.293   1.197   5.245 -0.8680  0.2104 -0.3142
 9600TIP3    H150291   4.245   1.247   5.311 -1.2642 -0.0853 -0.3730
 9600TIP3    H250292   4.255   1.109   5.250 -0.2011 -0.0774 -0.2352
 9601TIP3   OH250293   3.058   3.599  12.495  0.3565  0.1152  0.1306
 9601TIP3    H150294   3.134   3.549  12.527  0.5068 -0.3733 -0.9607
 9601TIP3    H250295   3.043   3.566  12.407 -0.8330  0.5624  0.1540
 9602TIP3   OH250296   2.597   4.758  11.734  0.6295 -0.2465  0.1046
 9602TIP3    H150297   2.579   4.828  11.671 -0.8353 -2.0888 -1.6506
 9602TIP3    H250298   2.556   4.788  11.815  1.0415  1.4204 -0.2606
 9603TIP3   OH250299   0.693   2.496   1.911  0.1707  0.4550  0.1890
 9603TIP3    H150300   0.788   2.486   1.902  0.2741  0.7275  0.9404
 9603TIP3    H250301   0.669   2.564   1.848  0.5828  0.9041  0.5130
 9604TIP3   OH250302   2.225   5.033  14.113  0.1813 -0.2452  0.7096
 9604TIP3    H150303   2.319   5.051  14.115  0.2144  0.8398 -2.9684
 9604TIP3    H250304   2.216   4.958  14.054 -1.3743  2.4587 -2.8100
 9605TIP3   OH250305   1.303   2.124   4.202 -0.3513  0.6310 -0.3519
 9605TIP3    H150306   1.212   2.098   4.213 -0.2125  0.8531  1.7704
 9605TIP3    H250307   1.338   2.129   4.291  2.4996 -2.0174 -1.1460
 9606TIP3   OH250308   2.714   5.749  16.323 -0.3266  0.2517 -0.7354
 9606TIP3    H150309   2.792   5.749  16.269 -0.8460 -3.0534 -1.6835
 9606TIP3    H250310   2.663   5.823  16.291  1.1937  0.8340 -1.9387
 9607TIP3   OH250311   4.224   2.664  12.843  0.3626 -0.4015  0.2533
 9607TIP3    H150312   4.259   2.642  12.756  2.3098 -0.2774  0.9559
 9607TIP3    H250313   4.285   2.623  12.904  0.2933  1.3744  1.5714
 9608TIP3   OH250314   0.063   6.508   3.772 -0.1288  0.1462  0.4845
 9608TIP3    H150315   0.042   6.481   3.861 -0.2982  1.1187  0.7487
 9608TIP3    H250316   0.153   6.540   3.777 -0.1522  0.2413  0.3172
 9609TIP3   OH250317   5.729   2.481  14.587 -0.0345 -0.3137  0.0835
 9609TIP3    H150318   5.810   2.455  14.544  0.3460  2.5285 -1.1783
 9609TIP3    H250319   5.728   2.432  14.669  2.1917 -1.5577 -0.5528
 9610TIP3   OH250320   4.758   6.289   1.381 -0.3878 -0.3278 -0.1973
 9610TIP3    H150321   4.678   6.282   1.433  0.7608 -1.1820  1.5952
 9610TIP3    H250322   4.818   6.339   1.437  0.9785 -1.4922 -0.5721
 9611TIP3   OH250323   5.868   2.053   4.340  0.3784  0.3929 -0.7129
 9611TIP3    H150324   5.836   2.130   4.293 -0.9929  0.1891 -0.1532
 9611TIP3    H250325   5.943   2.023   4.289  0.1817  1.3850 -1.6114
 9612TIP3   OH250326   5.689   6.604   4.779  0.1983  0.3228  0.8774
 9612TIP3    H150327   5.595   6.596   4.764  0.3882  0.0835 -0.2883
 9612TIP3    H250328   5.715   6.522   4.820  0.6038 -1.5908 -2.7947
 9613TIP3   OH250329   2.750   1.739   1.836  0.1415  0.1728  0.0621
 9613TIP3    H150330   2.736   1.648   1.810 -0.4738  0.0899  0.6860
 9613TIP3    H250331   2.663   1.776   1.847  0.3774  0.3084  1.6501
 9614TIP3   OH250332   5.945   6.028   2.798 -0.6199  0.4257  0.7999
 9614TIP3    H150333   5.941   6.073   2.883 -3.0273  0.6571  0.6320
 9614TIP3    H250334   5.977   6.095   2.737  2.0644 -0.0154  1.6220
 9615TIP3   OH250335   0.546   4.797  12.416  0.3411  0.1820  0.2028
 9615TIP3    H150336   0.532   4.884  12.379 -1.0383 -0.4077 -0.7615
 9615TIP3    H250337   0.466   4.778  12.465  1.8655  0.6812  3.1036
 9616TIP3   OH250338   6.105   4.822  10.414 -0.0871  0.2024  0.0403
 9616TIP3    H150339   6.016   4.819  10.448  0.1999  0.0007  0.8026
 9616TIP3    H250340   6.111   4.905  10.367 -0.2081  0.9755  1.3303
 9617TIP3   OH250341   6.113   6.452  15.928 -0.5198 -0.1424  0.1534
 9617TIP3    H150342   6.173   6.412  15.866  1.0762  0.6974  1.0950
 9617TIP3    H250343   6.153   6.437  16.013 -2.1813 -0.4303  0.9209
 9618TIP3   OH250344   3.933   6.373  15.654  0.0782 -0.4456  0.2621
 9618TIP3    H150345   3.871   6.444  15.635 -0.3389 -0.5224  1.2747
 9618TIP3    H250346   3.896   6.329  15.730  1.2480 -0.6726  0.7150
 9619TIP3   OH250347   6.336   1.189   4.737 -0.9289  0.1464 -0.0147
 9619TIP3    H150348   6.402   1.195   4.668 -0.8379 -1.9474 -0.1691
 9619TIP3    H250349   6.349   1.268   4.789  1.6292 -0.1148 -0.1290
 9620TIP3   OH250350   6.031   5.380   2.253 -0.2066  0.0703 -0.0511
 9620TIP3    H150351   6.062   5.422   2.173 -0.7443  0.0113 -0.2968
 9620TIP3    H250352   5.940   5.407   2.261 -0.6025 -1.1275 -0.2808
 9621TIP3   OH250353   4.707   1.782   1.020  0.6067  0.5855  0.6824
 9621TIP3    H150354   4.770   1.837   1.065  1.2797  0.3834  0.0178
 9621TIP3    H250355   4.632   1.777   1.079  1.3766  0.4894  1.6738
 9622TIP3   OH250356   5.295   4.667  11.259 -0.5963  0.6509  0.1406
 9622TIP3    H150357   5.316   4.725  11.332  1.2567 -0.5005  0.5824
 9622TIP3    H250358   5.331   4.711  11.182 -1.0126  1.0333  0.1586
 9623TIP3   OH250359   3.988   5.251  16.613 -0.3061 -0.4360 -0.1380
 9623TIP3    H150360   3.973   5.189  16.685  0.8766  1.1089  1.5447
 9623TIP3    H250361   4.083   5.251  16.601 -0.2479  1.1418  0.0505
 9624TIP3   OH250362   3.219   4.488  11.788 -0.1095 -0.0630  0.3085
 9624TIP3    H150363   3.184   4.446  11.709 -1.1563  2.0731 -0.4456
 9624TIP3    H250364   3.143   4.527  11.831  0.9391  2.8728 -0.2284
 9625TIP3   OH250365   2.572   4.979  10.958  0.3291  0.2696 -0.4181
 9625TIP3    H150366   2.544   4.892  10.986  0.3499  0.6893  1.0027
 9625TIP3    H250367   2.639   4.964  10.892  0.3329 -0.7902 -0.1813
 9626TIP3   OH250368   4.363   4.530  13.833  0.0183 -0.0883  0.3102
 9626TIP3    H150369   4.352   4.621  13.862 -2.5377  0.2347 -1.3789
 9626TIP3    H250370   4.455   4.525  13.807 -0.1186  2.5639 -1.1011
 9627TIP3   OH250371   0.506   1.718   2.869 -0.0543  0.0940 -0.3221
 9627TIP3    H150372   0.453   1.642   2.844 -0.8029  0.1313  1.0906
 9627TIP3    H250373   0.474   1.788   2.813 -0.7790 -0.1434 -0.2203
 9628TIP3   OH250374   3.301   3.712   1.027 -0.4569  0.0077 -0.1173
 9628TIP3    H150375   3.225   3.682   0.978  0.1385  0.5395 -1.4337
 9628TIP3    H250376   3.373   3.706   0.965  0.2759  0.9976  0.6037
 9629TIP3   OH250377   6.667   1.302   2.440  0.0439 -0.4969  0.5287
 9629TIP3    H150378   6.590   1.358   2.430  0.2254 -0.0536  1.4844
 9629TIP3    H250379   6.668   1.248   2.362 -1.6110 -0.9706  0.8060
 9630TIP3   OH250380   3.555   2.485  16.736  0.5664  0.1646 -0.0714
 9630TIP3    H150381   3.587   2.396  16.721  1.3603  0.5600 -0.8138
 9630TIP3    H250382   3.488   2.497  16.669  0.4718  0.1243  0.0168
 9631TIP3   OH250383   2.587   1.540  12.593 -0.4112 -0.3304  0.2652
 9631TIP3    H150384   2.647   1.601  12.637 -1.0435 -0.3799  1.2359
 9631TIP3    H250385   2.537   1.595  12.532 -0.7626  0.0789  0.9099
 9632TIP3   OH250386   4.369   4.280   3.090 -0.6068  0.1282 -0.3413
 9632TIP3    H150387   4.363   4.196   3.136  1.2754  0.3299  0.3851
 9632TIP3    H250388   4.303   4.335   3.131  0.2122 -0.0823  1.3417
 9633TIP3   OH250389   4.631   3.998   0.244 -0.0359 -0.4557 -0.2882
 9633TIP3    H150390   4.671   3.966   0.163  1.7374  0.7552  0.0532
 9633TIP3    H250391   4.673   3.947   0.313 -0.2609 -0.2869 -0.0233
 9634TIP3   OH250392   2.702   4.809  14.885  0.8565 -0.1864 -0.2588
 9634TIP3    H150393   2.773   4.863  14.920 -1.2929  1.9643  1.0977
 9634TIP3    H250394   2.721   4.721  14.916  2.0288  0.6329  1.5382
 9635TIP3   OH250395   1.924   4.410  16.696 -0.5027  0.1085 -0.5968
 9635TIP3    H150396   1.956   4.498  16.714 -0.4537 -0.3290  1.7893
 9635TIP3    H250397   1.860   4.393  16.765  1.4758 -2.6955  0.7573
 9636TIP3   OH250398   4.578   0.587   6.159 -0.8922 -0.1244  0.1705
 9636TIP3    H150399   4.606   0.583   6.068  0.8528 -1.0648  0.7078
 9636TIP3    H250400   4.613   0.670   6.192 -1.3914  0.1417  0.0505
 9637TIP3   OH250401   4.869   1.378   4.390 -0.0701  0.0802  0.1834
 9637TIP3    H150402   4.857   1.328   4.310 -0.8505  0.0716  0.3036
 9637TIP3    H250403   4.781   1.399   4.420  0.0060 -2.6857  2.7788
 9638TIP3   OH250404   0.733   0.394  13.286 -0.1575  0.5810  0.0512
 9638TIP3    H150405   0.799   0.454  13.319  1.4757 -0.8061 -0.5309
 9638TIP3    H250406   0.689   0.361  13.365  1.3400 -0.0896  0.6411
 9639TIP3   OH250407   0.937   0.160  12.347  0.1971  0.2665  0.6945
 9639TIP3    H150408   0.888   0.143  12.428  0.4642 -1.8341  0.4677
 9639TIP3    H250409   0.880   0.127  12.277  0.8213  0.2284  0.2009
 9640TIP3   OH250410   1.415   0.027  15.667  0.0810 -0.6677  0.2213
 9640TIP3    H150411   1.492   0.052  15.616 -0.3631  0.6477  0.1562
 9640TIP3    H250412   1.384  -0.053  15.626 -0.2396  0.3326 -1.5638
 9641TIP3   OH250413   1.841   0.366  11.493 -0.3531 -0.1586 -0.3675
 9641TIP3    H150414   1.877   0.360  11.581  0.7415 -0.2204 -0.8071
 9641TIP3    H250415   1.831   0.275  11.465 -2.0263 -0.1912  0.1849
 9642TIP3   OH250416   1.542   2.997   0.529 -0.4358 -0.5046 -0.1071
 9642TIP3    H150417   1.610   3.027   0.468 -0.9255 -0.9913 -0.9241
 9642TIP3    H250418   1.530   2.904   0.507 -0.3237 -0.8013  1.0406
 9643TIP3   OH250419   2.218   4.206   5.700  0.1167 -0.2291 -0.3532
 9643TIP3    H150420   2.250   4.296   5.701  1.3816 -0.6559 -0.4076
 9643TIP3    H250421   2.129   4.212   5.666  0.2424  0.9804 -0.4947
 9644TIP3   OH250422   3.461   6.850  16.304  0.2292 -0.4946  0.0433
 9644TIP3    H150423   3.529   6.917  16.306 -0.1068 -0.1532  0.1377
 9644TIP3    H250424   3.395   6.880  16.367 -1.0389  0.2895 -1.5918
 9645TIP3   OH250425   2.196   0.713  15.727 -0.0861  0.0115  0.5760
 9645TIP3    H150426   2.180   0.626  15.691  0.6510 -0.4949  1.4455
 9645TIP3    H250427   2.211   0.699  15.820 -1.1538  1.2109  0.9592
 9646TIP3   OH250428   5.736   3.754   6.016 -0.0281  0.2035  0.1808
 9646TIP3    H150429   5.731   3.697   6.092 -0.9400 -0.0861 -0.0765
 9646TIP3    H250430   5.674   3.825   6.035  0.7355  0.8534  0.2871
 9647TIP3   OH250431   4.464   6.820  13.758  0.2214  0.0140 -0.3728
 9647TIP3    H150432   4.497   6.750  13.701  0.5641 -0.9157  0.9284
 9647TIP3    H250433   4.371   6.801  13.769  0.3913 -0.4590  0.2774
 9648TIP3   OH250434   3.592   5.195  12.573 -0.5068  0.1186  0.2244
 9648TIP3    H150435   3.559   5.259  12.509 -0.5110 -1.7571 -1.7589
 9648TIP3    H250436   3.513   5.153  12.607 -0.4254 -0.3778 -0.1866
 9649TIP3   OH250437   4.685   2.121   2.796  0.4665 -0.2535 -0.2026
 9649TIP3    H150438   4.693   2.191   2.733  1.0290 -0.8428 -0.8041
 9649TIP3    H250439   4.702   2.041   2.746  2.8244 -0.6131  1.0261
 9650TIP3   OH250440   2.463   3.660  13.883  0.0100 -0.2240  0.6149
 9650TIP3    H150441   2.552   3.626  13.872  0.0742 -0.0120  0.4757
 9650TIP3    H250442   2.471   3.726  13.951  0.1415  0.4823 -0.0757
 9651TIP3   OH250443   2.294   1.405   4.561  0.2025  0.6262 -0.7136
 9651TIP3    H150444   2.229   1.458   4.514  0.4158  0.4222 -1.2553
 9651TIP3    H250445   2.264   1.315   4.548 -0.3586  0.6210  0.5029
 9652TIP3   OH250446   3.613   1.488   0.483  0.5779 -0.3966 -0.4063
 9652TIP3    H150447   3.529   1.534   0.489  1.0605  1.1257 -3.2332
 9652TIP3    H250448   3.660   1.513   0.563 -0.7745  0.6339  0.1070
 9653TIP3   OH250449   5.329   4.553   5.353 -0.2549 -0.5279 -0.3532
 9653TIP3    H150450   5.243   4.576   5.389 -0.0105 -0.8525  0.4474
 9653TIP3    H250451   5.310   4.490   5.284 -0.5872 -1.5004  0.6032
 9654TIP3   OH250452   6.141   4.708  16.606 -0.0871  0.3333  0.0167
 9654TIP3    H150453   6.124   4.658  16.686  0.2809  2.0463  1.2060
 9654TIP3    H250454   6.225   4.751  16.622  0.6981 -0.3874 -1.8812
 9655TIP3   OH250455   4.929   1.679   4.746  0.0192 -0.2126  0.2489
 9655TIP3    H150456   4.901   1.757   4.794 -0.9852  1.8017 -3.2028
 9655TIP3    H250457   5.024   1.686   4.742 -0.0766  1.1907 -0.4008
 9656TIP3   OH250458   0.249   2.459  16.936  0.4389 -0.1551 -0.1912
 9656TIP3    H150459   0.190   2.446  17.010  0.4516 -0.4789 -0.2338
 9656TIP3    H250460   0.313   2.523  16.967 -0.7342  1.2805 -0.6129
 9657TIP3   OH250461   1.050   2.143  16.051 -0.1548 -0.3442 -0.0221
 9657TIP3    H150462   1.118   2.211  16.054  1.7418 -2.0505 -1.3043
 9657TIP3    H250463   1.094   2.064  16.083 -0.8539 -1.9770 -2.7103
 9658TIP3   OH250464   1.129   2.092  15.309  0.0607 -0.4968  0.0823
 9658TIP3    H150465   1.162   2.002  15.312  1.5823  0.0325  0.5193
 9658TIP3    H250466   1.053   2.088  15.252  0.8528 -1.8348 -0.9493
 9659TIP3   OH250467   3.978   0.260   6.246  0.0171  0.0741  0.5038
 9659TIP3    H150468   4.025   0.338   6.275 -1.9804  2.8782 -2.9776
 9659TIP3    H250469   4.036   0.221   6.180  0.5723 -0.8340  1.5113
 9660TIP3   OH250470   0.228   1.691  16.703  0.3095 -0.2429 -0.2255
 9660TIP3    H150471   0.260   1.640  16.778 -1.4007  0.9291  1.3764
 9660TIP3    H250472   0.215   1.626  16.634  1.2277 -1.4767  0.7119
 9661TIP3   OH250473   3.206   0.111   4.440  0.0509  0.5618  0.2785
 9661TIP3    H150474   3.224   0.201   4.411  0.8525  0.6335  0.9645
 9661TIP3    H250475   3.111   0.108   4.451  0.2023  2.2707  3.1520
 9662TIP3   OH250476   4.556   6.457   2.028 -0.2442  0.6282 -0.4534
 9662TIP3    H150477   4.473   6.466   2.074 -0.9604  0.7193 -1.7159
 9662TIP3    H250478   4.552   6.371   1.986  0.9516 -0.0170  0.6877
 9663TIP3   OH250479   3.218   4.183   2.129  0.2437  0.1438 -0.2785
 9663TIP3    H150480   3.128   4.208   2.151  0.1814 -0.4292  0.1201
 9663TIP3    H250481   3.245   4.122   2.198 -0.1554 -2.1150 -1.9900
 9664TIP3   OH250482   3.059   4.458   4.195 -0.4953 -0.4344  0.0609
 9664TIP3    H150483   3.082   4.375   4.153 -0.6066  0.5139 -1.9925
 9664TIP3    H250484   3.137   4.512   4.186 -1.0489  0.3098 -0.2955
 9665TIP3   OH250485   1.312   2.602  13.100  0.4462 -0.4468 -0.7130
 9665TIP3    H150486   1.252   2.665  13.139  1.5024  0.2667 -0.2047
 9665TIP3    H250487   1.257   2.526  13.081 -0.5455  0.0492  0.0675
 9666TIP3   OH250488   4.460   2.284   0.130  0.2633  0.0770 -0.2247
 9666TIP3    H150489   4.385   2.278   0.190  1.7000 -1.8400  1.5321
 9666TIP3    H250490   4.481   2.193   0.110  2.7908  0.4761  0.2615
 9667TIP3   OH250491   5.673   2.398  13.802 -0.3853  0.1965 -0.3726
 9667TIP3    H150492   5.637   2.365  13.884 -0.6973 -2.0904 -1.3376
 9667TIP3    H250493   5.640   2.487  13.795 -2.4364 -0.4105  0.7766
 9668TIP3   OH250494   6.520   2.506  16.321 -0.1149 -0.5549  0.7096
 9668TIP3    H150495   6.602   2.503  16.271  1.6945 -0.4278  3.4161
 9668TIP3    H250496   6.451   2.491  16.256  1.6653  3.0169 -2.4293
 9669TIP3   OH250497   1.246   4.758  12.182 -0.4767 -0.0638  0.3564
 9669TIP3    H150498   1.160   4.717  12.190 -0.6704  0.3029  0.1643
 9669TIP3    H250499   1.246   4.798  12.095  0.4478 -1.3361 -0.2550
 9670TIP3   OH250500   6.243   1.829   1.665 -0.1250  0.7205  0.6959
 9670TIP3    H150501   6.185   1.904   1.656 -0.7501  0.1337 -0.4208
 9670TIP3    H250502   6.189   1.762   1.707  0.2322  0.6705  1.0890
 9671TIP3   OH250503   3.611   2.325  12.561 -0.0782  0.1004  0.1326
 9671TIP3    H150504   3.664   2.258  12.516 -0.2366  0.9896 -1.4347
 9671TIP3    H250505   3.629   2.310  12.654  0.3093 -1.7687 -0.1961
 9672TIP3   OH250506   2.812   3.596  10.871 -0.2484  0.6486 -0.6762
 9672TIP3    H150507   2.846   3.676  10.831  0.8326  0.2428 -0.5998
 9672TIP3    H250508   2.733   3.576  10.821  0.3759  0.8604 -1.7709
 9673TIP3   OH250509   5.499   6.842   0.322  0.1076 -0.9832 -0.4428
 9673TIP3    H150510   5.528   6.927   0.288 -0.7365 -0.3635  0.3378
 9673TIP3    H250511   5.404   6.844   0.312 -0.0379 -1.2957  0.7638
 9674TIP3   OH250512   0.121   4.668  15.664 -0.0511  0.0120  0.7366
 9674TIP3    H150513   0.091   4.737  15.605  2.5977  1.3309  0.7956
 9674TIP3    H250514   0.072   4.684  15.745 -2.2501 -0.6006 -0.3767
 9675TIP3   OH250515   6.594   4.164   3.931 -0.4001  1.0582  0.3240
 9675TIP3    H150516   6.559   4.151   3.842  0.9419 -2.7874  0.1605
 9675TIP3    H250517   6.687   4.182   3.918 -0.4859  2.0019  0.9456
 9676TIP3   OH250518   0.542   0.112   0.913  0.0542 -0.0256 -0.2612
 9676TIP3    H150519   0.472   0.142   0.972  0.0739  1.1658 -0.8135
 9676TIP3    H250520   0.556   0.186   0.853  2.8824  0.3983  0.7946
 9677TIP3   OH250521   3.647   6.518   3.817  0.1023 -0.3004 -0.1551
 9677TIP3    H150522   3.653   6.613   3.804 -0.3861 -0.3089 -0.4788
 9677TIP3    H250523   3.556   6.504   3.843  0.0948 -0.7137 -0.4107
 9678TIP3   OH250524   0.801   4.110   4.253  0.2731  0.3318  0.0260
 9678TIP3    H150525   0.744   4.178   4.215  0.2432  0.1354 -0.2828
 9678TIP3    H250526   0.764   4.095   4.340  0.8250  1.3681  0.4645
 9679TIP3   OH250527   0.896   5.263  13.172 -0.1062 -0.0170  0.2590
 9679TIP3    H150528   0.928   5.286  13.259 -1.0273 -1.3203  0.9757
 9679TIP3    H250529   0.975   5.238  13.124  0.4150  0.7301  0.7091
 9680TIP3   OH250530   5.810   2.107   2.110 -0.4911 -0.6179  0.0592
 9680TIP3    H150531   5.878   2.041   2.099  0.7599  0.3311  1.6261
 9680TIP3    H250532   5.801   2.147   2.023  0.6484 -1.0619 -0.2751
 9681TIP3   OH250533   1.785   3.512   6.005 -0.0470  0.5545 -0.6283
 9681TIP3    H150534   1.752   3.591   5.962 -2.6435 -0.8737 -1.4744
 9681TIP3    H250535   1.750   3.516   6.093  0.9957  0.9774 -0.2131
 9682TIP3   OH250536   2.348   4.619   3.933  0.4944  0.2264  0.9526
 9682TIP3    H150537   2.436   4.585   3.950  0.7455  1.0890  1.4701
 9682TIP3    H250538   2.356   4.667   3.851  0.0678 -1.1585  0.0593
 9683TIP3   OH250539   5.106   0.007   1.016 -0.3421 -0.1884 -0.4101
 9683TIP3    H150540   5.083   0.093   1.051 -2.1842 -0.8008 -0.0440
 9683TIP3    H250541   5.089  -0.053   1.088 -1.4899 -1.1442 -1.4477
 9684TIP3   OH250542   6.682   3.363  12.117  0.1599 -0.4811 -0.2589
 9684TIP3    H150543   6.652   3.273  12.116 -1.8649  0.1268  0.5108
 9684TIP3    H250544   6.631   3.406  12.048  0.9624  0.1225 -0.4950
 9685TIP3   OH250545   5.163   0.998   2.217 -0.3880 -0.0124 -0.2258
 9685TIP3    H150546   5.218   0.948   2.277  0.0583 -0.3573 -0.9069
 9685TIP3    H250547   5.168   1.088   2.250 -0.4265 -0.2507  0.4492
 9686TIP3   OH250548   4.198   4.390   3.268 -0.6054 -0.6697 -0.1279
 9686TIP3    H150549   4.225   4.433   3.349  0.5907 -0.3245 -0.6868
 9686TIP3    H250550   4.145   4.316   3.297 -0.9663 -0.0201  0.9290
 9687TIP3   OH250551   1.289   3.008   0.851 -0.2508 -0.3359  0.4015
 9687TIP3    H150552   1.280   2.914   0.871  0.3215 -0.7470 -1.1675
 9687TIP3    H250553   1.384   3.023   0.849 -0.3374  0.2536  0.5020
 9688TIP3   OH250554   4.833   0.063  15.632  0.0074 -0.2822 -0.1266
 9688TIP3    H150555   4.904   0.078  15.695  0.0611 -0.9058 -0.0330
 9688TIP3    H250556   4.813   0.150  15.598  0.3637 -0.0107  0.3385
 9689TIP3   OH250557   4.984   3.934   5.828  0.1440  0.6627  0.1554
 9689TIP3    H150558   5.065   3.982   5.845 -0.7120  1.8359  1.1053
 9689TIP3    H250559   5.006   3.873   5.758  1.4811  1.8976 -0.5359
 9690TIP3   OH250560   2.929   1.648  14.008 -0.0501  0.4651 -0.6247
 9690TIP3    H150561   2.957   1.726  13.962 -1.9131  0.7061 -1.4533
 9690TIP3    H250562   2.943   1.668  14.101 -0.5566  1.8291 -0.8206
 9691TIP3   OH250563   3.756   5.406  15.831 -0.1434  0.4403 -0.6292
 9691TIP3    H150564   3.766   5.469  15.902  1.3571  0.9598 -1.2534
 9691TIP3    H250565   3.749   5.321  15.874  1.2522  0.6893  0.1426
 9692TIP3   OH250566   2.464   1.700  14.365 -0.9309 -0.2469  0.2120
 9692TIP3    H150567   2.498   1.701  14.454 -0.2069 -1.5775 -0.0282
 9692TIP3    H250568   2.540   1.723  14.310 -1.2573  0.1112 -0.0966
 9693TIP3   OH250569   1.911   5.027   3.228  0.4866 -0.1932 -0.6578
 9693TIP3    H150570   1.840   5.072   3.181 -0.1745 -0.3146  0.2035
 9693TIP3    H250571   1.870   4.993   3.307  1.9827  1.8128  1.1068
 9694TIP3   OH250572   5.593   5.125   4.548 -0.6671  0.4572  0.2509
 9694TIP3    H150573   5.612   5.159   4.636  0.9003  0.3639 -0.0367
 9694TIP3    H250574   5.611   5.198   4.489 -2.4060  0.7463  0.0290
 9695TIP3   OH250575   4.189   3.029   4.852  0.2425 -0.1759 -0.3003
 9695TIP3    H150576   4.142   2.946   4.855 -0.3848  0.1595 -0.5993
 9695TIP3    H250577   4.125   3.092   4.818  0.7037  0.4327 -0.0654
 9696TIP3   OH250578   6.466   4.512  10.915  0.1488 -0.0259  0.1453
 9696TIP3    H150579   6.446   4.510  10.822 -1.2747 -2.0362  0.4250
 9696TIP3    H250580   6.560   4.527  10.920  0.1584  0.6541 -1.5763
 9697TIP3   OH250581   6.057   4.128  15.997  0.1658 -0.5034  0.6037
 9697TIP3    H150582   5.983   4.178  15.964  1.1548  0.9108  0.4300
 9697TIP3    H250583   6.084   4.174  16.076  3.4667  1.6922 -1.5479
 9698TIP3   OH250584   6.455   5.565   4.828  0.1890 -0.2315  0.4160
 9698TIP3    H150585   6.374   5.594   4.788  0.1921 -1.9356 -0.9468
 9698TIP3    H250586   6.429   5.495   4.888  0.7098 -1.7147 -1.0086
 9699TIP3   OH250587   5.096   1.389  12.988  0.4760  0.0919  0.4977
 9699TIP3    H150588   5.080   1.333  13.064 -0.4396  2.0134  1.8072
 9699TIP3    H250589   5.009   1.410  12.955  0.8671 -0.6574 -1.0818
 9700TIP3   OH250590   4.501   3.865  14.392 -0.0349 -0.2987 -0.0434
 9700TIP3    H150591   4.437   3.932  14.368 -0.3611 -0.0584  1.4022
 9700TIP3    H250592   4.513   3.876  14.487  0.7244 -1.5762  0.0307
 9701TIP3   OH250593   6.484   5.093   1.393  0.2304  0.5675 -0.2994
 9701TIP3    H150594   6.392   5.072   1.379  0.2273 -0.2131  0.7857
 9701TIP3    H250595   6.495   5.088   1.488  1.3121  0.9995 -0.3959
 9702TIP3   OH250596   5.621   5.183  16.136 -0.2703  0.3795  0.3565
 9702TIP3    H150597   5.665   5.184  16.051 -0.1039  2.1712  0.4193
 9702TIP3    H250598   5.670   5.120  16.189  0.1220 -0.1476 -0.6108
 9703TIP3   OH250599   6.533   2.112  14.431  0.2169  0.2893  0.1547
 9703TIP3    H150600   6.584   2.166  14.491  0.0966 -0.0364  0.5525
 9703TIP3    H250601   6.456   2.166  14.410 -0.5323 -0.1952  1.5248
 9704TIP3   OH250602   5.797   3.597   4.418 -0.4666  1.0931  0.0608
 9704TIP3    H150603   5.750   3.672   4.454 -3.4637 -0.1704 -0.9206
 9704TIP3    H250604   5.762   3.522   4.465  3.2664  0.2267  1.8283
 9705TIP3   OH250605   2.244   0.205   5.415 -0.1421 -0.0386  0.2109
 9705TIP3    H150606   2.283   0.199   5.502  0.9862 -2.2365 -0.3707
 9705TIP3    H250607   2.292   0.275   5.372  0.3779  0.0163  0.8582
 9706TIP3   OH250608   2.842   5.501  16.020  0.4559  0.0138 -0.3710
 9706TIP3    H150609   2.854   5.406  16.013 -1.6606 -0.1666 -3.2600
 9706TIP3    H250610   2.901   5.537  15.954  2.0178  0.8934  1.4060
 9707TIP3   OH250611   1.108   0.019  11.797  0.2807 -0.4907 -0.0323
 9707TIP3    H150612   1.131   0.056  11.712  3.1560 -2.0442 -0.0712
 9707TIP3    H250613   1.076  -0.069  11.778  1.7303 -1.1669  0.4536
 9708TIP3   OH250614   2.650   2.240   1.991 -0.3965 -0.1311  0.7411
 9708TIP3    H150615   2.643   2.170   1.926 -1.1847 -0.1225  0.8040
 9708TIP3    H250616   2.561   2.275   1.998 -0.6746 -1.1216  2.9372
 9709TIP3   OH250617   5.043   4.993  10.958 -0.0200  0.0314 -0.2224
 9709TIP3    H150618   5.059   4.981  11.052  1.0475  1.7579 -0.1429
 9709TIP3    H250619   5.120   4.956  10.916 -0.1526 -0.0745 -0.3702
 9710TIP3   OH250620   1.096   1.870  15.869 -0.3830 -0.3576  0.0935
 9710TIP3    H150621   1.096   1.941  15.805 -1.2085  0.7976  1.3037
 9710TIP3    H250622   1.098   1.790  15.817 -2.2062  0.5039 -1.4474
 9711TIP3   OH250623   2.519   0.217  16.539 -0.1544 -0.2356 -0.5899
 9711TIP3    H150624   2.464   0.153  16.585  0.8599 -1.8625 -1.5366
 9711TIP3    H250625   2.463   0.294  16.530 -1.6512 -1.1849  0.0446
 9712TIP3   OH250626   2.584   6.009   2.518 -0.2638  0.0078 -0.2029
 9712TIP3    H150627   2.554   5.964   2.596 -1.0462 -0.6008 -0.8395
 9712TIP3    H250628   2.669   6.047   2.543  0.8274 -2.4614  0.1300
 9713TIP3   OH250629   4.382   5.715  12.178  0.2586 -0.2337 -0.5304
 9713TIP3    H150630   4.318   5.774  12.218  0.1183 -0.8505  0.1932
 9713TIP3    H250631   4.340   5.629  12.180  1.2214 -0.7166  0.2765
 9714TIP3   OH250632   1.815   6.395  12.249  0.7648 -0.1758  0.3363
 9714TIP3    H150633   1.834   6.451  12.324  0.9170  0.9129 -0.4860
 9714TIP3    H250634   1.723   6.371  12.260 -0.2146  2.6644 -0.7698
 9715TIP3   OH250635   2.407   5.214  16.974  0.3161  0.0248  0.3197
 9715TIP3    H150636   2.329   5.198  16.921  0.5245  1.7803 -0.5931
 9715TIP3    H250637   2.480   5.195  16.915  0.6358 -1.9101  1.2593
 9716TIP3   OH250638   3.348   0.155  12.624 -0.3381 -0.0165  0.5740
 9716TIP3    H150639   3.320   0.068  12.651  3.1924 -0.9586  1.8846
 9716TIP3    H250640   3.337   0.209  12.703  0.8557 -0.2837  0.9554
 9717TIP3   OH250641   1.542   5.279   0.701 -0.0319  0.3668  0.7108
 9717TIP3    H150642   1.551   5.184   0.695  0.0932  0.4606 -0.9832
 9717TIP3    H250643   1.622   5.308   0.746  1.9760 -0.0275 -2.2879
 9718TIP3   OH250644   1.346   2.337  11.796  0.3165 -0.4085 -0.5394
 9718TIP3    H150645   1.404   2.273  11.755  0.8662  1.5427 -3.0618
 9718TIP3    H250646   1.269   2.340  11.740  1.5790  3.1778 -2.4031
 9719TIP3   OH250647   4.340   5.358  14.455  0.1234 -0.0988 -0.0878
 9719TIP3    H150648   4.302   5.276  14.424 -0.7007  0.1327  0.3015
 9719TIP3    H250649   4.282   5.426  14.421  0.8079  0.3373 -0.4223
 9720TIP3   OH250650   1.166   4.056   5.573  0.0541  1.2186 -0.1286
 9720TIP3    H150651   1.091   3.999   5.561  0.8349  0.2790 -0.7501
 9720TIP3    H250652   1.158   4.090   5.662 -0.1932 -0.2308  0.4182
 9721TIP3   OH250653   2.859   4.658  13.746  0.3981 -0.7225  0.3484
 9721TIP3    H150654   2.815   4.648  13.661 -1.1276  1.2222  0.8069
 9721TIP3    H250655   2.869   4.753  13.756  2.0900 -0.9934  1.6132
 9722TIP3   OH250656   2.340   6.115  11.424 -0.1113 -0.2784 -0.1458
 9722TIP3    H150657   2.435   6.108  11.420  0.3044  3.6601 -1.3836
 9722TIP3    H250658   2.317   6.086  11.512  2.6703  1.5091  1.3217
 9723TIP3   OH250659   6.056   2.530  12.812 -1.4745  0.0468 -0.3150
 9723TIP3    H150660   6.073   2.448  12.767 -0.4670  0.5674 -0.9138
 9723TIP3    H250661   6.142   2.569  12.827 -1.9239  0.9745 -0.0135
 9724TIP3   OH250662   2.132   4.967  14.415  0.9148  0.4291  0.0412
 9724TIP3    H150663   2.154   4.881  14.380 -0.6570 -0.0377  0.1588
 9724TIP3    H250664   2.181   5.028  14.361  1.1347 -0.4651 -0.7938
 9725TIP3   OH250665   6.596   1.361  15.947 -0.1759  0.1820  0.0027
 9725TIP3    H150666   6.656   1.419  15.994 -0.5280 -0.5786  1.4312
 9725TIP3    H250667   6.597   1.394  15.857  0.5210  1.6789  0.5239
 9726TIP3   OH250668   3.605   3.033  11.985  0.3405 -0.3545  0.2684
 9726TIP3    H150669   3.559   2.974  12.045  0.6243  0.0613  0.9032
 9726TIP3    H250670   3.652   2.974  11.925 -0.5468 -0.7769 -0.0234
 9727TIP3   OH250671   3.678   5.023   2.493  0.2580  0.3693 -0.1525
 9727TIP3    H150672   3.650   5.078   2.566 -0.0009 -0.5501  0.4567
 9727TIP3    H250673   3.632   4.940   2.507  1.4132 -0.3495 -0.4893
 9728TIP3   OH250674   4.291   1.706  12.802  0.0954 -0.0980  0.4410
 9728TIP3    H150675   4.355   1.737  12.737 -0.3653  0.2244  0.1384
 9728TIP3    H250676   4.221   1.771  12.800  0.3946  0.2974  1.7742
 9729TIP3   OH250677   3.034   0.096   3.681 -0.4758  0.0022 -0.0052
 9729TIP3    H150678   3.119   0.105   3.639 -0.6697 -2.9607 -1.2540
 9729TIP3    H250679   3.013   0.184   3.712  3.7660  0.5482  1.9095
 9730TIP3   OH250680   1.108   1.252   1.991 -0.1087 -0.5104  0.0434
 9730TIP3    H150681   1.055   1.316   2.040  2.0609  1.0490  0.4920
 9730TIP3    H250682   1.097   1.170   2.040  1.0110  0.7039  2.5342
 9731TIP3   OH250683   0.882   1.229   0.289 -0.4547 -0.1648  0.0860
 9731TIP3    H150684   0.900   1.241   0.196  1.9197 -0.5188  0.4494
 9731TIP3    H250685   0.786   1.222   0.294 -0.7309  1.2109 -2.1316
 9732TIP3   OH250686   5.554   4.545   0.143 -0.3895 -0.1254 -0.1643
 9732TIP3    H150687   5.540   4.640   0.154 -0.2829 -0.2019  0.7072
 9732TIP3    H250688   5.522   4.527   0.055  0.2961  0.8580 -0.6398
 9733TIP3   OH250689   4.352   6.238   3.722  0.2966 -0.1068 -0.1926
 9733TIP3    H150690   4.375   6.196   3.805  1.1536 -0.5507 -0.6374
 9733TIP3    H250691   4.359   6.332   3.740  0.9317 -0.2063  0.1267
 9734TIP3   OH250692   5.965   2.318   0.767  0.5392  0.0590 -0.2216
 9734TIP3    H150693   6.029   2.331   0.837 -0.8051  0.1056  1.0295
 9734TIP3    H250694   5.964   2.223   0.754  2.1173  0.1680 -1.5042
 9735TIP3   OH250695   6.346   3.000  11.363 -0.0919 -0.4071  0.5539
 9735TIP3    H150696   6.355   3.042  11.448  1.6988  0.1130  0.1434
 9735TIP3    H250697   6.285   3.056  11.315  0.6879  0.6090  0.7156
 9736TIP3   OH250698   4.084   2.038   3.456  0.0967  0.4153 -0.7867
 9736TIP3    H150699   4.003   2.039   3.508 -0.3612 -1.4389 -1.3759
 9736TIP3    H250700   4.093   2.127   3.424 -0.5695  1.1871  1.0020
 9737TIP3   OH250701   6.566   3.243  15.059  0.4988  0.4458 -0.4824
 9737TIP3    H150702   6.555   3.294  15.139 -0.6042 -0.1078 -0.2575
 9737TIP3    H250703   6.636   3.181  15.080 -1.1506 -1.0619  0.8004
 9738TIP3   OH250704   3.902   1.249   1.878 -0.7939 -0.4669 -0.0225
 9738TIP3    H150705   3.918   1.214   1.791 -1.1422 -1.6893  0.3870
 9738TIP3    H250706   3.970   1.209   1.933 -0.2811  0.6523  0.2073
 9739TIP3   OH250707   0.659   5.764   2.428  0.1431  0.3893  0.3330
 9739TIP3    H150708   0.649   5.669   2.431  0.1313  0.2974 -1.4569
 9739TIP3    H250709   0.587   5.794   2.372 -3.7835  2.2070  5.5647
 9740TIP3   OH250710   6.013   5.747  12.984 -0.3719  0.4612 -0.3623
 9740TIP3    H150711   6.065   5.711  12.912  2.1729  2.3433  0.3764
 9740TIP3    H250712   6.004   5.840  12.962  1.2648  1.2922  2.0860
 9741TIP3   OH250713   3.309   0.521  14.098 -0.1420  0.4107 -0.1964
 9741TIP3    H150714   3.228   0.542  14.145 -0.0809 -0.0336  0.1094
 9741TIP3    H250715   3.337   0.436  14.133 -1.0488 -0.8291 -2.2803
 9742TIP3   OH250716   4.959   5.792  11.420 -0.5243 -0.0725  0.3592
 9742TIP3    H150717   4.992   5.836  11.498 -0.2591  0.0966  0.1534
 9742TIP3    H250718   4.927   5.863  11.364 -0.0059 -0.1287 -0.0144
 9743TIP3   OH250719   0.993   0.731  14.951 -0.3677 -0.4881  0.0602
 9743TIP3    H150720   1.076   0.701  14.914 -0.7752  0.0288 -1.2952
 9743TIP3    H250721   0.961   0.655  15.001  0.6284 -0.8819  0.1230
 9744TIP3   OH250722   2.678   3.204  11.379  0.4146 -0.0300 -0.5682
 9744TIP3    H150723   2.671   3.124  11.431  0.1354 -1.0505 -2.1137
 9744TIP3    H250724   2.590   3.217  11.343  0.1928  1.5403  0.3901
 9745TIP3   OH250725   0.084   1.002  13.720  0.2606 -0.2750  0.5594
 9745TIP3    H150726   0.028   0.967  13.651 -1.5713  1.7159  0.9099
 9745TIP3    H250727   0.110   0.925  13.771  0.3532 -1.5969 -1.3776
 9746TIP3   OH250728   4.023   2.368  14.850 -0.1828  0.6820  0.0081
 9746TIP3    H150729   4.068   2.368  14.766 -1.8391  2.4150 -0.9515
 9746TIP3    H250730   4.056   2.446  14.895 -0.7792  0.8838  0.1030
 9747TIP3   OH250731   3.829   2.884  14.478 -0.3780  0.2491  0.2446
 9747TIP3    H150732   3.903   2.921  14.430  0.1635 -0.7868  0.2790
 9747TIP3    H250733   3.766   2.957  14.482  0.0142  0.7000 -1.0661
 9748TIP3   OH250734   1.417   6.324   0.906 -1.0791 -0.6052 -0.0424
 9748TIP3    H150735   1.455   6.411   0.912  4.7792 -2.5819 -1.5639
 9748TIP3    H250736   1.386   6.318   0.815 -0.9903 -0.2202 -0.0982
 9749TIP3   OH250737   3.178   2.351  14.147  0.0815  0.0301  0.4143
 9749TIP3    H150738   3.213   2.288  14.210 -0.9299 -1.5987 -0.5747
 9749TIP3    H250739   3.157   2.299  14.069  1.6890  2.0174 -1.4882
 9750TIP3   OH250740   2.807   4.633  12.305 -0.0210  0.0657 -0.4699
 9750TIP3    H150741   2.868   4.599  12.371 -1.2653 -0.4289  0.4685
 9750TIP3    H250742   2.745   4.686  12.355 -1.9257 -1.5857 -0.9329
 9751TIP3   OH250743   0.182   3.864   5.774 -0.2015  0.0996 -0.2075
 9751TIP3    H150744   0.176   3.871   5.679 -1.3286 -0.3008 -0.1790
 9751TIP3    H250745   0.216   3.949   5.802  0.3545  0.1381 -0.9829
 9752TIP3   OH250746   0.188   1.131   0.834  0.0499 -0.5449  0.2387
 9752TIP3    H150747   0.138   1.059   0.873 -4.0290  1.4755 -0.6725
 9752TIP3    H250748   0.203   1.192   0.905 -2.2521  0.5028 -0.0833
 9753TIP3   OH250749   2.496   4.216   2.808  0.8193  0.0842  0.4400
 9753TIP3    H150750   2.496   4.244   2.716  1.2878  0.3299  0.5109
 9753TIP3    H250751   2.589   4.216   2.833  0.6019  1.8409  1.4550
 9754TIP3   OH250752   1.406   2.035  14.846  0.3141 -0.7977 -0.2040
 9754TIP3    H150753   1.332   1.994  14.891 -0.5322 -0.8048 -1.5431
 9754TIP3    H250754   1.427   2.111  14.900  1.8341 -2.8138  2.2552
 9755TIP3   OH250755   3.047   5.012  12.103  0.2525  0.2928 -0.3367
 9755TIP3    H150756   3.134   4.973  12.100  1.3008  2.5076 -0.7737
 9755TIP3    H250757   3.003   4.968  12.175  1.9078 -0.5541  0.2032
 9756TIP3   OH250758   1.910   3.462   0.183 -0.0581 -0.1233 -0.0333
 9756TIP3    H150759   1.940   3.371   0.187  0.9265  0.2099  0.3390
 9756TIP3    H250760   1.948   3.503   0.261  0.3672  0.8606 -0.7451
 9757TIP3   OH250761   0.169   4.176  14.961  0.2603  0.3116  0.2795
 9757TIP3    H150762   0.170   4.081  14.976  0.8979  0.1690 -0.5472
 9757TIP3    H250763   0.076   4.198  14.958  0.0250 -0.6980 -1.7551
 9758TIP3   OH250764   5.998   4.937  13.500  0.4314  0.6325  0.1191
 9758TIP3    H150765   6.043   4.898  13.426  0.0662  1.8772 -0.8003
 9758TIP3    H250766   5.917   4.887  13.508  1.1127 -0.4146  0.5929
 9759TIP3   OH250767   0.610   6.825  11.835  0.5008  0.0248 -0.1934
 9759TIP3    H150768   0.614   6.911  11.878 -1.8552  0.1520 -0.0873
 9759TIP3    H250769   0.644   6.842  11.747  2.2198  0.5031  0.5046
 9760TIP3   OH250770   0.455   0.488   4.736  0.1106 -0.1419  0.1902
 9760TIP3    H150771   0.428   0.404   4.773  0.2836 -0.3440 -0.1344
 9760TIP3    H250772   0.374   0.535   4.720  0.0605  0.3443  1.7206
 9761TIP3   OH250773   4.260   4.140  15.816  0.0331 -0.1745 -0.0453
 9761TIP3    H150774   4.215   4.217  15.852  1.1650  0.1453  0.7477
 9761TIP3    H250775   4.245   4.146  15.722  1.5061  2.0244 -0.2349
 9762TIP3   OH250776   1.970   5.910   4.468  0.3299 -0.2388 -0.3218
 9762TIP3    H150777   1.976   5.959   4.386  1.5572  1.0539  0.4968
 9762TIP3    H250778   1.925   5.829   4.444 -1.5187  1.1367 -1.7757
 9763TIP3   OH250779   5.880   3.154   0.900 -0.0355 -1.2092  0.3035
 9763TIP3    H150780   5.812   3.128   0.838 -0.0527 -1.3490  0.3820
 9763TIP3    H250781   5.846   3.127   0.986 -0.5945  0.1052  0.5356
 9764TIP3   OH250782   0.010   3.102   2.629  0.1520  0.3819  0.0785
 9764TIP3    H150783   0.085   3.161   2.636 -1.4444  2.9980 -2.5320
 9764TIP3    H250784   0.008   3.055   2.712  1.6824  3.9199  2.3323
 9765TIP3   OH250785   0.032   0.853   1.025  0.5441 -0.3622  0.2854
 9765TIP3    H150786   0.002   0.800   0.951 -0.7430 -0.5388  0.9179
 9765TIP3    H250787   0.010   0.802   1.103  0.1136  0.6813  0.8694
 9766TIP3   OH250788   0.841   2.575   2.468  0.1480  0.0068 -0.5121
 9766TIP3    H150789   0.862   2.548   2.379 -1.1023 -0.7709 -0.5984
 9766TIP3    H250790   0.757   2.620   2.460  0.0473 -0.0316  0.2636
 9767TIP3   OH250791   0.511   3.988   4.597  0.3045 -0.8863  0.6160
 9767TIP3    H150792   0.525   4.065   4.541  0.0913 -0.5458  1.0190
 9767TIP3    H250793   0.598   3.961   4.623  0.3906 -0.8806  0.3383
 9768TIP3   OH250794   3.189   1.191   1.713 -0.1696  0.0188 -0.1249
 9768TIP3    H150795   3.160   1.156   1.797 -0.4024 -0.3871 -0.3689
 9768TIP3    H250796   3.211   1.114   1.661  1.4196  0.3103  0.0653
 9769TIP3   OH250797   6.531   6.182  12.251 -0.2707  0.3456  0.1474
 9769TIP3    H150798   6.457   6.156  12.306  0.6954  0.9136  1.7528
 9769TIP3    H250799   6.592   6.108  12.256  0.3463  0.8902  0.8184
 9770TIP3   OH250800   6.381   5.165  15.197  0.0739 -0.4207  0.2379
 9770TIP3    H150801   6.293   5.134  15.176  0.0121 -2.0776  2.4862
 9770TIP3    H250802   6.438   5.091  15.175  0.4236 -0.7223  1.9606
 9771TIP3   OH250803   4.293   1.394   5.024 -0.6025  0.1645 -0.1796
 9771TIP3    H150804   4.223   1.458   5.034  1.9536  3.1107  0.3254
 9771TIP3    H250805   4.294   1.346   5.107 -3.3714 -1.6155 -1.0368
 9772TIP3   OH250806   4.310   0.123  15.811  0.1961  0.0997 -0.1258
 9772TIP3    H150807   4.245   0.184  15.775 -0.5446  0.5537  1.8459
 9772TIP3    H250808   4.261   0.044  15.831  0.6468 -0.2493 -0.3835
 9773TIP3   OH250809   2.349   0.872  14.647 -0.1318  0.5353  0.3062
 9773TIP3    H150810   2.319   0.787  14.615 -3.0240  1.3761  0.5026
 9773TIP3    H250811   2.275   0.907  14.696  1.2674  2.8344  0.9497
 9774TIP3   OH250812   1.304   1.670  10.911  0.0793 -0.5309  0.0162
 9774TIP3    H150813   1.276   1.579  10.903 -1.2884 -0.2256  0.9605
 9774TIP3    H250814   1.399   1.668  10.900  0.1425 -2.1561  0.6558
 9775TIP3   OH250815   3.455   5.454  14.742 -0.2468 -0.1507 -0.2313
 9775TIP3    H150816   3.525   5.514  14.713 -0.8737  0.2004 -1.0543
 9775TIP3    H250817   3.482   5.368  14.708 -1.5240  0.4329 -2.9807
 9776TIP3   OH250818   4.290   1.686   2.940 -0.2829  0.6428 -0.2062
 9776TIP3    H150819   4.383   1.684   2.917  0.1891  1.9788  1.3689
 9776TIP3    H250820   4.263   1.777   2.923 -0.7841  0.7750  1.1405
 9777TIP3   OH250821   1.603   2.838  11.430  0.0209 -0.1479  0.1752
 9777TIP3    H150822   1.689   2.876  11.447  0.3350 -1.0839  0.7828
 9777TIP3    H250823   1.547   2.912  11.408  0.3132  0.8276  2.4955
 9778TIP3   OH250824   3.245   4.800  15.529  0.5877 -0.5809  0.0332
 9778TIP3    H150825   3.271   4.760  15.612  1.2962  0.8358  0.5248
 9778TIP3    H250826   3.166   4.849  15.550  0.4423 -0.6882 -0.2659
 9779TIP3   OH250827   5.314   5.794  12.160 -0.5102 -0.3364 -0.0930
 9779TIP3    H150828   5.256   5.849  12.213 -0.7281  0.4267 -1.0866
 9779TIP3    H250829   5.345   5.853  12.091 -0.3932 -1.3536 -0.9235
 9780TIP3   OH250830   3.486   4.457   1.331  0.4807 -0.1434  0.3166
 9780TIP3    H150831   3.511   4.452   1.423 -0.3954 -0.7524  0.5361
 9780TIP3    H250832   3.411   4.399   1.323 -0.6668  1.3634 -0.3849
 9781TIP3   OH250833   3.420   2.160  15.735  0.1473  0.1937 -0.4218
 9781TIP3    H150834   3.359   2.194  15.802  2.9344  0.3039  2.3084
 9781TIP3    H250835   3.420   2.228  15.667 -1.7614  0.7982  0.1042
 9782TIP3   OH250836   5.681   0.670  14.769 -0.6293  0.1386  0.4611
 9782TIP3    H150837   5.775   0.687  14.776 -0.8618  0.8578  2.5231
 9782TIP3    H250838   5.654   0.643  14.857 -2.0472 -1.9245 -0.5158
 9783TIP3   OH250839   4.745   0.289   0.556 -0.1162  0.1874 -0.0057
 9783TIP3    H150840   4.801   0.215   0.581 -0.6081 -1.3477 -2.9993
 9783TIP3    H250841   4.656   0.254   0.559 -0.5071  1.1678  0.0858
 9784TIP3   OH250842   5.038   0.303  13.422 -0.4832  0.8017  0.7534
 9784TIP3    H150843   5.080   0.325  13.505 -2.3060  0.4701  1.8035
 9784TIP3    H250844   4.972   0.371  13.410  1.1923  2.1625 -1.5993
 9785TIP3   OH250845   6.122   4.524   5.235 -0.0840  0.0688  0.1432
 9785TIP3    H150846   6.065   4.574   5.177 -0.3260  0.1153  0.4142
 9785TIP3    H250847   6.196   4.498   5.181 -0.4351 -0.1191 -0.2516
 9786TIP3   OH250848   1.150   3.174   6.864 -0.0936 -0.2172  0.0215
 9786TIP3    H150849   1.120   3.239   6.801  0.5781 -0.3032 -0.3907
 9786TIP3    H250850   1.081   3.107   6.865  0.1045 -0.4519 -0.9735
 9787TIP3   OH250851   4.159   0.668  14.143 -0.7546  0.1569 -0.1304
 9787TIP3    H150852   4.187   0.661  14.235 -0.9295 -0.6690 -0.1286
 9787TIP3    H250853   4.167   0.578  14.109  0.7904  0.6986 -1.3594
 9788TIP3   OH250854   4.255   1.679   4.116 -0.4139 -0.2581 -0.3028
 9788TIP3    H150855   4.308   1.724   4.051 -1.0783  0.3533 -0.4344
 9788TIP3    H250856   4.290   1.706   4.200 -0.4705  0.0868 -0.3901
 9789TIP3   OH250857   2.140   5.434  10.795 -0.2568 -0.0491  0.9105
 9789TIP3    H150858   2.208   5.480  10.747  0.0024  0.4019  1.6950
 9789TIP3    H250859   2.158   5.341  10.780 -0.5630  0.0813 -0.3798
 9790TIP3   OH250860   6.226   3.332   4.010  0.5128  0.6435  0.4391
 9790TIP3    H150861   6.149   3.280   3.987  0.1490  0.2262  2.3890
 9790TIP3    H250862   6.256   3.370   3.927 -0.5783 -0.8177 -0.6662
 9791TIP3   OH250863   4.704   4.268  15.367 -0.3145  0.3131  0.0829
 9791TIP3    H150864   4.648   4.315  15.429  0.7035  2.5661 -0.5892
 9791TIP3    H250865   4.782   4.246  15.418 -0.4836  0.0008  0.2092
 9792TIP3   OH250866   4.413   3.719   5.751 -0.8314  0.4080 -0.3531
 9792TIP3    H150867   4.334   3.771   5.760 -1.8303 -1.0441 -0.4288
 9792TIP3    H250868   4.446   3.740   5.663 -0.2407  2.1600  0.2475
 9793TIP3   OH250869   0.002   5.140  16.136  0.3927 -0.1748 -0.6661
 9793TIP3    H150870  -0.080   5.097  16.112 -0.2811  1.7571 -2.0673
 9793TIP3    H250871   0.057   5.069  16.169 -1.3184 -1.7551 -1.0145
 9794TIP3   OH250872   1.196   3.684  12.412  0.4528  0.2689 -0.1585
 9794TIP3    H150873   1.256   3.662  12.340  1.0064 -2.1516  0.9239
 9794TIP3    H250874   1.118   3.631  12.394 -0.0327  0.8403  0.2315
 9795TIP3   OH250875   5.093   1.786   3.812 -0.1475  0.2793  0.3960
 9795TIP3    H150876   5.149   1.719   3.775 -1.4679 -0.4623 -0.3551
 9795TIP3    H250877   5.084   1.762   3.904 -0.6382 -0.6236  0.1257
 9796TIP3   OH250878   0.425   5.866   0.545  0.0021 -0.4298 -0.4263
 9796TIP3    H150879   0.406   5.913   0.626  1.9976 -1.0409  0.4702
 9796TIP3    H250880   0.400   5.776   0.563  1.5378 -0.8012 -0.0258
 9797TIP3   OH250881   6.334   4.248  16.182  0.4488 -0.2260 -0.5403
 9797TIP3    H150882   6.296   4.174  16.229  1.2767 -0.0802  0.4014
 9797TIP3    H250883   6.423   4.254  16.216  0.5500  0.8907 -0.9693
 9798TIP3   OH250884   5.588   5.599   5.980  0.6011  0.1316 -0.2005
 9798TIP3    H150885   5.622   5.510   5.972 -0.6053 -0.2713 -0.9590
 9798TIP3    H250886   5.665   5.651   6.004  1.1660 -1.2318  1.1181
 9799TIP3   OH250887   4.201   6.005   6.060  0.4234 -0.4616  0.8027
 9799TIP3    H150888   4.177   6.056   6.137  0.3800  1.0594 -0.1717
 9799TIP3    H250889   4.134   6.026   5.995  0.9799 -0.9771  0.0337
 9800TIP3   OH250890   0.947   5.421   0.492  0.3611  0.3696 -0.6281
 9800TIP3    H150891   0.955   5.368   0.572 -1.2821  1.1770  0.1053
 9800TIP3    H250892   0.948   5.357   0.421  0.4976 -0.4759  0.1187
 9801TIP3   OH250893   1.130   4.547   4.055 -0.5689 -0.0079  0.0825
 9801TIP3    H150894   1.192   4.620   4.057 -2.6229  1.8805 -1.2039
 9801TIP3    H250895   1.111   4.534   3.962 -1.3431 -1.2482  0.3869
 9802TIP3   OH250896   4.672   1.959   3.527 -0.7253  0.3953 -0.1662
 9802TIP3    H150897   4.733   2.031   3.543  0.0668  0.0566 -1.5061
 9802TIP3    H250898   4.614   1.991   3.458 -0.0528 -0.4134 -1.1230
 9803TIP3   OH250899   1.356   1.031   4.546  0.5158 -0.5664  0.3271
 9803TIP3    H150900   1.378   1.100   4.484 -2.4827  0.1125 -0.1535
 9803TIP3    H250901   1.357   0.951   4.493 -0.3593 -0.2322 -0.2125
 9804TIP3   OH250902   0.696   3.365  16.808 -0.7105  0.1686  0.1400
 9804TIP3    H150903   0.774   3.414  16.782  1.6306 -2.4363  1.6288
 9804TIP3    H250904   0.667   3.322  16.728  0.2765  0.0725 -0.1850
 9805TIP3   OH250905   4.914   5.009  12.250  0.1617 -0.6412  0.5877
 9805TIP3    H150906   4.908   4.914  12.248 -0.6028 -0.5923 -0.8225
 9805TIP3    H250907   4.864   5.038  12.174  1.8278  0.8306 -0.0194
 9806TIP3   OH250908   6.009   6.194  16.091  0.2132  0.2983 -0.3854
 9806TIP3    H150909   5.983   6.148  16.011 -0.5466  1.1713 -0.6683
 9806TIP3    H250910   5.928   6.199  16.142  0.8549 -0.9163  0.7985
 9807TIP3   OH250911   1.155   6.203  16.920 -0.3010  0.4396 -0.5675
 9807TIP3    H150912   1.161   6.242  16.833  0.3507  1.3111 -0.1402
 9807TIP3    H250913   1.169   6.275  16.981  0.4936 -0.3592  0.2435
 9808TIP3   OH250914   1.748   5.292  16.798 -0.2570  0.0057  0.2223
 9808TIP3    H150915   1.655   5.307  16.782  0.0644  1.7624 -0.2334
 9808TIP3    H250916   1.761   5.199  16.780 -1.7876 -0.1103 -0.4209
 9809TIP3   OH250917   6.254   3.134  13.225  0.0452 -0.0756 -0.6800
 9809TIP3    H150918   6.345   3.134  13.198  0.7862  1.6170  1.4805
 9809TIP3    H250919   6.256   3.108  13.317 -1.6211  0.2909 -0.4982
 9810TIP3   OH250920   1.487   5.527  16.242  0.2953  0.2926  0.2825
 9810TIP3    H150921   1.465   5.457  16.181  0.9007  0.8520 -0.5996
 9810TIP3    H250922   1.443   5.605  16.206  2.2206  1.0602 -0.5743
 9811TIP3   OH250923   4.179   3.932  16.676 -0.0841 -0.2626  0.4656
 9811TIP3    H150924   4.175   3.966  16.766  0.5809  1.1077  0.0148
 9811TIP3    H250925   4.174   4.011  16.622 -1.0912 -1.1174 -0.7233
 9812TIP3   OH250926   4.439   4.516   4.966  0.3057  0.6832 -0.0143
 9812TIP3    H150927   4.499   4.442   4.972 -1.4386 -0.8117 -0.0364
 9812TIP3    H250928   4.483   4.587   5.012  2.1569 -0.2782 -0.2320
 9813TIP3   OH250929   2.518   0.804  17.070 -0.0386 -0.1580 -0.0138
 9813TIP3    H150930   2.589   0.782  17.130  0.4582  0.2071 -0.4528
 9813TIP3    H250931   2.540   0.892  17.039 -1.1348  0.3185  0.5002
 9814TIP3   OH250932   0.872   3.144  16.140  0.5755 -0.9099 -0.5581
 9814TIP3    H150933   0.818   3.134  16.062  0.4277 -1.8645 -0.3501
 9814TIP3    H250934   0.837   3.221  16.184  0.2919 -0.6988 -1.1435
 9815TIP3   OH250935   2.764   5.706  11.349  0.1240  0.0025 -0.1649
 9815TIP3    H150936   2.750   5.698  11.255 -2.1803 -0.9032  0.1900
 9815TIP3    H250937   2.691   5.659  11.388  1.4133 -0.2443  2.1048
 9816TIP3   OH250938   3.206   5.989   0.891 -0.1359 -0.0862  0.2039
 9816TIP3    H150939   3.203   5.895   0.909  0.8511 -0.0081  0.8401
 9816TIP3    H250940   3.187   6.030   0.975 -2.9586  0.3198 -0.5558
 9817TIP3   OH250941   4.985   3.857  14.665 -0.1556 -0.2430 -0.2167
 9817TIP3    H150942   4.991   3.872  14.760  1.1035 -1.8418 -0.0054
 9817TIP3    H250943   5.060   3.903  14.629 -1.9512  2.4851 -0.8207
 9818TIP3   OH250944   3.426   1.291   2.935  0.2676 -0.7204 -0.7708
 9818TIP3    H150945   3.365   1.237   2.986  0.5435  0.3337  0.7371
 9818TIP3    H250946   3.373   1.322   2.862 -0.5602 -1.1161 -0.3621
 9819TIP3   OH250947   0.314   4.144  15.733  0.0416  0.3299 -0.2792
 9819TIP3    H150948   0.324   4.165  15.826 -0.5891  1.0805 -0.3803
 9819TIP3    H250949   0.227   4.105  15.726  0.2755 -0.1731 -0.4872
 9820TIP3   OH250950   3.211   5.465   4.722  0.4677  0.0498  0.2297
 9820TIP3    H150951   3.231   5.383   4.677  0.6233 -0.6260  1.4813
 9820TIP3    H250952   3.292   5.515   4.718  0.2293  0.3713 -0.9630
 9821TIP3   OH250953   1.450   6.547   2.440  0.3513 -0.2335  0.7621
 9821TIP3    H150954   1.445   6.613   2.370  1.7011 -1.2307 -0.3439
 9821TIP3    H250955   1.432   6.596   2.520 -0.3271  1.1410 -0.1904
 9822TIP3   OH250956   4.900   3.184   3.074  0.0335  0.6335  0.2343
 9822TIP3    H150957   4.950   3.139   3.143 -0.0591 -0.1249 -0.1877
 9822TIP3    H250958   4.822   3.216   3.118 -1.0122 -1.5711  0.1060
 9823TIP3   OH250959   4.018   6.231   0.231 -0.3414  0.2103 -0.2434
 9823TIP3    H150960   4.051   6.240   0.321 -0.2217  1.5189 -0.3990
 9823TIP3    H250961   3.966   6.151   0.232  1.9363 -1.3648  0.2857
 9824TIP3   OH250962   2.760   1.382   3.848  0.3912  0.4899  0.0551
 9824TIP3    H150963   2.750   1.444   3.920 -0.2486  0.2153  0.2166
 9824TIP3    H250964   2.734   1.431   3.770  1.2481  0.8387 -0.0209
 9825TIP3   OH250965   2.946   3.017   1.050  0.3878 -0.4397  0.6851
 9825TIP3    H150966   2.914   2.972   1.128  0.8729  1.2648  1.9334
 9825TIP3    H250967   3.024   2.969   1.024 -0.7419 -2.0927  0.1209
 9826TIP3   OH250968   1.984   0.053   3.937 -0.4132  0.1449 -0.2195
 9826TIP3    H150969   1.952   0.100   3.859  0.0215 -1.0951 -1.1904
 9826TIP3    H250970   1.977  -0.040   3.913  1.4261 -0.2235  0.5381
 9827TIP3   OH250971   4.647   4.620  11.048 -0.1197  1.1083  0.2121
 9827TIP3    H150972   4.687   4.591  10.966 -0.2486  1.0214  0.1812
 9827TIP3    H250973   4.719   4.660  11.097 -0.4302  3.0976 -0.8306
 9828TIP3   OH250974   5.567   2.727  11.143 -0.0625  0.1588 -0.2082
 9828TIP3    H150975   5.616   2.675  11.206 -0.8109 -2.0355 -1.3202
 9828TIP3    H250976   5.476   2.697  11.153  0.0510 -1.8779 -3.6386
 9829TIP3   OH250977   2.385   4.903   4.774 -0.2070  0.4108  0.5216
 9829TIP3    H150978   2.460   4.862   4.731 -1.0095  0.0564 -0.6037
 9829TIP3    H250979   2.422   4.974   4.826  0.9354 -0.0209  0.3162
 9830TIP3   OH250980   3.519   0.880  15.207 -0.7444 -0.0852  0.3401
 9830TIP3    H150981   3.472   0.868  15.289 -0.3100  0.5240  0.6913
 9830TIP3    H250982   3.603   0.920  15.233 -0.7997  0.5682 -0.4350
 9831TIP3   OH250983   6.291   6.646   5.371  0.1312  0.5037  0.0992
 9831TIP3    H150984   6.210   6.638   5.320 -0.3099  2.3257  0.4199
 9831TIP3    H250985   6.360   6.659   5.305  0.3457 -1.9347 -0.2213
 9832TIP3   OH250986   3.626   4.173   5.330  0.0017 -0.1150  0.3274
 9832TIP3    H150987   3.687   4.214   5.390  0.6377 -1.8539  0.9347
 9832TIP3    H250988   3.549   4.229   5.331  1.0347  1.3391  0.6510
 9833TIP3   OH250989   1.388   1.360  14.499  0.1817  0.2618 -0.3184
 9833TIP3    H150990   1.370   1.304  14.424 -2.1000  0.7026 -0.1688
 9833TIP3    H250991   1.326   1.331  14.566  1.9320  0.0997  1.3082
 9834TIP3   OH250992   6.376   2.413  14.968 -0.2409  0.2772 -0.4012
 9834TIP3    H150993   6.336   2.347  15.024 -0.3034 -0.7202 -1.5572
 9834TIP3    H250994   6.302   2.461  14.930 -0.4465 -1.6065 -2.5862
 9835TIP3   OH250995   3.350   0.163   2.549  0.3206  0.6560 -0.1708
 9835TIP3    H150996   3.262   0.124   2.546  0.1568  1.0126 -0.0569
 9835TIP3    H250997   3.365   0.197   2.461 -0.2744  1.9316  0.1963
 9836TIP3   OH250998   2.637   2.976  11.900 -0.8198  0.1155 -0.1684
 9836TIP3    H150999   2.665   2.884  11.905 -0.3554  0.1760 -1.1966
 9836TIP3    H251000   2.633   3.005  11.990 -2.2459 -1.2862  0.2673
 9837TIP3   OH251001   3.057   0.230  14.593 -0.1254  0.7884 -0.6533
 9837TIP3    H151002   2.994   0.300  14.574  0.1951  1.5472  0.9274
 9837TIP3    H251003   3.126   0.272  14.644  1.0053 -0.3143 -1.2172
 9838TIP3   OH251004   1.067   1.863   5.998 -0.0950 -0.0535  0.3576
 9838TIP3    H151005   1.087   1.770   6.010  1.1285  0.1056 -0.2127
 9838TIP3    H251006   1.140   1.909   6.041  1.5195  0.5619 -2.7411
 9839TIP3   OH251007   2.817   0.354  14.866 -0.0195  0.0725 -0.6068
 9839TIP3    H151008   2.750   0.373  14.932 -1.9355  1.0037 -2.6824
 9839TIP3    H251009   2.829   0.259  14.870 -0.8249 -0.0045  0.3967
 9840TIP3   OH251010   4.398   3.494  16.760 -0.2798  0.2822  0.7959
 9840TIP3    H151011   4.397   3.569  16.701 -0.7855 -0.5756 -0.3016
 9840TIP3    H251012   4.491   3.481  16.780 -0.0232  0.0717 -0.4772
 9841TIP3   OH251013   5.122   1.703  14.902 -0.6091 -0.3223 -0.2609
 9841TIP3    H151014   5.118   1.721  14.996  0.8679  0.2248 -0.2786
 9841TIP3    H251015   5.186   1.766  14.869 -1.9572  0.2994 -1.8519
 9842TIP3   OH251016   6.143   1.453  15.262 -0.6113 -0.1014  0.0093
 9842TIP3    H151017   6.131   1.501  15.344 -2.1638 -2.0442  0.9818
 9842TIP3    H251018   6.131   1.519  15.194 -3.6052  0.8073  1.2517
 9843TIP3   OH251019   1.692   6.461  10.991  0.4837 -0.0954  0.7556
 9843TIP3    H151020   1.686   6.541  10.939  0.3638 -0.4738  0.1758
 9843TIP3    H251021   1.763   6.411  10.951 -1.5238 -1.7429 -0.9787
 9844TIP3   OH251022   4.602   3.341   5.554 -0.0276 -0.4068 -0.3276
 9844TIP3    H151023   4.507   3.340   5.546 -0.0214  2.5603 -1.8774
 9844TIP3    H251024   4.620   3.415   5.612  1.3261 -2.2104  1.6848
 9845TIP3   OH251025   5.910   6.251  11.549  0.7778 -0.5186 -0.0861
 9845TIP3    H151026   5.849   6.258  11.475  0.7274 -0.6705 -0.0610
 9845TIP3    H251027   5.948   6.164  11.539  1.3348 -0.2464 -0.3619
 9846TIP3   OH251028   0.331   2.869  15.993  0.3956  0.7985  0.3207
 9846TIP3    H151029   0.392   2.940  16.010  1.5612 -0.1275  0.1227
 9846TIP3    H251030   0.332   2.859  15.897  1.6986 -0.6872  0.4489
 9847TIP3   OH251031   0.056   3.056   0.176 -0.0706  0.7134  0.0400
 9847TIP3    H151032   0.021   3.112   0.245  1.5203  1.0516  0.6276
 9847TIP3    H251033   0.049   3.109   0.096  0.4853  1.3749  0.4144
 9848TIP3   OH251034   0.851   1.153  11.290 -0.0851 -0.1280 -0.0890
 9848TIP3    H151035   0.769   1.180  11.333 -0.7389  0.1044 -1.4233
 9848TIP3    H251036   0.913   1.222  11.313  0.0071 -0.7346  1.6354
 9849TIP3   OH251037   5.583   1.611  13.001  0.7547 -0.1753 -0.0344
 9849TIP3    H151038   5.577   1.650  13.089 -3.6149  0.5919 -0.4284
 9849TIP3    H251039   5.531   1.669  12.946  2.7021 -1.0907 -3.0718
 9850TIP3   OH251040   1.205   1.845  13.598  0.4273  0.0908 -0.8783
 9850TIP3    H151041   1.291   1.853  13.639  0.6680 -0.5631 -1.2322
 9850TIP3    H251042   1.219   1.875  13.508 -0.3712  2.6945 -0.2233
 9851TIP3   OH251043   3.164   3.677  14.817 -0.3673  0.4777  0.9281
 9851TIP3    H151044   3.253   3.708  14.836  0.2621  0.9789 -2.2118
 9851TIP3    H251045   3.107   3.746  14.851  0.3703  0.0895  3.1084
 9852TIP3   OH251046   1.499   0.677  16.294 -0.3324 -0.1579  0.8815
 9852TIP3    H151047   1.408   0.647  16.298 -0.3307 -0.3913 -0.3494
 9852TIP3    H251048   1.494   0.765  16.257 -0.0017 -0.5243 -0.0572
 9853TIP3   OH251049   2.910   1.781  15.214  0.2081  0.1132 -0.3463
 9853TIP3    H151050   2.938   1.696  15.249 -0.6478  0.0669  0.2477
 9853TIP3    H251051   2.888   1.833  15.291 -1.2511  0.1637 -0.7521
 9854TIP3   OH251052   0.440   6.071  14.725  0.0817 -0.9424  0.3893
 9854TIP3    H151053   0.392   6.128  14.785 -0.7023  3.1716 -3.5638
 9854TIP3    H251054   0.372   6.016  14.684  0.0075 -0.9383  0.5090
 9855TIP3   OH251055   1.247   4.222   0.819 -0.4620 -0.5523 -0.0387
 9855TIP3    H151056   1.267   4.185   0.732 -2.0071  0.9015 -1.0705
 9855TIP3    H251057   1.209   4.308   0.800 -0.6385 -0.1177  2.1114
 9856TIP3   OH251058   6.568   2.244  11.254  0.1767  0.2631 -0.0131
 9856TIP3    H151059   6.541   2.218  11.342  0.9419  0.4247  0.2834
 9856TIP3    H251060   6.635   2.311  11.269  1.8022 -1.1525 -0.6614
 9857TIP3   OH251061   4.870   6.605   3.194 -0.4908  0.4157 -0.4050
 9857TIP3    H151062   4.832   6.585   3.109 -0.4318 -0.2836 -0.2753
 9857TIP3    H251063   4.945   6.662   3.175 -1.4882  1.6672 -0.6722
 9858TIP3   OH251064   3.329   2.842   1.756  0.3489 -0.2312 -1.1017
 9858TIP3    H151065   3.304   2.853   1.848 -2.1488 -0.4467 -1.6714
 9858TIP3    H251066   3.422   2.823   1.759  0.8175  1.8259  1.2297
 9859TIP3   OH251067   4.676   4.513   0.233  0.3275  0.0649  0.3322
 9859TIP3    H151068   4.740   4.566   0.186  1.2562 -1.1921  0.1283
 9859TIP3    H251069   4.623   4.473   0.164 -0.3488  0.6816  0.4838
 9860TIP3   OH251070   0.751   0.045  13.548  0.3969  0.2506  0.0344
 9860TIP3    H151071   0.790   0.085  13.625  0.5195 -2.3976  1.4887
 9860TIP3    H251072   0.668   0.091  13.537  0.1907  0.4497  2.0134
 9861TIP3   OH251073   1.765   0.759  13.036  0.0455 -0.1631  0.3092
 9861TIP3    H151074   1.686   0.801  13.004  0.2185  0.2336  0.3920
 9861TIP3    H251075   1.800   0.820  13.101  0.2074 -0.5158  0.5581
 9862TIP3   OH251076   6.014   6.174   0.652 -0.3457 -0.0739  0.1765
 9862TIP3    H151077   6.014   6.086   0.691 -0.5879 -0.5778 -0.9115
 9862TIP3    H251078   5.957   6.166   0.576 -1.3288  1.3424  0.7226
 9863TIP3   OH251079   4.437   5.905  16.121  0.2961  0.3870  0.9129
 9863TIP3    H151080   4.480   5.976  16.072  0.2872 -0.2501 -0.0293
 9863TIP3    H251081   4.346   5.906  16.090 -0.0694  0.9039  1.9721
 9864TIP3   OH251082   5.348   5.985   2.785  0.0713 -0.2058  0.0098
 9864TIP3    H151083   5.257   6.014   2.793  0.7116  2.0843 -0.3540
 9864TIP3    H251084   5.355   5.954   2.695 -0.5102 -1.1155  0.2615
 9865TIP3   OH251085   0.746   1.989   4.727 -0.3253  0.5217 -0.2042
 9865TIP3    H151086   0.745   1.981   4.632  0.4009  2.9212 -0.4725
 9865TIP3    H251087   0.676   2.052   4.747  0.4605  1.1418  0.6948
 9866TIP3   OH251088   6.728   2.282  16.131 -0.4767  0.0419  0.0002
 9866TIP3    H151089   6.659   2.247  16.187 -1.5184  0.1930 -1.1597
 9866TIP3    H251090   6.787   2.208  16.116 -0.8393 -0.3157  0.3145
 9867TIP3   OH251091   5.111   1.426   4.519 -0.2712 -0.0976 -0.6552
 9867TIP3    H151092   5.144   1.396   4.604 -0.0665  0.7297 -0.4282
 9867TIP3    H251093   5.040   1.366   4.498 -0.8323  0.1490  0.4770
 9868TIP3   OH251094   3.688   6.593   1.587  0.4315 -0.0982  0.3035
 9868TIP3    H151095   3.772   6.626   1.558 -0.1971  0.2896 -1.1400
 9868TIP3    H251096   3.700   6.498   1.594  1.0750 -0.0057  0.4593
 9869TIP3   OH251097   4.370   0.663   4.183 -0.4899  0.0703 -0.4985
 9869TIP3    H151098   4.342   0.702   4.100 -1.4785 -1.0838 -0.7434
 9869TIP3    H251099   4.289   0.647   4.230 -0.2448 -2.4303 -0.7811
 9870TIP3   OH251100   0.037   6.138   0.913  0.1614  0.5482  0.3265
 9870TIP3    H151101  -0.022   6.203   0.950  1.2481  0.9257  1.4513
 9870TIP3    H251102  -0.021   6.074   0.870 -1.0238  1.1041  1.0613
 9871TIP3   OH251103   4.860   0.484  13.294  0.2957 -0.2611  0.0526
 9871TIP3    H151104   4.774   0.444  13.303  0.9079 -1.5698  0.3476
 9871TIP3    H251105   4.851   0.571  13.333 -1.2816  0.2399 -1.3147
 9872TIP3   OH251106   2.621   3.260   6.395 -0.2320 -0.4906  0.2653
 9872TIP3    H151107   2.613   3.203   6.318 -1.3651  0.7598 -0.5928
 9872TIP3    H251108   2.589   3.345   6.364  1.2948  0.5848  1.5401
 9873TIP3   OH251109   3.490   3.184   2.531  0.3289  0.0183 -0.3623
 9873TIP3    H151110   3.487   3.145   2.444 -2.4827  0.4765 -0.5408
 9873TIP3    H251111   3.490   3.278   2.516  1.8329  0.1452  0.1669
 9874TIP3   OH251112   3.118   0.821   4.169 -0.5216 -0.1346  0.6004
 9874TIP3    H151113   3.164   0.738   4.164 -0.1484  0.1456 -1.5171
 9874TIP3    H251114   3.127   0.849   4.261  1.9578 -0.9457  0.6539
 9875TIP3   OH251115   4.468   3.690   0.984 -0.2360  0.3213  0.5025
 9875TIP3    H151116   4.477   3.600   0.954  0.6103  0.5823 -0.0812
 9875TIP3    H251117   4.491   3.687   1.077  2.0125  0.2533  0.0055
 9876TIP3   OH251118   5.265   4.369   3.869 -0.2500 -0.1914  0.1638
 9876TIP3    H151119   5.203   4.296   3.869  0.2961 -0.6631  0.2466
 9876TIP3    H251120   5.338   4.339   3.923  1.3848 -0.8310 -2.2145
 9877TIP3   OH251121   5.683   1.572  12.226  0.1280  0.1577  0.2011
 9877TIP3    H151122   5.596   1.558  12.188  0.4545 -1.1703 -0.1255
 9877TIP3    H251123   5.677   1.536  12.314  0.6641 -1.1079 -0.2481
 9878TIP3   OH251124   2.479   6.406  16.338 -0.4245 -0.1017 -0.8596
 9878TIP3    H151125   2.397   6.436  16.299 -1.3219 -0.9743  0.2951
 9878TIP3    H251126   2.460   6.398  16.431  0.7418 -1.0811 -0.6845
 9879TIP3   OH251127   6.497   3.864  14.928 -0.3492  0.3717  0.7189
 9879TIP3    H151128   6.433   3.933  14.945 -0.3770  1.9042 -4.1539
 9879TIP3    H251129   6.565   3.906  14.876  0.1847 -2.9817 -1.6267
 9880TIP3   OH251130   6.575   2.696  17.013 -0.4472 -1.0235  0.1750
 9880TIP3    H151131   6.611   2.666  16.930  0.7397 -0.2983  0.3965
 9880TIP3    H251132   6.487   2.658  17.017 -0.2563 -1.6379 -1.0772
 9881TIP3   OH251133   0.611   5.031  16.443 -0.3630  0.1624 -0.2481
 9881TIP3    H151134   0.533   5.086  16.456 -0.9154 -0.6654  0.0253
 9881TIP3    H251135   0.684   5.093  16.442 -0.5977  0.7017  3.2073
 9882TIP3   OH251136   0.181   2.100   4.171 -0.0426  0.2410  0.4252
 9882TIP3    H151137   0.097   2.096   4.126  0.0462  2.6715 -0.1038
 9882TIP3    H251138   0.187   2.018   4.220 -1.3632 -1.3219 -1.8548
 9883TIP3   OH251139   4.388   6.589   5.182 -0.1136 -0.1333  0.1677
 9883TIP3    H151140   4.323   6.547   5.238 -2.6183  1.8323 -1.0809
 9883TIP3    H251141   4.383   6.541   5.099 -0.0302  0.0866  0.0338
 9884TIP3   OH251142   5.462   5.573  16.492 -0.4171  0.5239 -0.4125
 9884TIP3    H151143   5.396   5.507  16.473  0.3423 -0.2919 -0.3183
 9884TIP3    H251144   5.543   5.538  16.453  0.1301  1.1015  0.1718
 9885TIP3   OH251145   4.854   5.874  13.420 -0.1614  0.0028  0.8514
 9885TIP3    H151146   4.780   5.931  13.440 -0.0918  1.0297 -1.4940
 9885TIP3    H251147   4.825   5.824  13.344  0.8101 -1.1242  1.1949
 9886TIP3   OH251148   2.658   4.383   2.260  0.0479  0.0340  0.2603
 9886TIP3    H151149   2.624   4.344   2.340  1.1472  0.0152  0.7333
 9886TIP3    H251150   2.584   4.381   2.199 -0.0091 -2.7388  0.2759
 9887TIP3   OH251151   0.546   2.629  12.350  0.2819 -0.2274 -0.1570
 9887TIP3    H151152   0.601   2.707  12.347 -2.3180  1.7664  0.3472
 9887TIP3    H251153   0.488   2.638  12.275 -0.1901 -1.6092  0.0177
 9888TIP3   OH251154   2.019   5.044  15.218 -0.1452  0.3897 -0.0193
 9888TIP3    H151155   1.968   5.108  15.168  1.2566  1.0538 -0.6606
 9888TIP3    H251156   2.079   5.097  15.271 -0.3541 -0.3613  0.9947
 9889TIP3   OH251157   3.226   3.646   5.466  0.2541  0.4095  0.5120
 9889TIP3    H151158   3.200   3.633   5.557  4.4019  0.1696  1.9144
 9889TIP3    H251159   3.265   3.562   5.441  2.0820  1.4387 -0.2787
 9890TIP3   OH251160   0.112   3.693  17.039 -0.1221  0.3429  0.0075
 9890TIP3    H151161   0.118   3.688  16.944  0.2669  1.2166 -0.0254
 9890TIP3    H251162   0.021   3.718  17.056 -0.2228  0.0693 -0.1302
 9891TIP3   OH251163   0.988   5.163  15.751 -0.0179  0.7784  0.3676
 9891TIP3    H151164   1.056   5.098  15.766  0.2891  1.2575  1.1581
 9891TIP3    H251165   0.936   5.161  15.832  0.6421  2.2560  0.8608
 9892TIP3   OH251166   3.405   0.326  14.979 -0.3250  0.1935 -0.6757
 9892TIP3    H151167   3.348   0.376  15.038 -1.5824 -2.3033  0.3603
 9892TIP3    H251168   3.480   0.302  15.034 -1.1032 -1.4309 -0.2671
 9893TIP3   OH251169   1.828   0.602  12.639 -0.4212 -0.3375 -0.2122
 9893TIP3    H151170   1.915   0.573  12.612  0.4919  1.6495  0.4022
 9893TIP3    H251171   1.776   0.602  12.559  0.8241  0.6576 -1.0576
 9894TIP3   OH251172   3.839   3.973   0.034  0.3595  0.4473 -0.2840
 9894TIP3    H151173   3.765   4.033   0.026  0.9510  0.9797 -2.2029
 9894TIP3    H251174   3.915   4.025   0.008  1.4285 -0.1502  1.4353
 9895TIP3   OH251175   0.491   5.546   0.979  0.1362  0.4014  0.2894
 9895TIP3    H151176   0.437   5.623   0.998  1.1282  1.0311  0.6325
 9895TIP3    H251177   0.429   5.473   0.984 -0.1926  0.6949  3.9870
 9896TIP3   OH251178   0.901   2.620  14.168  0.7017  0.4229 -0.1894
 9896TIP3    H151179   0.989   2.653  14.151  0.3454  1.0600 -0.8486
 9896TIP3    H251180   0.846   2.698  14.170 -0.0352 -0.0529 -0.9988
 9897TIP3   OH251181   4.383   2.465  10.776  0.1929 -0.2588  1.0899
 9897TIP3    H151182   4.446   2.415  10.724  0.5378  0.6013  0.6627
 9897TIP3    H251183   4.428   2.546  10.798 -1.3565  1.2719 -0.8901
 9898TIP3   OH251184   4.482   4.343   2.132 -0.6476 -0.5600 -0.5985
 9898TIP3    H151185   4.410   4.358   2.193 -0.1877  0.3616 -0.2691
 9898TIP3    H251186   4.504   4.430   2.098  1.3751 -0.5560  0.5405
 9899TIP3   OH251187   0.992   3.367   5.875 -0.0530  0.4937  0.1457
 9899TIP3    H151188   1.011   3.453   5.838 -2.2026  1.2614  0.6528
 9899TIP3    H251189   0.983   3.383   5.969 -2.0240  0.0817  0.0755
 9900TIP3   OH251190   2.101   1.481  13.827  0.3924  0.5549 -1.0133
 9900TIP3    H151191   2.131   1.444  13.909 -0.7984  2.2726  0.2601
 9900TIP3    H251192   2.058   1.563  13.851 -0.5205  0.8291 -3.2843
 9901TIP3   OH251193   1.181   5.886   4.431 -0.0086  0.3577  0.3545
 9901TIP3    H151194   1.111   5.863   4.371  0.6894 -0.3641 -0.2090
 9901TIP3    H251195   1.252   5.917   4.374  1.3889 -2.1822  0.5903
 9902TIP3   OH251196   0.770   5.913  14.606 -0.4990 -0.6417 -0.1747
 9902TIP3    H151197   0.753   5.835  14.553 -1.4366 -0.6085  0.0695
 9902TIP3    H251198   0.847   5.953  14.565  0.2627 -1.9107 -0.0545
 9903TIP3   OH251199   6.744   3.337   3.422  0.2819 -0.4454 -0.3292
 9903TIP3    H151200   6.728   3.431   3.432  1.3873 -0.4660  2.1000
 9903TIP3    H251201   6.684   3.311   3.352 -1.2998  1.7346  0.1024
 9904TIP3   OH251202   0.162   0.287   6.167 -0.5658  0.0735  0.0265
 9904TIP3    H151203   0.165   0.194   6.144 -0.6484  0.2552 -0.7455
 9904TIP3    H251204   0.242   0.324   6.129 -0.2561  0.2202  0.8001
 9905TIP3   OH251205   4.418   2.084  12.865 -0.2385  0.2391 -0.2466
 9905TIP3    H151206   4.392   2.114  12.952  0.2287 -0.4599  0.1409
 9905TIP3    H251207   4.403   2.160  12.809 -0.4091  0.7480  0.4638
 9906TIP3   OH251208   6.361   2.469  16.550  0.2069 -0.1996  0.6505
 9906TIP3    H151209   6.450   2.474  16.515 -0.5379  1.7607 -1.2035
 9906TIP3    H251210   6.307   2.446  16.475 -1.0791  0.6801  1.2729
 9907TIP3   OH251211   5.791   5.192   5.012  0.5399 -0.1183 -0.3342
 9907TIP3    H151212   5.802   5.281   5.046  1.2540  0.4690 -2.0107
 9907TIP3    H251213   5.725   5.153   5.069  0.2815  1.4530  0.5032
 9908TIP3   OH251214   4.287   6.845  16.931 -0.0684 -0.3373 -0.3158
 9908TIP3    H151215   4.197   6.821  16.911 -0.2794 -0.4346  0.6823
 9908TIP3    H251216   4.302   6.928  16.886  0.1253 -1.4651 -2.4438
 9909TIP3   OH251217   2.700   1.199   4.141  0.3062 -0.3788  0.0948
 9909TIP3    H151218   2.773   1.244   4.184  1.0179 -0.2746 -1.1835
 9909TIP3    H251219   2.625   1.217   4.197  0.8835  1.0797  0.4483
 9910TIP3   OH251220   2.356   0.073   5.174  0.2358 -0.2145  0.4474
 9910TIP3    H151221   2.416   0.141   5.205  1.2059 -0.8133 -0.0707
 9910TIP3    H251222   2.312   0.042   5.253 -0.4525  1.2109  0.6528
 9911TIP3   OH251223   5.505   6.279   5.614 -0.4857 -0.6906  0.0061
 9911TIP3    H151224   5.478   6.273   5.523 -0.7841  0.8365 -0.0341
 9911TIP3    H251225   5.446   6.344   5.653 -0.1579 -1.0786  1.2002
 9912TIP3   OH251226   2.876   2.729   1.581  0.1587  0.2234  0.2622
 9912TIP3    H151227   2.877   2.634   1.563 -0.3439  0.1446  0.6354
 9912TIP3    H251228   2.840   2.737   1.669 -0.8921  0.8216 -0.1999
 9913TIP3   OH251229   3.452   5.003   0.896  0.4854  0.0489 -0.1402
 9913TIP3    H151230   3.513   5.038   0.831 -0.6541 -1.0846 -1.8846
 9913TIP3    H251231   3.494   5.023   0.980  2.7261  0.2496 -1.2224
 9914TIP3   OH251232   5.634   0.320   5.851 -0.6382 -0.3657  0.7555
 9914TIP3    H151233   5.552   0.370   5.858 -0.1355  0.6209 -0.0161
 9914TIP3    H251234   5.616   0.255   5.783 -0.5374  0.4146 -0.0458
 9915TIP3   OH251235   2.720   2.713  11.913 -0.1501  0.2097 -0.5103
 9915TIP3    H151236   2.767   2.705  11.996 -1.0195  1.7065  0.1757
 9915TIP3    H251237   2.645   2.656  11.922  0.0899 -0.1091 -0.5222
 9916TIP3   OH251238   5.371   2.933   4.863 -0.1486 -0.2176 -0.5670
 9916TIP3    H151239   5.361   2.944   4.768  0.1407 -1.5815 -0.7909
 9916TIP3    H251240   5.370   2.838   4.875  0.3413 -0.0706  0.7477
 9917TIP3   OH251241   0.869   4.205  10.874 -0.6571  0.0109 -0.1584
 9917TIP3    H151242   0.956   4.168  10.860 -0.9820 -0.9185  0.1764
 9917TIP3    H251243   0.884   4.298  10.888  0.3043 -0.1711  0.0686
 9918TIP3   OH251244   5.554   2.779   2.146  0.3364  0.3688  0.2449
 9918TIP3    H151245   5.526   2.707   2.088 -0.5010 -0.2080  1.3359
 9918TIP3    H251246   5.599   2.840   2.087  1.5047 -1.2621 -0.6381
 9919TIP3   OH251247   0.206   2.910  13.553 -0.0119  0.0286  0.2378
 9919TIP3    H151248   0.250   2.908  13.638  0.3227 -0.6151  0.0550
 9919TIP3    H251249   0.146   2.836  13.556 -2.0149  1.5859  0.9575
 9920TIP3   OH251250   5.142   1.284   5.380 -0.2122  0.5529  0.2447
 9920TIP3    H151251   5.224   1.266   5.333 -0.1034 -1.6538  1.1665
 9920TIP3    H251252   5.092   1.338   5.319  1.2633  0.5862 -1.0224
 9921TIP3   OH251253   3.855   0.034   4.125 -0.2499  0.4003  0.3471
 9921TIP3    H151254   3.791   0.080   4.180 -0.1291  0.3876  0.5011
 9921TIP3    H251255   3.856   0.084   4.043 -1.3220 -0.2983 -0.1064
 9922TIP3   OH251256   5.112   5.472   3.895  0.0886  0.0918  0.2685
 9922TIP3    H151257   5.091   5.454   3.986 -2.1695 -2.4125 -0.6160
 9922TIP3    H251258   5.055   5.545   3.871 -1.1355 -0.8321  0.2733
 9923TIP3   OH251259   4.277   4.711   4.849 -0.6497 -0.3740  0.0081
 9923TIP3    H151260   4.332   4.640   4.884  0.7080  0.2784 -0.7120
 9923TIP3    H251261   4.205   4.718   4.911  0.2956 -0.9969  1.2285
 9924TIP3   OH251262   3.753   2.924  12.564  0.0201 -0.3035  0.4766
 9924TIP3    H151263   3.667   2.884  12.555 -0.1068 -0.0032  0.3393
 9924TIP3    H251264   3.737   3.007  12.608  0.0988  0.2489 -0.4983
 9925TIP3   OH251265   1.207   5.229   5.585 -0.2512  0.7410  0.7620
 9925TIP3    H151266   1.128   5.226   5.531  0.3561 -0.6361 -0.0941
 9925TIP3    H251267   1.177   5.209   5.674 -1.0376  1.5477  0.6951
 9926TIP3   OH251268   1.821   1.095   3.325  0.2822 -0.2023 -0.0858
 9926TIP3    H151269   1.785   1.009   3.349  2.6905 -1.6591 -1.2006
 9926TIP3    H251270   1.868   1.124   3.403 -1.9944  1.0442  0.9026
 9927TIP3   OH251271   0.601   0.521  15.813 -0.5306 -0.5201 -0.4164
 9927TIP3    H151272   0.658   0.590  15.848 -0.0441 -2.1569  2.2509
 9927TIP3    H251273   0.655   0.477  15.747  0.6566 -0.8457  0.7315
 9928TIP3   OH251274   3.142   2.950   2.657  0.8093 -0.1309  0.5468
 9928TIP3    H151275   3.072   2.886   2.664 -0.8737  1.4421 -0.7320
 9928TIP3    H251276   3.217   2.910   2.701 -1.5713 -0.8394  4.3780
 9929TIP3   OH251277   3.292   3.481  12.583 -0.0864 -0.6699  0.0075
 9929TIP3    H151278   3.248   3.421  12.643 -1.0536  1.9324  2.1539
 9929TIP3    H251279   3.310   3.559  12.637  1.2502  0.8940 -2.5083
 9930TIP3   OH251280   1.164   4.487  12.330  0.8485 -0.0816 -0.3757
 9930TIP3    H151281   1.132   4.539  12.404  0.9821 -1.0090  0.3547
 9930TIP3    H251282   1.215   4.416  12.370  1.6547 -0.1083 -1.4005
 9931TIP3   OH251283   1.769   4.236   3.111 -0.3055 -0.4368  1.0770
 9931TIP3    H151284   1.718   4.316   3.120 -0.6717 -0.5081 -0.1749
 9931TIP3    H251285   1.715   4.179   3.057  0.9000 -0.6776  0.0671
 9932TIP3   OH251286   6.763   0.241   6.264  0.2937  0.3337 -0.4344
 9932TIP3    H151287   6.765   0.148   6.240 -0.5172  0.0064  0.6966
 9932TIP3    H251288   6.847   0.275   6.233 -0.0004 -0.4238 -2.1754
 9933TIP3   OH251289   4.420   4.176   1.026 -0.1879  1.0120 -0.4486
 9933TIP3    H151290   4.366   4.251   1.053 -0.5529  0.8247 -0.6445
 9933TIP3    H251291   4.437   4.129   1.108  2.0144  2.5373  0.0722
 9934TIP3   OH251292   0.215   1.045  15.721  0.3907 -0.2878 -0.4192
 9934TIP3    H151293   0.270   1.089  15.656  0.5075  1.4533  0.7902
 9934TIP3    H251294   0.145   1.004  15.670 -0.2269  2.0788 -1.5707
 9935TIP3   OH251295   0.772   6.335  14.373  0.0357  0.0851  0.3425
 9935TIP3    H151296   0.706   6.293  14.428  1.1362 -0.5691  1.2050
 9935TIP3    H251297   0.753   6.428  14.379 -0.8369 -0.0991  0.5267
 9936TIP3   OH251298   0.709   5.416  12.688 -0.4320  0.0345 -0.0289
 9936TIP3    H151299   0.796   5.408  12.649  0.0895  2.9019  0.3286
 9936TIP3    H251300   0.724   5.409  12.782 -0.4117  1.4807  0.0906
 9937TIP3   OH251301   6.172   1.155   2.320 -0.4175  0.0097 -0.7344
 9937TIP3    H151302   6.221   1.228   2.359  0.5728 -1.4197  0.8324
 9937TIP3    H251303   6.180   1.084   2.384 -1.0481 -1.6012 -2.3614
 9938TIP3   OH251304   5.825   5.930  13.372  0.5417 -0.4753  0.0059
 9938TIP3    H151305   5.856   5.984  13.445 -1.2215 -0.1526  0.5908
 9938TIP3    H251306   5.731   5.918  13.391 -0.0373 -0.1070 -2.3961
 9939TIP3   OH251307   1.895   3.924  12.014 -0.0842  0.0143  0.2725
 9939TIP3    H151308   1.855   4.002  11.975 -0.7070  0.6354  2.0753
 9939TIP3    H251309   1.821   3.877  12.053  0.2595 -1.6029 -0.9472
 9940TIP3   OH251310   4.111   6.209  15.178  0.4993 -0.5493 -0.0505
 9940TIP3    H151311   4.024   6.245  15.197  1.2067  0.5989  1.2381
 9940TIP3    H251312   4.171   6.262  15.231  1.8604 -2.1739  0.1331
 9941TIP3   OH251313   1.419   2.856   3.617  0.2975 -0.3961 -0.4504
 9941TIP3    H151314   1.507   2.838   3.652  0.2336  2.0687  1.2515
 9941TIP3    H251315   1.362   2.794   3.662  0.8963 -0.5774  0.0727
 9942TIP3   OH251316   3.920   4.250  10.365  0.3563 -0.1729 -0.4700
 9942TIP3    H151317   3.836   4.264  10.408 -0.0253  0.2330 -1.3248
 9942TIP3    H251318   3.899   4.206  10.283  0.9245  0.3182 -0.8943
 9943TIP3   OH251319   1.241   6.687   5.463 -0.1574  0.1625  0.6166
 9943TIP3    H151320   1.330   6.665   5.489  0.1544  2.5644  1.8003
 9943TIP3    H251321   1.237   6.782   5.465 -2.1152  0.2484 -1.6908
 9944TIP3   OH251322   5.348   4.687   2.705  0.4598 -0.0664  0.4376
 9944TIP3    H151323   5.420   4.687   2.769  0.6239  2.6207  0.3512
 9944TIP3    H251324   5.372   4.619   2.642  2.0918 -0.3436  1.2970
 9945TIP3   OH251325   2.611   2.756   5.791 -0.4019  0.0497  0.1970
 9945TIP3    H151326   2.617   2.687   5.856 -1.1925 -0.5048 -0.2997
 9945TIP3    H251327   2.521   2.789   5.800 -0.9519 -0.8957 -1.4464
 9946TIP3   OH251328   1.209   5.385  11.248 -0.0799  0.1026 -0.4314
 9946TIP3    H151329   1.220   5.353  11.158 -1.0424 -0.1815 -0.4602
 9946TIP3    H251330   1.133   5.444  11.243  0.3360  0.6910  0.0503
 9947TIP3   OH251331   3.932   1.525   0.229 -0.0722 -0.3685 -0.7134
 9947TIP3    H151332   3.883   1.607   0.217 -0.6144 -0.7873 -1.4532
 9947TIP3    H251333   3.894   1.465   0.165  0.5625 -1.0958 -0.4223
 9948TIP3   OH251334   1.790   6.014   0.470 -0.3552 -0.0577 -0.7880
 9948TIP3    H151335   1.726   5.994   0.402  0.8313 -0.3090 -1.8718
 9948TIP3    H251336   1.764   6.101   0.502 -0.6325  0.3092 -1.9479
 9949TIP3   OH251337   5.751   4.695   4.107  0.1823  0.3227  0.1490
 9949TIP3    H151338   5.728   4.768   4.049  0.5831  0.3893  0.0718
 9949TIP3    H251339   5.826   4.727   4.157  1.9692 -0.8938 -1.6160
 9950TIP3   OH251340   4.692   5.804  13.682  0.3692  0.3099  0.1148
 9950TIP3    H151341   4.627   5.781  13.749 -0.2672 -0.6714 -0.7896
 9950TIP3    H251342   4.652   5.877  13.634 -0.0955 -0.3028 -0.4501
 9951TIP3   OH251343   0.218   0.965  14.819 -0.5130 -0.7821 -0.3691
 9951TIP3    H151344   0.226   1.059  14.837 -0.3207 -0.8136 -0.2897
 9951TIP3    H251345   0.218   0.959  14.724 -0.8988 -0.6694 -0.3769
 9952TIP3   OH251346   3.177   1.638   3.508  0.4434  0.1658  0.5458
 9952TIP3    H151347   3.127   1.717   3.532 -0.0488  0.3287 -0.9003
 9952TIP3    H251348   3.113   1.567   3.514  0.8794 -0.1473  1.8189
 9953TIP3   OH251349   1.475   5.777   6.540 -0.0807 -0.1312  0.2597
 9953TIP3    H151350   1.407   5.711   6.555 -1.0293  0.5297 -0.8903
 9953TIP3    H251351   1.427   5.860   6.542  0.6104  0.3159 -1.0328
 9954TIP3   OH251352   0.783   0.723  10.637  0.2821 -0.2229 -0.2850
 9954TIP3    H151353   0.847   0.726  10.566 -0.8533 -0.4583 -1.3371
 9954TIP3    H251354   0.747   0.635  10.633  1.0769 -0.6691  1.4074
 9955TIP3   OH251355   6.725   6.835   1.084 -0.2915  0.3507  0.3612
 9955TIP3    H151356   6.750   6.836   0.992  0.7106  3.4306  0.5559
 9955TIP3    H251357   6.784   6.772   1.125  0.8463  0.6723 -0.7391
 9956TIP3   OH251358   6.038   4.240  15.460 -0.7023  0.4748 -0.5020
 9956TIP3    H151359   6.080   4.182  15.523 -2.7486 -0.8182 -0.2326
 9956TIP3    H251360   5.958   4.269  15.504 -1.0493  1.3590 -1.6583
 9957TIP3   OH251361   6.139   5.731   5.907  0.3456  0.4399 -0.1048
 9957TIP3    H151362   6.171   5.789   5.837  1.7206  1.2962  1.1540
 9957TIP3    H251363   6.171   5.644   5.882 -0.6103  0.4138 -1.3543
 9958TIP3   OH251364   2.191   2.089  13.452 -0.1184 -0.1122  0.5517
 9958TIP3    H151365   2.215   2.162  13.509  1.1994 -0.5447  0.5761
 9958TIP3    H251366   2.253   2.020  13.474 -0.3706 -0.7101 -0.5532
 9959TIP3   OH251367   0.847   5.255   1.332 -0.5957 -0.0321 -0.2508
 9959TIP3    H151368   0.815   5.260   1.421  1.1160  1.1541  0.3563
 9959TIP3    H251369   0.824   5.339   1.293 -0.5756 -0.2115 -0.6593
 9960TIP3   OH251370   6.684   5.575  13.022 -0.1753  0.4622  0.4112
 9960TIP3    H151371   6.674   5.669  13.036 -0.7676  0.7321 -1.5520
 9960TIP3    H251372   6.658   5.561  12.931  1.2205 -1.4103  0.2360
 9961TIP3   OH251373   1.018   1.871   0.303  0.0245  0.3113 -0.0781
 9961TIP3    H151374   1.015   1.808   0.375  1.2780 -0.1579 -0.3959
 9961TIP3    H251375   1.093   1.927   0.324 -0.9762  1.6175  0.1143
 9962TIP3   OH251376   5.960   0.961   1.601  0.0139 -0.3824 -0.2359
 9962TIP3    H151377   5.902   1.035   1.583 -0.1146  0.1545  2.0457
 9962TIP3    H251378   5.918   0.886   1.559 -1.2744  0.3717 -0.3404
 9963TIP3   OH251379   3.435   0.330   1.114 -0.0429  0.4082 -0.0620
 9963TIP3    H151380   3.367   0.328   1.047  1.0222  2.0089 -1.2695
 9963TIP3    H251381   3.454   0.423   1.127  0.4446  0.0880  1.7853
 9964TIP3   OH251382   2.338   6.651  13.558 -0.4059 -0.0732 -0.3923
 9964TIP3    H151383   2.270   6.664  13.492  1.1165 -0.8393 -2.2068
 9964TIP3    H251384   2.382   6.570  13.533  0.6055 -0.0994  1.2454
 9965TIP3   OH251385   6.489   6.156  12.869  0.4186  0.0439 -0.1527
 9965TIP3    H151386   6.581   6.158  12.844  0.0665  1.2992 -1.5006
 9965TIP3    H251387   6.482   6.219  12.941  0.3068  1.4563 -1.3535
 9966TIP3   OH251388   1.293   4.870   1.742 -0.0760  0.2579 -0.5543
 9966TIP3    H151389   1.347   4.935   1.697  1.4483 -0.4801  0.1341
 9966TIP3    H251390   1.222   4.920   1.782  1.2247  1.5541  0.2178
 9967TIP3   OH251391   3.347   1.725  10.693 -0.2870 -0.6995 -0.1265
 9967TIP3    H151392   3.313   1.813  10.712 -0.0321 -0.4697 -0.7150
 9967TIP3    H251393   3.331   1.713  10.599  2.7032  0.0654 -0.8315
 9968TIP3   OH251394   2.992   5.065  13.508 -0.1040 -0.2140  0.6133
 9968TIP3    H151395   3.015   4.993  13.566  4.0109 -0.2527 -0.7653
 9968TIP3    H251396   2.978   5.140  13.566 -1.5088 -1.4055  1.8742
 9969TIP3   OH251397   3.618   4.793  16.321 -0.0991 -1.0957  0.1748
 9969TIP3    H151398   3.527   4.769  16.304 -0.2477 -1.3852  1.3005
 9969TIP3    H251399   3.669   4.727  16.275 -0.4769 -1.6294  0.5065
 9970TIP3   OH251400   5.694   2.934  14.751  0.5897 -0.0445  0.4269
 9970TIP3    H151401   5.694   2.858  14.693 -0.3053 -0.0857  0.4655
 9970TIP3    H251402   5.784   2.941  14.782  0.8293 -0.6827 -0.1070
 9971TIP3   OH251403   3.224   4.865  14.880  0.6104 -0.3666 -0.1661
 9971TIP3    H151404   3.225   4.960  14.872 -1.4642 -0.2559  0.4194
 9971TIP3    H251405   3.310   4.844  14.918  1.3386  1.1763 -0.8539
 9972TIP3   OH251406   2.353   3.238  12.476  0.2785 -0.3644 -0.2121
 9972TIP3    H151407   2.301   3.172  12.429  0.2296 -0.6639  0.2530
 9972TIP3    H251408   2.316   3.322  12.447 -0.3675 -0.5679 -0.0058
 9973TIP3   OH251409   4.880   5.529   4.229  0.0066  0.1535 -0.1703
 9973TIP3    H151410   4.881   5.450   4.175 -0.9350  0.5952 -0.8762
 9973TIP3    H251411   4.789   5.558   4.226  0.4170  1.5101 -0.2948
 9974TIP3   OH251412   1.843   3.821  15.693  0.3580 -0.4402 -0.5192
 9974TIP3    H151413   1.846   3.725  15.700  0.3784 -0.3816  0.4099
 9974TIP3    H251414   1.926   3.845  15.652  0.2113 -0.8448 -1.0549
 9975TIP3   OH251415   4.736   4.131  13.062  0.4996 -0.3925 -0.0179
 9975TIP3    H151416   4.801   4.188  13.023  0.1827 -1.0816 -1.6289
 9975TIP3    H251417   4.711   4.175  13.143  2.9099 -0.0942  0.6467
 9976TIP3   OH251418   4.079   6.826  14.284  0.2001  0.0341  0.1200
 9976TIP3    H151419   4.023   6.759  14.245  2.0964 -1.5049 -0.1845
 9976TIP3    H251420   4.125   6.865  14.209  0.1822  0.6224  0.4148
 9977TIP3   OH251421   0.079   4.546   6.116 -0.3061  0.0452  0.4436
 9977TIP3    H151422   0.093   4.452   6.128  0.8713  0.1478 -0.0383
 9977TIP3    H251423   0.080   4.581   6.205 -2.4576 -0.5838  0.7806
 9978TIP3   OH251424   6.656   6.164  11.905  0.0854 -0.1906  0.1097
 9978TIP3    H151425   6.621   6.229  11.843  1.3914  0.1588 -0.3165
 9978TIP3    H251426   6.620   6.081  11.875  0.0102  0.0875 -0.6134
 9979TIP3   OH251427   6.671   4.387   5.809 -0.1790 -0.2305 -0.0981
 9979TIP3    H151428   6.732   4.346   5.870  1.8366  1.1808 -1.0383
 9979TIP3    H251429   6.637   4.315   5.756  0.7914 -1.0480  0.3667
 9980TIP3   OH251430   1.988   2.468  10.736  0.3427  0.1142 -0.3889
 9980TIP3    H151431   2.082   2.476  10.755  0.2275  0.2320  0.1550
 9980TIP3    H251432   1.946   2.518  10.805 -0.0889  0.8992 -1.2086
 9981TIP3   OH251433   1.599   5.093  14.946  0.3373  0.9222 -0.2406
 9981TIP3    H151434   1.644   5.144  14.879  1.6801 -0.5220 -0.5135
 9981TIP3    H251435   1.632   5.127  15.029  3.7817 -1.4445 -0.4176
 9982TIP3   OH251436   3.752   6.560  15.574 -0.0557 -0.4871 -0.0869
 9982TIP3    H151437   3.795   6.635  15.535  1.0227 -1.5556 -1.0440
 9982TIP3    H251438   3.668   6.554  15.529 -0.5671  0.6715  0.6648
 9983TIP3   OH251439   2.973   1.057  14.742 -0.4542 -0.5908  0.1554
 9983TIP3    H151440   2.944   1.071  14.833 -1.6769  2.0055 -0.5293
 9983TIP3    H251441   2.977   0.962  14.733 -0.6335 -0.9476  2.8162
 9984TIP3   OH251442   5.715   0.437  15.524  0.3637  0.2813 -0.3174
 9984TIP3    H151443   5.755   0.457  15.608 -1.4564  1.5818  0.2921
 9984TIP3    H251444   5.629   0.478  15.527  0.3529  0.6581 -2.9436
 9985TIP3   OH251445   0.610   2.039   4.051  0.4211  0.5373 -0.2552
 9985TIP3    H151446   0.691   1.988   4.050  0.9349  1.3259 -0.5288
 9985TIP3    H251447   0.581   2.040   3.959  0.3789  0.6820 -0.2402
 9986TIP3   OH251448   4.011   2.057  14.382  1.0090 -0.5476  0.4699
 9986TIP3    H151449   3.964   2.139  14.368  1.5502 -0.4451 -0.9192
 9986TIP3    H251450   4.024   2.021  14.294 -1.3113 -3.3438  1.1133
 9987TIP3   OH251451   4.876   5.141  17.098  0.4565 -0.7163  0.2090
 9987TIP3    H151452   4.801   5.082  17.088 -0.5157  0.4703  0.2399
 9987TIP3    H251453   4.839   5.228  17.087  1.7265 -0.0608  0.9256
 9988TIP3   OH251454   4.577   2.430  11.134 -0.1091 -0.3027  0.1149
 9988TIP3    H151455   4.536   2.399  11.054 -1.3767 -1.5353  1.1965
 9988TIP3    H251456   4.532   2.511  11.155  1.5248  1.0934 -1.3763
 9989TIP3   OH251457   4.842   0.415  15.096 -0.7073 -0.3188 -0.1594
 9989TIP3    H151458   4.751   0.429  15.070 -1.1262 -0.3199  1.2120
 9989TIP3    H251459   4.867   0.495  15.142 -0.3653 -0.7201  0.3743
 9990TIP3   OH251460   0.996   0.226   2.996  0.1287  0.2904  0.2373
 9990TIP3    H151461   0.912   0.204   3.036 -0.1943  1.0049 -0.0323
 9990TIP3    H251462   1.027   0.143   2.959  0.6559 -0.5038  2.3300
 9991TIP3   OH251463   5.300   0.172  14.235  0.5967 -0.0106  0.1069
 9991TIP3    H151464   5.377   0.159  14.180 -0.3459 -3.1828 -0.7013
 9991TIP3    H251465   5.303   0.264  14.261  2.0824  1.2042 -3.7426
 9992TIP3   OH251466   2.394   2.314  11.791  0.5227 -0.2903 -0.4603
 9992TIP3    H151467   2.336   2.349  11.723 -1.5302  0.3170  1.4952
 9992TIP3    H251468   2.414   2.226  11.762 -1.8220 -0.7042 -1.0207
 9993TIP3   OH251469   3.486   0.208   6.102 -0.0510 -0.3736 -0.0162
 9993TIP3    H151470   3.437   0.130   6.077 -1.9627  0.6890  0.2025
 9993TIP3    H251471   3.508   0.250   6.019 -1.5457  0.2926 -0.1135
 9994TIP3   OH251472   3.793   6.049  14.997  0.2971 -0.1250  0.0504
 9994TIP3    H151473   3.711   6.059  15.044 -0.0018  1.1112 -0.6750
 9994TIP3    H251474   3.823   6.139  14.981  0.9579 -0.5166 -1.0911
 9995TIP3   OH251475   5.320   4.997   5.556 -0.0654  0.2464  0.6624
 9995TIP3    H151476   5.246   4.939   5.575  0.1280 -0.2087  0.0420
 9995TIP3    H251477   5.321   5.059   5.630 -2.2007  1.4351 -0.2015
 9996TIP3   OH251478   2.804   0.412  15.299  0.6601  0.4088 -0.3701
 9996TIP3    H151479   2.723   0.386  15.254 -0.5362 -4.2333  3.6520
 9996TIP3    H251480   2.872   0.361  15.256  0.3013 -0.5283  0.1462
 9997TIP3   OH251481   4.938   5.278  13.277 -0.1399 -0.3867  0.3289
 9997TIP3    H151482   4.909   5.369  13.271  1.0265  0.0072  0.4326
 9997TIP3    H251483   5.032   5.282  13.259 -0.1510 -1.6301 -0.0965
 9998TIP3   OH251484   0.349   5.639   5.762  0.6175 -0.2379  0.5997
 9998TIP3    H151485   0.379   5.669   5.847 -0.1470 -1.5919  1.3826
 9998TIP3    H251486   0.429   5.615   5.715  1.2049  2.3801  0.1390
 9999TIP3   OH251487   2.548   4.376  11.944 -0.1269  0.3652 -0.5845
 9999TIP3    H151488   2.528   4.357  12.036  0.5119  1.6068 -0.1715
 9999TIP3    H251489   2.472   4.424  11.912 -0.3328 -0.0346 -0.7112
10000TIP3   OH251490   2.341   2.359  10.338 -0.6833  0.1362 -0.3659
10000TIP3    H151491   2.339   2.336  10.431 -0.2571 -2.8577 -0.9873
10000TIP3    H251492   2.429   2.394  10.324 -0.6845  0.4297  0.3361
10001TIP3   OH251493   4.146   1.468   2.460  0.0777  0.3160  0.1547
10001TIP3    H151494   4.063   1.463   2.508 -1.2017 -0.5630 -1.9839
10001TIP3    H251495   4.208   1.505   2.522 -1.5391 -0.4264  2.3355
10002TIP3   OH251496   2.789   0.581  11.697 -0.3355 -0.0802 -0.2074
10002TIP3    H151497   2.861   0.524  11.670 -0.6246 -1.7420  2.1673
10002TIP3    H251498   2.723   0.571  11.628  1.2536  0.7111 -1.9232
10003TIP3   OH251499   2.270   4.758  13.196 -0.7171  0.5909 -0.1448
10003TIP3    H151500   2.230   4.731  13.113 -1.5771 -1.8096  0.9592
10003TIP3    H251501   2.211   4.825  13.231 -0.9371  0.8209 -0.9373
10004TIP3   OH251502   2.307   4.723   0.025 -0.0855 -0.1427 -0.1306
10004TIP3    H151503   2.213   4.736   0.028 -0.0435  0.5224 -1.1504
10004TIP3    H251504   2.344   4.804   0.060  0.1058 -0.3022  0.0410
10005TIP3   OH251505   4.726   2.490   0.608 -0.0568  0.2690 -0.1890
10005TIP3    H151506   4.811   2.485   0.652 -0.7637 -1.2898  1.1129
10005TIP3    H251507   4.665   2.450   0.670 -1.2788 -1.2030 -2.2006
10006TIP3   OH251508   2.840   0.033   4.932  0.1558  0.3110 -0.1546
10006TIP3    H151509   2.880   0.064   5.013  0.4850  1.4050 -0.7193
10006TIP3    H251510   2.886   0.081   4.863  2.0194 -2.8009 -1.2554
10007TIP3   OH251511   4.298   4.107  16.503 -0.3115  0.1366 -0.2083
10007TIP3    H151512   4.329   4.196  16.486 -0.5141  0.7740  2.3178
10007TIP3    H251513   4.233   4.090  16.435  0.8947  1.2664 -1.7042
10008TIP3   OH251514   3.254   6.293   5.354 -0.1860 -0.0835 -0.3601
10008TIP3    H151515   3.313   6.319   5.424  1.6655 -0.6272 -1.6389
10008TIP3    H251516   3.172   6.272   5.398  0.8953 -0.3851  1.6371
10009TIP3   OH251517   4.656   3.229   3.189  0.3082  0.4815  0.0828
10009TIP3    H151518   4.583   3.244   3.130 -1.1835  1.7217  2.0850
10009TIP3    H251519   4.669   3.314   3.232  1.3671 -0.3314  1.4515
10010TIP3   OH251520   3.563   3.585  11.740  0.6078 -0.2312 -0.0230
10010TIP3    H151521   3.506   3.621  11.808  1.1847  0.2264  0.2176
10010TIP3    H251522   3.525   3.617  11.658 -0.3078 -1.0829  0.0406
10011TIP3   OH251523   6.365   5.326  14.062  0.4693 -0.1620 -0.2345
10011TIP3    H151524   6.290   5.375  14.094  1.0699 -0.4976  1.8421
10011TIP3    H251525   6.417   5.391  14.014 -0.3096  0.4589 -0.2617
10012TIP3   OH251526   1.447   3.091   1.149 -0.9519  0.0773  0.6040
10012TIP3    H151527   1.541   3.076   1.147 -1.1093 -1.0487 -2.0303
10012TIP3    H251528   1.408   3.004   1.141 -2.1458  0.6908 -0.7921
10013TIP3   OH251529   3.696   0.464   0.889  0.2903 -0.2164 -0.1979
10013TIP3    H151530   3.655   0.477   0.804 -0.3334  0.8470  0.2380
10013TIP3    H251531   3.777   0.515   0.885 -1.4569  2.9190  1.0126
10014TIP3   OH251532   3.401   6.803  16.051 -0.1820 -0.4682  0.3512
10014TIP3    H151533   3.413   6.788  16.145 -1.4927 -1.8664  0.3388
10014TIP3    H251534   3.315   6.766  16.032  0.7146 -1.6490 -1.7048
10015TIP3   OH251535   6.245   0.431  12.588  0.0814  0.6367 -0.1930
10015TIP3    H151536   6.290   0.496  12.533  0.7774  0.8672  0.6162
10015TIP3    H251537   6.222   0.480  12.667 -0.8556  0.2955 -0.2426
10016TIP3   OH251538   6.201   4.752  11.804  0.4318  0.0099 -0.2594
10016TIP3    H151539   6.167   4.683  11.746  1.7680 -0.0857 -0.9493
10016TIP3    H251540   6.278   4.713  11.846 -0.4504  0.1021  1.5694
10017TIP3   OH251541   0.893   1.353   5.011 -0.6373  0.3552  0.4323
10017TIP3    H151542   0.844   1.351   4.929 -2.8349 -1.1402  1.6881
10017TIP3    H251543   0.881   1.442   5.044  0.9088  1.2129 -1.1466
10018TIP3   OH251544   3.102   0.249  11.115 -0.3102 -0.3792 -0.2824
10018TIP3    H151545   3.084   0.192  11.040  1.4936 -1.1871 -0.1717
10018TIP3    H251546   3.096   0.338  11.080 -0.4255 -0.7212 -1.1481
10019TIP3   OH251547   2.905   5.006  12.994  0.4910 -0.3028  0.2754
10019TIP3    H151548   2.925   5.034  13.083 -1.5724  0.3645  0.5852
10019TIP3    H251549   2.857   4.924  13.005 -0.5887  0.2596 -0.1522
10020TIP3   OH251550   1.955   6.568   2.958  0.2383  0.0687  0.0008
10020TIP3    H151551   2.028   6.631   2.965  0.6356 -0.4541  0.6464
10020TIP3    H251552   1.976   6.516   2.880  1.0812 -0.7138  0.7217
10021TIP3   OH251553   1.800   1.770   4.133  0.3788 -0.1261  0.1004
10021TIP3    H151554   1.802   1.693   4.076 -0.9663 -0.0773 -0.0485
10021TIP3    H251555   1.800   1.734   4.222 -1.8889 -0.4215  0.0419
10022TIP3   OH251556   4.635   6.322  15.905  0.1260  0.2358  0.0410
10022TIP3    H151557   4.554   6.292  15.863 -0.7229  0.6684  1.2783
10022TIP3    H251558   4.696   6.336  15.833 -0.7617 -0.5176 -0.8956
10023TIP3   OH251559   3.966   1.890   2.340 -0.2362 -0.4671  0.3280
10023TIP3    H151560   3.928   1.975   2.317 -2.0564 -1.2685  0.2237
10023TIP3    H251561   4.040   1.880   2.281 -2.2963 -0.6087 -2.4162
10024TIP3   OH251562   6.332   2.725  15.445  0.4772  0.4130  0.3672
10024TIP3    H151563   6.416   2.758  15.478 -0.0350  2.0519  0.1056
10024TIP3    H251564   6.344   2.721  15.350  0.5750 -0.3006  0.4061
10025TIP3   OH251565   4.515   6.249  11.057 -0.2901  0.2488  0.2551
10025TIP3    H151566   4.559   6.168  11.083 -0.2610 -0.3522 -1.5012
10025TIP3    H251567   4.461   6.223  10.982 -1.4303  1.5700  0.5829
10026TIP3   OH251568   2.586   4.727   4.334 -0.4113  0.8377 -0.1944
10026TIP3    H151569   2.500   4.705   4.298  0.1190 -1.4367 -0.2035
10026TIP3    H251570   2.623   4.790   4.272 -0.3177 -1.4639 -2.6631
10027TIP3   OH251571   1.075   4.988   1.842 -0.0943 -0.0490 -0.1951
10027TIP3    H151572   1.005   4.992   1.777 -1.0046  0.8315  0.8096
10027TIP3    H251573   1.078   5.075   1.880  0.5243 -0.4969  0.8270
10028TIP3   OH251574   0.814   2.896  12.767  0.0774  0.5154  0.2541
10028TIP3    H151575   0.782   2.832  12.831 -1.6038 -0.0123 -1.0436
10028TIP3    H251576   0.889   2.937  12.810  0.6166 -1.6438  1.4961
10029TIP3   OH251577   5.769   6.177  13.550 -0.3098 -0.5144 -0.6437
10029TIP3    H151578   5.849   6.228  13.538 -0.0695 -1.0576 -1.4441
10029TIP3    H251579   5.698   6.239  13.534 -0.0156 -0.7560 -3.2737
10030TIP3   OH251580   3.957   0.386  15.665 -0.3654 -0.4888 -0.4758
10030TIP3    H151581   3.942   0.446  15.739 -1.1751 -2.3553  0.9529
10030TIP3    H251582   4.026   0.327  15.696 -1.8163 -2.2879 -0.5486
10031TIP3   OH251583   6.670   2.953  14.042 -0.1537  0.0283  0.3100
10031TIP3    H151584   6.671   3.048  14.050 -1.0614 -0.0052  0.8945
10031TIP3    H251585   6.715   2.921  14.120  0.8893 -0.0151 -0.2891
10032TIP3   OH251586   5.786   6.639  11.362  1.0209  0.1339 -0.3104
10032TIP3    H151587   5.776   6.733  11.347 -0.3495  0.4349  2.0112
10032TIP3    H251588   5.734   6.598  11.293  0.0639  1.1494 -0.2263
10033TIP3   OH251589   1.647   4.077   3.819  0.6066 -0.1260  0.6385
10033TIP3    H151590   1.654   4.002   3.878  2.3381  0.4507  1.2525
10033TIP3    H251591   1.556   4.105   3.824 -0.0220 -2.0534  0.5300
10034TIP3   OH251592   5.504   4.909   4.251 -0.1238  0.5587 -0.4690
10034TIP3    H151593   5.555   4.893   4.330 -1.2860  0.3653  0.2448
10034TIP3    H251594   5.570   4.936   4.186  0.8286  0.7818  0.5619
10035TIP3   OH251595   0.642   6.080   1.339 -0.2089 -1.0062  0.0455
10035TIP3    H151596   0.729   6.059   1.373 -0.7536  0.3115  2.4253
10035TIP3    H251597   0.651   6.168   1.303 -0.4162 -1.1306 -0.3209
10036TIP3   OH251598   0.265   0.593  14.307 -0.1205  0.2496  0.3213
10036TIP3    H151599   0.354   0.622  14.328 -0.6068  1.8407  0.2595
10036TIP3    H251600   0.270   0.567  14.215  0.3547 -0.0213  0.4177
10037TIP3   OH251601   3.836   5.264   0.488 -0.7398  0.2360 -0.6653
10037TIP3    H151602   3.910   5.241   0.544  0.1098 -0.5770 -2.0625
10037TIP3    H251603   3.807   5.349   0.522  0.6284  0.4292  0.1308
10038TIP3   OH251604   6.043   1.321   2.136 -0.7400  0.2908 -0.5619
10038TIP3    H151605   6.072   1.301   2.225  0.9995 -1.5999 -1.4671
10038TIP3    H251606   6.035   1.235   2.093 -0.7402  1.1776 -2.4446
10039TIP3   OH251607   2.970   1.355   6.018 -0.2516 -0.3883  0.0078
10039TIP3    H151608   2.917   1.296   6.071  3.6346 -2.9203  1.5608
10039TIP3    H251609   3.042   1.382   6.076  2.4532 -0.6514 -2.9379
10040TIP3   OH251610   5.167   6.048   5.522  0.1546  0.2765  0.2011
10040TIP3    H151611   5.173   6.102   5.601  0.5049  0.1806  0.2386
10040TIP3    H251612   5.228   5.976   5.537  1.0427  0.8395 -0.6211
10041TIP3   OH251613   2.555   0.141  15.150  0.1698  0.7982 -0.0052
10041TIP3    H151614   2.490   0.121  15.218 -1.3969 -0.0575 -1.6804
10041TIP3    H251615   2.627   0.081  15.168  0.2508  1.3080  1.5037
10042TIP3   OH251616   2.862   5.645   1.263  0.0485  0.7106  0.4475
10042TIP3    H151617   2.849   5.711   1.194  0.8213 -0.2712 -0.6714
10042TIP3    H251618   2.783   5.591   1.259  0.5434  0.0270 -0.4006
10043TIP3   OH251619   5.130   3.366   0.496 -0.3643  0.1864 -0.2060
10043TIP3    H151620   5.210   3.410   0.523 -0.4419  0.5409 -0.5370
10043TIP3    H251621   5.062   3.405   0.551 -0.4563  0.5982 -0.6028
10044TIP3   OH251622   4.657   2.520   5.769  0.2524 -0.1943  0.2770
10044TIP3    H151623   4.574   2.503   5.814 -0.5401  0.1308 -1.0092
10044TIP3    H251624   4.675   2.613   5.787 -1.5997  0.8130 -2.3468
10045TIP3   OH251625   2.024   3.578  16.889  0.4210  0.9125  0.0178
10045TIP3    H151626   1.990   3.522  16.960  1.6821 -0.2737 -0.2610
10045TIP3    H251627   1.948   3.596  16.834 -0.4107  1.1382  1.1936
10046TIP3   OH251628   1.422   1.496  16.036 -0.5109 -0.5017 -0.1341
10046TIP3    H151629   1.482   1.426  16.011 -1.5831 -1.2375 -0.7434
10046TIP3    H251630   1.341   1.451  16.059 -0.7994  0.4618  0.7955
10047TIP3   OH251631   4.395   1.916   6.351 -0.0336  0.4299  0.7126
10047TIP3    H151632   4.350   1.858   6.289  1.4803 -1.3652  1.1757
10047TIP3    H251633   4.405   1.999   6.305 -0.8495 -0.1901 -0.6254
10048TIP3   OH251634   2.374   5.393   1.818  0.3795 -0.0560  0.2499
10048TIP3    H151635   2.333   5.480   1.813  0.6558  0.0183 -1.1706
10048TIP3    H251636   2.314   5.342   1.872 -0.5500  0.6309 -0.0980
10049TIP3   OH251637   1.315   0.244   4.638  0.4512  0.4794 -0.0647
10049TIP3    H151638   1.292   0.153   4.659 -2.5289  1.4383  1.2645
10049TIP3    H251639   1.238   0.279   4.593  0.2202  3.1902  2.2115
10050TIP3   OH251640   6.366   4.477   0.680  0.3643  0.0156 -0.2416
10050TIP3    H151641   6.327   4.394   0.654  1.0947 -0.7069  0.9433
10050TIP3    H251642   6.310   4.543   0.638 -0.2167 -1.0497 -1.1970
10051TIP3   OH251643   1.971   5.487  15.789  0.0466 -0.4647  0.1830
10051TIP3    H151644   2.017   5.561  15.828 -1.2237  0.2516  0.4036
10051TIP3    H251645   2.011   5.410  15.828  0.1747  0.1701  1.3663
10052TIP3   OH251646   4.518   0.628   3.075  0.4224  0.6568 -0.1922
10052TIP3    H151647   4.600   0.618   3.026  1.4279  2.2970  1.0464
10052TIP3    H251648   4.473   0.700   3.030  0.2310  0.5897 -0.1086
10053TIP3   OH251649   6.357   0.473   6.040 -0.2064  0.3622 -0.1236
10053TIP3    H151650   6.452   0.470   6.028 -0.0185  2.6679  0.4163
10053TIP3    H251651   6.337   0.390   6.084  1.6241  0.0570  0.2347
10054TIP3   OH251652   3.594   0.297  11.648 -0.4825  0.1675 -0.4629
10054TIP3    H151653   3.631   0.213  11.618 -2.6426 -1.0369 -0.0006
10054TIP3    H251654   3.624   0.305  11.739  1.0456  0.7543 -0.9814
10055TIP3   OH251655   6.181   5.344   4.827 -0.0205 -0.0827  0.4582
10055TIP3    H151656   6.244   5.336   4.755 -0.1386  1.3650  0.1680
10055TIP3    H251657   6.143   5.431   4.816 -0.9255 -0.3170  1.5702
10056TIP3   OH251658   3.677   4.065   2.183 -0.2105  0.1411 -0.4684
10056TIP3    H151659   3.639   4.150   2.202 -1.4817  0.0106 -2.1754
10056TIP3    H251660   3.657   4.011   2.260  0.7550  1.3782  0.6971
10057TIP3   OH251661   6.830   2.965  15.888 -0.5232 -0.2424 -0.0923
10057TIP3    H151662   6.866   2.928  15.970 -0.0101 -0.0527 -0.2298
10057TIP3    H251663   6.823   2.889  15.830  0.7014 -0.1160 -0.4345
10058TIP3   OH251664   5.507   3.171   0.385  0.1298  0.3285 -0.3960
10058TIP3    H151665   5.448   3.159   0.310  0.9937 -2.1126 -0.7815
10058TIP3    H251666   5.518   3.266   0.392 -0.7109  0.6718 -2.7895
10059TIP3   OH251667   5.667   4.760  14.482  0.0731  0.5812 -0.4420
10059TIP3    H151668   5.673   4.737  14.389 -0.2769 -3.1673  0.3008
10059TIP3    H251669   5.573   4.754  14.502  0.4125 -1.5191  0.7062
10060TIP3   OH251670   3.782   6.120   2.828 -0.7831  0.2384 -0.0840
10060TIP3    H151671   3.731   6.146   2.751  1.4006 -0.1534 -1.7754
10060TIP3    H251672   3.812   6.031   2.808 -1.3179 -0.4395  1.9035
10061TIP3   OH251673   3.411   5.565   0.666 -0.6562 -0.3535  0.3734
10061TIP3    H151674   3.325   5.593   0.635 -0.3737 -0.3241 -0.4032
10061TIP3    H251675   3.403   5.470   0.678 -0.2334 -0.6961 -1.6757
10062TIP3   OH251676   3.446   0.424   2.033 -0.6754  0.0462 -0.3864
10062TIP3    H151677   3.374   0.367   2.061 -0.4525 -0.1832 -0.2728
10062TIP3    H251678   3.518   0.364   2.014 -0.3251  0.3104  0.0678
10063TIP3   OH251679   1.518   0.386  16.085 -0.3567 -0.0940 -0.0643
10063TIP3    H151680   1.527   0.343  16.170 -0.2868  0.1220  0.0364
10063TIP3    H251681   1.431   0.358  16.054 -0.1147 -0.6894 -0.2149
10064TIP3   OH251682   5.609   5.319  16.966  0.7944 -0.3438  0.0150
10064TIP3    H151683   5.595   5.413  16.979  1.5330 -0.1473 -0.5165
10064TIP3    H251684   5.661   5.314  16.886  0.6071 -1.2201 -0.0577
10065TIP3   OH251685   2.690   5.531  15.557 -0.1841 -0.4061 -0.2148
10065TIP3    H151686   2.709   5.438  15.567  1.6439  0.0684  1.6110
10065TIP3    H251687   2.643   5.554  15.637 -0.9717  0.1724 -0.8351
10066TIP3   OH251688   0.593   4.633   3.446  0.0548  0.1148  0.0901
10066TIP3    H151689   0.683   4.634   3.479  0.7593  0.9287 -1.6943
10066TIP3    H251690   0.573   4.540   3.434  0.8357 -0.0556  0.0716
10067TIP3   OH251691   3.020   5.332   4.855  0.4571  0.4087  0.0006
10067TIP3    H151692   3.034   5.391   4.930 -1.7171  1.1005 -0.0603
10067TIP3    H251693   3.071   5.371   4.784 -1.9219  3.1371 -0.4166
10068TIP3   OH251694   4.747   6.149   2.150 -0.1699 -0.4019  0.5044
10068TIP3    H151695   4.697   6.223   2.185  2.0977  0.7813  1.4521
10068TIP3    H251696   4.728   6.077   2.210 -1.8239 -0.4398 -0.0030
10069TIP3   OH251697   5.573   1.629   2.131  0.3121  0.2531 -0.0203
10069TIP3    H151698   5.595   1.538   2.114 -0.9441 -0.3315  1.3100
10069TIP3    H251699   5.627   1.653   2.207 -2.6096 -0.9154  2.6813
10070TIP3   OH251700   4.144   5.103   1.000 -0.0536 -0.2237  0.4721
10070TIP3    H151701   4.122   5.116   1.093  0.8588  0.9116  0.5591
10070TIP3    H251702   4.224   5.155   0.987 -0.7045  0.4455 -1.1831
10071TIP3   OH251703   3.731   2.945  12.304 -0.0895  0.3951  0.6150
10071TIP3    H151704   3.755   2.946  12.397 -1.0699  0.0610  0.8843
10071TIP3    H251705   3.770   3.025  12.268 -0.5142  1.0174  1.5255
10072TIP3   OH251706   6.284   6.789   2.964 -0.0814  0.0146 -0.8579
10072TIP3    H151707   6.211   6.850   2.954  0.8210  1.0208 -1.6317
10072TIP3    H251708   6.313   6.771   2.874 -0.2766 -1.5145 -0.6392
10073TIP3   OH251709   3.258   4.253  13.487  1.1407 -0.5410 -0.2422
10073TIP3    H151710   3.309   4.177  13.515  2.0735  0.5885  1.3131
10073TIP3    H251711   3.316   4.328  13.503 -0.7214  0.7492  0.9053
10074TIP3   OH251712   3.037   2.006  13.335  0.0041  0.0540  0.0960
10074TIP3    H151713   3.077   2.065  13.271  0.9122  0.4715  1.0205
10074TIP3    H251714   3.081   1.922  13.322  2.2357  0.8253  1.9671
10075TIP3   OH251715   0.965   5.484   3.723 -0.1872 -1.0094  0.0233
10075TIP3    H151716   1.032   5.415   3.726  2.5650  1.4091 -0.6499
10075TIP3    H251717   0.975   5.530   3.806 -0.5053 -0.1903 -0.3861
10076TIP3   OH251718   0.892   0.747   0.937 -0.1873 -0.6895 -0.1756
10076TIP3    H151719   0.838   0.728   0.860 -0.8147 -0.8677  0.3004
10076TIP3    H251720   0.974   0.699   0.921  0.3661  0.6243 -1.5090
10077TIP3   OH251721   3.173   0.345  16.346  0.5054  0.3866 -0.1250
10077TIP3    H151722   3.248   0.306  16.391 -1.1110 -1.9413  0.7700
10077TIP3    H251723   3.184   0.320  16.254  0.5458 -0.4529  0.1026
10078TIP3   OH251724   6.392   1.295  16.261  0.2032 -0.6558  0.1276
10078TIP3    H151725   6.458   1.234  16.228  0.5520 -0.4513  0.4394
10078TIP3    H251726   6.313   1.242  16.271 -0.0913 -0.6026 -1.5927
10079TIP3   OH251727   1.902   0.370   0.140  0.0161 -0.3607  0.5595
10079TIP3    H151728   1.984   0.373   0.190  0.4560  0.4536 -0.1693
10079TIP3    H251729   1.853   0.447   0.169 -0.2422 -0.5384  0.5923
10080TIP3   OH251730   5.191   2.251   3.581  0.5695 -0.3354  0.0875
10080TIP3    H151731   5.279   2.287   3.579  0.6321 -0.5023 -0.2516
10080TIP3    H251732   5.197   2.169   3.533  0.0196  0.1265 -0.7999
10081TIP3   OH251733   1.479   5.294  16.736 -0.0328  0.2791 -0.5437
10081TIP3    H151734   1.453   5.344  16.813 -0.3341  0.8661 -1.0187
10081TIP3    H251735   1.405   5.235  16.720 -0.1397  0.4287 -0.6086
10082TIP3   OH251736   4.142   2.281  16.168  0.6534 -0.1105 -0.4183
10082TIP3    H151737   4.113   2.364  16.131  0.6670 -0.3888 -1.0692
10082TIP3    H251738   4.062   2.238  16.198  0.6374  0.0954 -0.1620
10083TIP3   OH251739   1.893   3.065   4.035 -0.2180  0.4355  0.2011
10083TIP3    H151740   1.902   2.999   4.104 -0.1012 -1.4659 -1.5140
10083TIP3    H251741   1.801   3.061   4.009  0.2747 -0.9244 -1.5696
10084TIP3   OH251742   3.677   2.716   2.951  0.4418  0.3557 -0.1632
10084TIP3    H151743   3.615   2.710   3.024  1.2266 -1.2522  0.4318
10084TIP3    H251744   3.630   2.766   2.884 -0.9879  0.3265  0.7599
10085TIP3   OH251745   0.689   3.766   4.777 -0.6311 -0.6192  0.0632
10085TIP3    H151746   0.660   3.676   4.794  0.3771 -1.2400 -1.3100
10085TIP3    H251747   0.706   3.768   4.682 -1.6155  1.3157 -0.1309
10086TIP3   OH251748   0.009   5.143   1.600 -0.3612 -0.5126  0.1406
10086TIP3    H151749  -0.028   5.173   1.517 -0.2989 -0.2722  0.1973
10086TIP3    H251750  -0.068   5.119   1.653 -0.4467  0.0229  0.2715
10087TIP3   OH251751   3.583   0.106   0.255  0.0073  0.2375 -0.0893
10087TIP3    H151752   3.622   0.035   0.204 -1.7077 -0.6905 -0.2087
10087TIP3    H251753   3.575   0.071   0.344 -2.3688 -0.4545 -0.4877
10088TIP3   OH251754   4.515   0.801   5.884  0.1677  0.4363  0.4624
10088TIP3    H151755   4.528   0.707   5.871  1.2641  0.7102 -0.7565
10088TIP3    H251756   4.579   0.826   5.951 -1.1545  0.0889  1.9028
10089TIP3   OH251757   3.094   1.805   2.987  0.1660  0.4593 -0.2898
10089TIP3    H151758   3.157   1.733   2.984  0.8741  0.9957  0.9998
10089TIP3    H251759   3.138   1.874   3.037 -0.7156  1.5898 -1.0109
10090TIP3   OH251760   0.592   4.508  11.283  0.3338  0.3411 -0.0227
10090TIP3    H151761   0.593   4.413  11.294 -0.0400 -0.1997 -3.5036
10090TIP3    H251762   0.685   4.533  11.285  0.4186 -0.0297  1.1734
10091TIP3   OH251763   3.585   1.760   5.894  0.2212 -0.2705 -0.3106
10091TIP3    H151764   3.492   1.741   5.904  0.2157  0.0748  0.3295
10091TIP3    H251765   3.620   1.685   5.845 -0.0395 -1.2990  1.0379
10092TIP3   OH251766   6.518   0.196  11.004  0.3991 -0.3407 -0.5282
10092TIP3    H151767   6.468   0.209  10.924  3.6102  2.1313 -2.3936
10092TIP3    H251768   6.470   0.244  11.071 -1.2847 -0.6935 -1.4392
10093TIP3   OH251769   4.708   2.274   2.561  0.1020 -0.5590 -0.3193
10093TIP3    H151770   4.718   2.332   2.486 -2.3622  0.0820 -0.2349
10093TIP3    H251771   4.728   2.187   2.527  0.8325 -0.0584 -1.2215
10094TIP3   OH251772   6.219   6.347  16.159 -0.1145 -0.4286 -0.2273
10094TIP3    H151773   6.152   6.280  16.144  0.7037 -1.2666 -0.2275
10094TIP3    H251774   6.250   6.331  16.248 -1.3238  1.2638  0.5654
10095TIP3   OH251775   4.709   2.443  14.769 -0.1666  0.5352  0.4554
10095TIP3    H151776   4.668   2.529  14.772  0.1457  0.6627  1.6952
10095TIP3    H251777   4.797   2.456  14.806  0.5835  0.0370 -1.0532
10096TIP3   OH251778   0.854   4.708   0.315 -1.1540  0.0661 -0.6362
10096TIP3    H151779   0.880   4.781   0.371 -0.0805 -0.6013 -0.2433
10096TIP3    H251780   0.825   4.640   0.376 -0.2324 -0.5675 -0.8858
10097TIP3   OH251781   0.902   6.433  12.868  0.0229  0.3591  0.6566
10097TIP3    H151782   0.960   6.359  12.884  0.1647  0.6440  1.5477
10097TIP3    H251783   0.838   6.429  12.939  0.1970  1.2454  0.8716
10098TIP3   OH251784   5.183   6.207   3.143 -0.5592 -0.3693 -0.0070
10098TIP3    H151785   5.124   6.242   3.075 -2.5329 -1.4873  1.0534
10098TIP3    H251786   5.141   6.232   3.225  1.3148  0.1469  0.8373
10099TIP3   OH251787   6.489   3.084  12.653 -0.1252  0.4276  0.0791
10099TIP3    H151788   6.497   2.993  12.624 -1.3036 -0.0282  1.1059
10099TIP3    H251789   6.577   3.107  12.683 -0.1773 -0.9967  1.4871
10100TIP3   OH251790   2.322   4.701   5.575  0.3841  0.2990 -0.2942
10100TIP3    H151791   2.348   4.756   5.649  1.3460 -2.1632  1.2962
10100TIP3    H251792   2.400   4.696   5.520  0.6628 -0.3392  0.1462
10101TIP3   OH251793   3.903   0.404  13.339  0.3184 -0.0918 -0.2622
10101TIP3    H151794   3.919   0.358  13.421  2.2301 -0.1139 -0.5879
10101TIP3    H251795   3.863   0.339  13.282  1.5901 -0.9306 -0.2301
10102TIP3   OH251796   5.544   1.850   5.180 -0.1629  0.0220  0.5982
10102TIP3    H151797   5.460   1.890   5.159 -0.1420 -0.0384  0.3974
10102TIP3    H251798   5.526   1.756   5.181 -0.3222  0.0457  1.5400
10103TIP3   OH251799   0.723   3.172   6.003 -0.2278 -0.4296 -0.0473
10103TIP3    H151800   0.785   3.192   6.073  0.3602 -1.2675 -0.3063
10103TIP3    H251801   0.674   3.253   5.990  1.1965  0.4517 -0.2059
10104TIP3   OH251802   4.562   3.043   1.234 -0.0523  0.6524 -0.1483
10104TIP3    H151803   4.625   3.092   1.287  1.2829  0.2291 -1.2777
10104TIP3    H251804   4.607   2.961   1.213 -1.8492 -0.6714  0.8490
10105TIP3   OH251805   6.437   4.803   0.398 -0.1015 -0.1745  0.3618
10105TIP3    H151806   6.394   4.768   0.475 -2.2356 -1.3134 -1.2345
10105TIP3    H251807   6.451   4.726   0.342  1.4328  0.6089 -0.3766
10106TIP3   OH251808   1.270   5.413   1.005  0.9057  0.4083 -0.4404
10106TIP3    H151809   1.183   5.446   1.028  0.7214  1.1099 -1.9715
10106TIP3    H251810   1.293   5.462   0.926  2.6717  0.1778 -0.1016
10107TIP3   OH251811   6.045   5.857   0.747  0.7328 -0.4183  0.2639
10107TIP3    H151812   6.025   5.764   0.740 -0.5332 -0.2850  1.5407
10107TIP3    H251813   6.008   5.883   0.831 -1.3796  1.8076 -1.1972
10108TIP3   OH251814   3.628   1.912   1.937 -0.2457  0.8649  0.4369
10108TIP3    H151815   3.704   1.884   1.987  0.4405  1.7795 -0.0723
10108TIP3    H251816   3.554   1.866   1.978  0.6236 -0.4227  0.6139
10109TIP3   OH251817   3.473   5.176   4.276  0.3900  0.1255 -0.3451
10109TIP3    H151818   3.461   5.262   4.234 -0.5164  1.1557  1.8444
10109TIP3    H251819   3.536   5.193   4.346 -1.7931 -0.3377  1.8131
10110TIP3   OH251820   3.094   1.641   5.935 -0.2156  0.3994  0.2127
10110TIP3    H151821   3.072   1.634   6.028 -0.4871 -1.4964  0.0548
10110TIP3    H251822   3.014   1.614   5.890  1.3246 -3.8887 -0.4336
10111TIP3   OH251823   2.342   3.830  15.028  0.0493  0.2065 -0.4588
10111TIP3    H151824   2.403   3.862  15.094  0.0193  2.4474 -1.4240
10111TIP3    H251825   2.395   3.823  14.948 -0.2358 -1.0634 -0.5535
10112TIP3   OH251826   6.011   3.695   4.914  0.4986  0.4967 -0.4983
10112TIP3    H151827   6.050   3.741   4.840  0.2209  2.2513  0.3830
10112TIP3    H251828   5.921   3.729   4.918 -0.1497 -1.1082 -0.5680
10113TIP3   OH251829   3.586   1.380   5.202 -0.0031 -0.1702 -0.1135
10113TIP3    H151830   3.669   1.400   5.246 -0.2624 -0.3075  0.4534
10113TIP3    H251831   3.540   1.464   5.199 -0.0874 -0.2086  0.0992
10114TIP3   OH251832   4.570   1.065   3.522  1.0347 -0.5299  0.0324
10114TIP3    H151833   4.611   1.117   3.453 -0.4439  0.5836 -0.0586
10114TIP3    H251834   4.630   0.992   3.536  2.1715  0.1088 -1.2688
10115TIP3   OH251835   4.734   3.052   4.417 -0.3575  0.6311 -0.6663
10115TIP3    H151836   4.750   3.110   4.491  2.4342 -0.2660 -0.4563
10115TIP3    H251837   4.721   2.965   4.456  0.3577  0.2859 -1.1712
10116TIP3   OH251838   4.774   5.151  12.689  0.4063 -0.0554  0.5475
10116TIP3    H151839   4.846   5.137  12.627  0.9563 -1.0093  1.3791
10116TIP3    H251840   4.762   5.246  12.691  2.0813  0.1775  0.8670
10117TIP3   OH251841   3.058   2.418   4.225  0.6303 -0.0445 -0.2816
10117TIP3    H151842   3.005   2.349   4.266  0.0603  0.5573  0.0083
10117TIP3    H251843   3.047   2.403   4.131 -0.0758  0.0860 -0.2226
10118TIP3   OH251844   1.903   4.116   5.697 -0.1027  0.1862  0.3887
10118TIP3    H151845   1.861   4.055   5.758 -0.6084  0.0317 -0.1037
10118TIP3    H251846   1.903   4.070   5.613 -1.1966  1.1484 -0.1698
10119TIP3   OH251847   5.046   5.543  14.226 -0.2975 -0.2308  0.4908
10119TIP3    H151848   5.017   5.635  14.228  0.0267 -0.0939 -0.4757
10119TIP3    H251849   5.132   5.546  14.185 -1.1037 -1.1485 -1.4161
10120TIP3   OH251850   5.311   2.534   4.538 -0.0535  0.2010 -0.3051
10120TIP3    H151851   5.232   2.553   4.589  0.7467 -0.7299  1.3236
10120TIP3    H251852   5.320   2.611   4.481 -1.4127  0.9205  0.3805
10121TIP3   OH251853   1.726   2.787   1.442  0.3006 -0.2812 -0.5870
10121TIP3    H151854   1.662   2.826   1.382  1.5590  1.6561 -0.7370
10121TIP3    H251855   1.786   2.858   1.463  1.8601 -1.7984  0.3183
10122TIP3   OH251856   5.501   0.476  12.805  0.1680 -0.7142  0.2988
10122TIP3    H151857   5.421   0.473  12.752  0.1205  0.2354  0.3052
10122TIP3    H251858   5.509   0.388  12.841  0.6254 -1.6142 -1.8875
10123TIP3   OH251859   2.887   4.746   2.449 -0.5865  0.2523  0.1772
10123TIP3    H151860   2.797   4.714   2.450 -0.8693  1.0552  1.1539
10123TIP3    H251861   2.941   4.667   2.457 -1.1673 -0.2832 -0.9220
10124TIP3   OH251862   3.673   3.855  12.884  0.4728 -0.1809  0.1413
10124TIP3    H151863   3.692   3.916  12.813  1.4182 -1.3385 -0.6365
10124TIP3    H251864   3.684   3.907  12.964 -0.9750  1.2416 -0.5281
10125TIP3   OH251865   5.240   3.067   4.647 -0.2474  0.0344  0.2444
10125TIP3    H151866   5.200   3.107   4.724 -2.6477  1.2873 -1.5072
10125TIP3    H251867   5.218   3.126   4.575  0.8495 -1.6804 -1.6197
10126TIP3   OH251868   5.362   0.207   3.444  0.3690  0.1929 -0.1236
10126TIP3    H151869   5.438   0.151   3.433  0.8930  1.1541 -1.7476
10126TIP3    H251870   5.288   0.152   3.419  0.8172 -0.0059 -1.0789
10127TIP3   OH251871   2.254   6.571  16.280 -0.2204  0.3568  0.0955
10127TIP3    H151872   2.263   6.566  16.185  0.4565 -1.6160  0.2188
10127TIP3    H251873   2.162   6.550  16.297 -0.1691 -0.0243 -0.0921
10128TIP3   OH251874   4.861   2.394  16.236  0.4915 -0.1257 -0.4907
10128TIP3    H151875   4.788   2.382  16.175  0.3384  2.7493 -1.0006
10128TIP3    H251876   4.828   2.360  16.319 -0.9308 -0.1276 -1.0293
10129TIP3   OH251877   0.770   3.294   4.670  0.2718 -0.1238 -0.2899
10129TIP3    H151878   0.845   3.280   4.612  1.4290  2.2238  0.4772
10129TIP3    H251879   0.802   3.268   4.756  0.6207  1.7381  0.2024
10130TIP3   OH251880   3.642   2.688   1.517  0.1347  0.2369  0.0089
10130TIP3    H151881   3.665   2.697   1.609  0.7830 -1.8121  0.0811
10130TIP3    H251882   3.611   2.775   1.491 -0.9698  0.6180  2.3923
10131TIP3   OH251883   1.349   6.234  15.740  0.0640 -0.3946  0.2807
10131TIP3    H151884   1.276   6.271  15.691  0.6085 -0.5943 -0.6968
10131TIP3    H251885   1.385   6.308  15.789 -0.8317 -0.3146  0.8443
10132TIP3   OH251886   1.016   1.142   1.524 -0.0373  0.3184 -0.1176
10132TIP3    H151887   1.075   1.143   1.600  0.5768 -0.6840 -0.5540
10132TIP3    H251888   0.951   1.075   1.546  1.0877 -1.1688 -1.1248
10133TIP3   OH251889   2.887   0.417   2.312 -0.1253  0.0793 -0.0237
10133TIP3    H151890   2.797   0.419   2.343  0.4971  1.0497  1.8678
10133TIP3    H251891   2.908   0.508   2.291  0.2534 -0.2195 -1.0279
10134TIP3   OH251892   5.877   1.343  11.219 -0.4281 -0.2526 -0.2079
10134TIP3    H151893   5.947   1.385  11.168  0.4413 -0.4162  0.8003
10134TIP3    H251894   5.900   1.362  11.310 -1.9308  0.0267  0.1457
10135TIP3   OH251895   5.989   0.288  16.350  0.0151  0.0975 -0.1871
10135TIP3    H151896   6.050   0.273  16.278  0.5660  1.9192 -0.1481
10135TIP3    H251897   5.906   0.251  16.320  0.1913  0.9709 -1.8443
10136TIP3   OH251898   2.650   3.585  12.158 -0.2095  0.3757 -0.3309
10136TIP3    H151899   2.586   3.605  12.090 -0.4926 -2.3463 -0.9568
10136TIP3    H251900   2.600   3.540  12.226  0.8078 -0.6657 -0.2559
10137TIP3   OH251901   5.509   0.186  13.439 -0.2850  0.0408 -0.0401
10137TIP3    H151902   5.560   0.261  13.409 -0.0541 -0.8650 -2.1151
10137TIP3    H251903   5.573   0.128  13.479 -0.0026 -0.2160 -0.8504
10138TIP3   OH251904   6.609   2.816   1.774  0.2662 -0.0140  0.7481
10138TIP3    H151905   6.650   2.846   1.854 -1.5515 -0.4454  1.9066
10138TIP3    H251906   6.579   2.727   1.794 -2.2528  0.6678  0.4596
10139TIP3   OH251907   5.149   4.824   0.504 -0.2465  0.0799  0.3351
10139TIP3    H151908   5.098   4.865   0.573 -0.5742  1.3349 -0.6263
10139TIP3    H251909   5.148   4.731   0.526 -0.7873  0.3848  1.7133
10140TIP3   OH251910   3.585   2.493  17.017 -0.5333  0.0037  0.4323
10140TIP3    H151911   3.596   2.490  16.922  2.1884  2.7732  0.5002
10140TIP3    H251912   3.518   2.560  17.031  0.0451  0.6057  0.4206
10141TIP3   OH251913   2.110   1.700   1.816  0.9135  0.1465 -0.4141
10141TIP3    H151914   2.140   1.770   1.873 -0.9676 -0.5462  1.5750
10141TIP3    H251915   2.038   1.738   1.766 -0.4874 -0.4136  1.0737
10142TIP3   OH251916   6.222   2.387   5.563  0.0693  0.0098  0.1088
10142TIP3    H151917   6.235   2.428   5.648  1.2530 -0.9166  0.4006
10142TIP3    H251918   6.189   2.300   5.582  0.5003 -0.2664 -0.3551
10143TIP3   OH251919   0.341   2.331   1.830  0.3272 -0.2394  0.2912
10143TIP3    H151920   0.289   2.389   1.885 -0.1229 -1.9862  1.7767
10143TIP3    H251921   0.390   2.390   1.773 -1.9989  1.5171 -0.0164
10144TIP3   OH251922   1.184   3.876  12.626  0.3810 -0.0346 -0.0770
10144TIP3    H151923   1.089   3.883  12.628  0.2793 -1.3301  0.6058
10144TIP3    H251924   1.203   3.816  12.554  0.6866  0.3078 -0.2848
10145TIP3   OH251925   3.113   4.670  14.179 -0.6511  0.2189  0.0765
10145TIP3    H151926   3.144   4.650  14.267  0.2554 -0.8019 -0.4590
10145TIP3    H251927   3.115   4.586  14.133  1.4451  1.1615 -1.6932
10146TIP3   OH251928   3.944   0.773  15.519 -0.5235  0.3353 -0.5482
10146TIP3    H151929   3.904   0.752  15.434  0.2368 -1.7024 -0.4630
10146TIP3    H251930   3.999   0.697  15.539 -1.9615 -0.0573  2.5432
10147TIP3   OH251931   6.763   4.485   5.379 -0.1610  0.2245 -0.2835
10147TIP3    H151932   6.822   4.453   5.310 -1.5489  0.2870 -1.5618
10147TIP3    H251933   6.814   4.478   5.459  0.8541 -1.7463 -1.0243
10148TIP3   OH251934   4.867   6.525  15.331 -0.2462 -0.6817 -0.7225
10148TIP3    H151935   4.808   6.579  15.384  1.3349  0.2185  0.1854
10148TIP3    H251936   4.933   6.494  15.392 -0.1533 -2.2745 -1.5819
10149TIP3   OH251937   4.156   5.330   5.306 -0.1086  0.1575  0.1333
10149TIP3    H151938   4.193   5.349   5.220  1.4351 -1.6026  0.3509
10149TIP3    H251939   4.179   5.406   5.360 -0.8042  1.1258 -0.8885
10150TIP3   OH251940   0.927   1.219  15.168 -0.3787 -0.0159 -0.3499
10150TIP3    H151941   0.961   1.146  15.116  0.7366  0.9011 -0.9520
10150TIP3    H251942   0.848   1.247  15.123 -0.0987 -0.0283 -0.8529
10151TIP3   OH251943   0.381   4.146   0.003 -0.0827  0.1853 -0.2709
10151TIP3    H151944   0.412   4.056  -0.008 -1.9090 -0.4707 -0.3590
10151TIP3    H251945   0.413   4.192  -0.075 -1.5086 -1.1286 -1.7150
10152TIP3   OH251946   5.724   5.325   0.955 -0.3050 -0.2958 -0.1697
10152TIP3    H151947   5.805   5.285   0.922  0.4949  0.8512  0.3450
10152TIP3    H251948   5.716   5.292   1.045  0.7134  1.1698  0.4850
10153TIP3   OH251949   5.737   3.515   5.632  0.0079  0.1664  0.2939
10153TIP3    H151950   5.677   3.555   5.695  0.4822  0.6623  0.4352
10153TIP3    H251951   5.823   3.548   5.655  0.2918 -0.2366 -0.1515
10154TIP3   OH251952   4.410   2.641  11.215 -0.0130  0.3217  0.3775
10154TIP3    H151953   4.362   2.702  11.159 -0.1840 -0.6252 -0.5316
10154TIP3    H251954   4.407   2.681  11.302 -2.4040  0.3128  0.3643
10155TIP3   OH251955   0.828   1.626   5.032  0.0369 -0.2642  0.3772
10155TIP3    H151956   0.831   1.647   4.938 -0.5777 -0.9284  0.2033
10155TIP3    H251957   0.742   1.586   5.045 -0.2229  0.5944  1.3997
10156TIP3   OH251958   0.348   5.093   3.737  0.1903 -0.4212  0.1828
10156TIP3    H151959   0.261   5.053   3.733 -0.0094 -0.1296  1.1773
10156TIP3    H251960   0.340   5.174   3.686 -0.4817  0.2079  1.2438
10157TIP3   OH251961   5.568   0.511  14.967  0.1572 -0.2719 -0.1388
10157TIP3    H151962   5.565   0.502  15.063  1.3238  0.9223  0.0373
10157TIP3    H251963   5.646   0.462  14.942  0.7674  0.7445 -0.2822
10158TIP3   OH251964   6.016   3.461  11.473  0.6769 -0.3338 -0.2717
10158TIP3    H151965   6.007   3.434  11.564 -1.6613  0.4619 -0.1863
10158TIP3    H251966   6.078   3.533  11.475 -1.1588  1.3201  1.1510
10159TIP3   OH251967   1.550   3.495  13.558  0.2802  0.5317 -0.2956
10159TIP3    H151968   1.506   3.430  13.614 -0.0735  0.6525 -0.4300
10159TIP3    H251969   1.643   3.483  13.576  0.1622  0.6436  0.3966
10160TIP3   OH251970   5.936   3.690  15.549 -0.9073  0.0004  0.2164
10160TIP3    H151971   6.013   3.632  15.552 -1.1788 -0.3585  0.3671
10160TIP3    H251972   5.924   3.709  15.456 -0.3478  0.4493  0.2355
10161TIP3   OH251973   0.290   2.586   1.374 -0.0497 -0.8041  0.0211
10161TIP3    H151974   0.202   2.587   1.337 -0.2101 -0.7606  0.3936
10161TIP3    H251975   0.315   2.493   1.374 -0.8205 -1.0414  1.5670
10162TIP3   OH251976   5.454   0.664   1.046  0.0448  0.3695  0.3672
10162TIP3    H151977   5.396   0.736   1.072  0.9420  1.4965 -0.6251
10162TIP3    H251978   5.523   0.706   0.994  0.3938 -1.2598 -0.5697
10163TIP3   OH251979   2.122   5.982   3.228 -0.0776 -0.1859 -0.1513
10163TIP3    H151980   2.207   5.944   3.248  1.2737  2.0780 -1.2603
10163TIP3    H251981   2.133   6.024   3.143 -2.1306  0.6486 -0.0699
10164TIP3   OH251982   2.215   3.688   3.695 -0.0950  0.1588  0.6182
10164TIP3    H151983   2.267   3.767   3.710  0.8958 -0.5368  0.9551
10164TIP3    H251984   2.125   3.716   3.707  0.1094  1.6066 -0.8878
10165TIP3   OH251985   6.460   3.572  12.906 -0.3056  0.0605  0.3397
10165TIP3    H151986   6.472   3.548  12.814 -2.1595 -0.3131  0.1565
10165TIP3    H251987   6.369   3.602  12.911  0.3702  2.0939  1.6418
10166TIP3   OH251988   0.255   5.799   4.515  0.1304  0.1588  0.4181
10166TIP3    H151989   0.275   5.734   4.584  0.8791 -0.4442 -0.3482
10166TIP3    H251990   0.209   5.748   4.448  1.4735  0.2208 -0.5727
10167TIP3   OH251991   1.592   1.415  12.902  0.3630  0.4054 -0.1275
10167TIP3    H151992   1.685   1.397  12.887  0.6510  2.8061 -1.7127
10167TIP3    H251993   1.547   1.372  12.829  0.5642  1.7000 -1.0493
10168TIP3   OH251994   4.005   5.462   2.156  0.1500 -0.3039  0.6999
10168TIP3    H151995   4.041   5.390   2.103 -0.0229 -0.8567  1.3169
10168TIP3    H251996   3.967   5.418   2.232 -0.1509  0.4328  0.9778
10169TIP3   OH251997   3.589   5.186   0.081  0.4975  0.3590 -0.2928
10169TIP3    H151998   3.604   5.091   0.083 -1.1255  0.0231 -1.7324
10169TIP3    H251999   3.665   5.223   0.125  1.3253 -1.5935  0.0317
10170TIP3   OH252000   4.884   3.497  15.689 -0.0319  0.9802  0.4547
10170TIP3    H152001   4.980   3.505  15.685  0.0956 -0.1628  0.7083
10170TIP3    H252002   4.869   3.437  15.762 -0.8758  0.0190 -0.4818
10171TIP3   OH252003   5.358   5.979  12.724  0.4093  0.2020 -0.4058
10171TIP3    H152004   5.364   5.899  12.775  0.6428  0.8521  0.6233
10171TIP3    H252005   5.405   6.045  12.776 -1.2469  1.4196 -0.3565
10172TIP3   OH252006   2.429   0.094  13.405  0.0600 -0.1527 -0.8780
10172TIP3    H152007   2.389   0.034  13.468  2.5017 -1.6522 -0.6533
10172TIP3    H252008   2.433   0.178  13.451  0.2186 -0.8068  0.3256
10173TIP3   OH252009   6.175   0.585  13.880  0.5472  0.2422 -0.2831
10173TIP3    H152010   6.143   0.527  13.950  0.9305 -0.4513 -0.6670
10173TIP3    H252011   6.266   0.603  13.903  0.4749  0.5550 -0.2485
10174TIP3   OH252012   4.168   1.806   1.620  0.0786  0.7921  0.4809
10174TIP3    H152013   4.233   1.873   1.599  2.3061 -0.7532  1.9492
10174TIP3    H252014   4.092   1.828   1.566  1.9902  2.3922 -1.7560
10175TIP3   OH252015   1.258   4.311  13.521 -0.3286 -0.4912  0.3462
10175TIP3    H152016   1.323   4.381  13.536 -0.7941  0.0482 -0.1161
10175TIP3    H252017   1.262   4.294  13.427 -1.1336 -0.1652  0.2423
10176TIP3   OH252018   2.241   4.047  10.874 -0.3414  0.0477 -0.3878
10176TIP3    H152019   2.164   4.055  10.819  0.6875  1.5342 -1.6803
10176TIP3    H252020   2.301   4.115  10.843  2.1990 -2.1166 -0.6111
10177TIP3   OH252021   1.478   0.858  13.298  0.6278  0.5064  0.3929
10177TIP3    H152022   1.496   0.839  13.206  1.7345 -0.4549  0.7871
10177TIP3    H252023   1.543   0.924  13.322  0.5531  0.5146  0.5725
10178TIP3   OH252024   1.365   4.436   1.083  0.0185  0.6207 -0.3463
10178TIP3    H152025   1.348   4.463   1.173  0.7761  0.6685 -0.2059
10178TIP3    H252026   1.279   4.434   1.041 -0.2307  1.6032  0.1000
10179TIP3   OH252027   3.113   6.347   1.137 -0.5398  0.0942  0.2978
10179TIP3    H152028   3.132   6.439   1.153 -2.3930  0.2472  1.9375
10179TIP3    H252029   3.165   6.300   1.202  0.6648 -0.0871 -0.7534
10180TIP3   OH252030   6.094   6.478  16.735 -0.2395  0.9029 -0.1460
10180TIP3    H152031   6.126   6.409  16.678 -1.3807 -0.4042  0.7350
10180TIP3    H252032   6.173   6.521  16.768  0.5088 -0.1791 -0.4897
10181TIP3   OH252033   3.604   6.680  14.224  0.1211 -0.5485 -0.3441
10181TIP3    H152034   3.595   6.763  14.178  2.0315 -0.5951 -0.8639
10181TIP3    H252035   3.651   6.623  14.164  2.6912 -0.6231  1.5453
10182TIP3   OH252036   2.782   1.128   2.146 -0.0219  0.0110  0.0369
10182TIP3    H152037   2.706   1.158   2.096  1.4785  0.9969 -1.7818
10182TIP3    H252038   2.744   1.084   2.222 -2.3794  1.6719 -0.0615
10183TIP3   OH252039   5.862   1.041   4.141 -0.3168 -0.5338  0.3669
10183TIP3    H152040   5.785   0.999   4.103 -0.5238  0.0682  0.1200
10183TIP3    H252041   5.926   1.043   4.069  0.5261 -2.4621  0.9856
10184TIP3   OH252042   5.629   3.502  13.416 -0.0070  0.6712 -0.1105
10184TIP3    H152043   5.551   3.557  13.404  0.3181  1.1326 -0.1557
10184TIP3    H252044   5.609   3.421  13.368 -0.6255  0.6188  0.2272
10185TIP3   OH252045   4.187   4.085  10.835  0.2961 -0.6737  0.1009
10185TIP3    H152046   4.150   4.138  10.764  0.9861 -0.1729  0.1047
10185TIP3    H252047   4.125   4.096  10.907  1.2208  1.4598  0.6379
10186TIP3   OH252048   0.581   0.385  15.250 -0.2407  0.4744 -0.9119
10186TIP3    H152049   0.545   0.473  15.243  1.7660  1.5743  1.0566
10186TIP3    H252050   0.632   0.387  15.331 -0.3184 -2.5981 -0.6831
10187TIP3   OH252051   3.537   1.524  11.167  0.2064  0.2663  0.2590
10187TIP3    H152052   3.466   1.495  11.225 -0.0819 -0.2282 -0.3287
10187TIP3    H252053   3.492   1.557  11.089  0.5929  0.8947  0.2974
10188TIP3   OH252054   3.211   1.568  14.053  0.0242 -0.2887 -0.4974
10188TIP3    H152055   3.250   1.482  14.066  0.2565 -0.4245 -1.8658
10188TIP3    H252056   3.122   1.549  14.021  0.4406 -0.0744 -1.8714
10189TIP3   OH252057   3.336   6.569  12.253 -0.5891  0.1749 -0.0309
10189TIP3    H152058   3.295   6.642  12.300 -0.4527  0.0490  0.2881
10189TIP3    H252059   3.398   6.532  12.316  0.4795  0.7495 -0.7120
10190TIP3   OH252060   6.747   0.694   6.598  0.2676  0.0782  0.7152
10190TIP3    H152061   6.838   0.671   6.616 -0.0319 -1.7946  0.0196
10190TIP3    H252062   6.696   0.618   6.625 -1.1613  1.2127  1.3932
10191TIP3   OH252063   6.338   6.015  12.366  0.5332 -0.5837  0.1014
10191TIP3    H152064   6.282   6.000  12.442 -0.0442 -1.5013 -0.4940
10191TIP3    H252065   6.334   5.934  12.316  0.6766  0.0965 -1.0570
10192TIP3   OH252066   3.200   5.158   5.713 -0.1630 -0.1803 -0.1477
10192TIP3    H152067   3.267   5.161   5.782 -0.4189  0.6662  0.0788
10192TIP3    H252068   3.243   5.196   5.636  0.6282 -2.5350 -0.9374
10193TIP3   OH252069   5.512   2.774  14.227 -0.6310 -0.5105  0.8002
10193TIP3    H152070   5.504   2.680  14.240 -0.8112 -0.5925  0.1317
10193TIP3    H252071   5.605   2.788  14.209 -0.8337 -0.7664 -0.5685
10194TIP3   OH252072   2.502   3.623   0.885  0.3435 -0.7016 -0.0610
10194TIP3    H152073   2.516   3.538   0.925  1.0468 -1.5119 -1.9214
10194TIP3    H252074   2.408   3.627   0.868  0.0701 -0.4418  1.3653
10195TIP3   OH252075   2.626   3.764  12.935 -0.1232  0.3678 -1.0346
10195TIP3    H152076   2.719   3.757  12.960 -0.6491 -1.1050  0.7429
10195TIP3    H252077   2.609   3.683  12.887 -0.6737  0.2339 -0.6214
10196TIP3   OH252078   0.355   2.502  12.901  0.0785 -0.2033 -0.1739
10196TIP3    H152079   0.386   2.575  12.955 -0.8285  0.4160 -0.4775
10196TIP3    H252080   0.400   2.512  12.818  0.7448 -0.6029  0.1280
10197TIP3   OH252081   0.843   0.093  13.826  0.4640  0.6608  0.4198
10197TIP3    H152082   0.803   0.170  13.786  2.3935  1.7582  0.5049
10197TIP3    H252083   0.824   0.102  13.920  1.5602  1.6377  0.5743
10198TIP3   OH252084   5.597   5.136  16.538 -0.0171 -0.9861 -0.2887
10198TIP3    H152085   5.664   5.143  16.470 -0.6792  1.5358 -0.7877
10198TIP3    H252086   5.516   5.121  16.489 -0.2890 -0.5625  0.0287
10199TIP3   OH252087   4.649   3.531  15.132 -0.4634 -0.3735  0.0144
10199TIP3    H152088   4.706   3.463  15.096  0.2430 -0.0418  0.4852
10199TIP3    H252089   4.682   3.546  15.220 -1.9351 -0.9108  0.6851
10200TIP3   OH252090   6.008   0.459   2.126 -0.6156 -0.3540  0.1568
10200TIP3    H152091   6.037   0.480   2.037 -0.5014  0.4316  0.3710
10200TIP3    H252092   5.916   0.485   2.127  0.1313  2.6294  1.1595
10201TIP3   OH252093   4.618   6.315  13.944 -0.2058 -0.6204 -0.3292
10201TIP3    H152094   4.619   6.350  14.034  0.0643  0.8993 -0.8999
10201TIP3    H252095   4.705   6.276  13.934  0.2599  0.3953 -0.3617
10202TIP3   OH252096   4.936   3.601  11.708  0.7375 -0.0338 -0.8761
10202TIP3    H152097   4.948   3.643  11.622  1.0998  0.9807 -0.3493
10202TIP3    H252098   4.863   3.648  11.748  0.1225 -0.9614 -0.8923
10203TIP3   OH252099   0.997   3.950   5.853 -0.4885  0.8431  0.3006
10203TIP3    H152100   1.083   3.935   5.892 -1.2570 -0.1547  1.6901
10203TIP3    H252101   0.959   3.862   5.844 -0.2666  0.9507 -3.0341
10204TIP3   OH252102   2.897   6.083   2.878 -0.0779 -0.6554  0.3375
10204TIP3    H152103   2.918   6.175   2.863 -2.7704  0.0863  0.5643
10204TIP3    H252104   2.943   6.061   2.958  0.5558  0.5178  0.3215
10205TIP3   OH252105   2.606   3.260  15.328  0.2117  0.0054 -0.1378
10205TIP3    H152106   2.524   3.215  15.309  2.0095 -2.7454 -2.4214
10205TIP3    H252107   2.602   3.341  15.277 -0.9508 -0.2314 -0.4528
10206TIP3   OH252108   1.287   5.308  11.696  0.5726  0.0449 -0.1367
10206TIP3    H152109   1.242   5.246  11.640 -0.4115  0.2031  0.4628
10206TIP3    H252110   1.262   5.394  11.663  1.3079  0.1465 -0.4695
10207TIP3   OH252111   1.639   0.796  13.907 -0.8412  0.0086  0.2038
10207TIP3    H152112   1.644   0.886  13.938  0.0899  0.5021 -1.2283
10207TIP3    H252113   1.721   0.783  13.859 -0.6039 -1.8646  1.0266
10208TIP3   OH252114   2.893   6.832   2.294  0.8234  0.5847  0.4748
10208TIP3    H152115   2.895   6.824   2.198 -1.3172  0.4779  0.3960
10208TIP3    H252116   2.809   6.874   2.313  1.5128  1.2226  2.2889
10209TIP3   OH252117   5.709   3.042   0.730  0.3238 -0.5437  0.1670
10209TIP3    H152118   5.631   2.988   0.728 -0.6915  0.8422  0.8041
10209TIP3    H252119   5.735   3.051   0.638 -1.1929  0.2501 -0.2202
10210TIP3   OH252120   3.209   2.157  14.860 -0.0715 -0.6028  0.3403
10210TIP3    H152121   3.298   2.150  14.896  0.5521  0.5760 -0.8508
10210TIP3    H252122   3.173   2.069  14.866  0.8450 -0.9152  1.6626
10211TIP3   OH252123   5.010   4.894  11.228 -0.1138  0.0692 -0.1745
10211TIP3    H152124   4.948   4.826  11.252 -0.4895  0.0991 -1.0224
10211TIP3    H252125   5.095   4.861  11.259 -0.5688  0.1481  1.2224
10212TIP3   OH252126   2.475   1.498  15.300 -0.4424 -0.3751  0.1211
10212TIP3    H152127   2.409   1.566  15.318 -0.9536 -0.7523 -0.3069
10212TIP3    H252128   2.462   1.433  15.369 -1.0774 -0.8517 -0.4370
10213TIP3   OH252129   5.517   4.991  10.907 -0.6887 -0.7216  0.6929
10213TIP3    H152130   5.458   5.045  10.854 -1.2816 -0.4291  1.6255
10213TIP3    H252131   5.578   4.953  10.844 -0.8003  0.3501 -0.0935
10214TIP3   OH252132   6.609   2.174   1.622  0.0978  0.0837  0.1880
10214TIP3    H152133   6.643   2.258   1.654 -2.0077  0.7724  0.8308
10214TIP3    H252134   6.550   2.145   1.691  0.5864 -1.8184 -0.1577
10215TIP3   OH252135   5.073   0.043   4.668  0.0075 -0.6624 -0.4343
10215TIP3    H152136   5.040   0.047   4.758  1.7691 -0.8434  0.2619
10215TIP3    H252137   5.049   0.128   4.631  2.4030  0.9683  1.4249
10216TIP3   OH252138   4.454   5.283   5.631  0.3136  0.4373 -0.3909
10216TIP3    H152139   4.496   5.216   5.684  0.6314  0.6736 -0.3376
10216TIP3    H252140   4.514   5.298   5.558  1.2624  2.0968  0.6541
10217TIP3   OH252141   6.044   0.810  15.094 -0.6841 -0.0181  0.2798
10217TIP3    H152142   6.077   0.737  15.145  0.6232 -0.0791 -0.6067
10217TIP3    H252143   6.100   0.813  15.016 -2.3223  0.3417 -0.9472
10218TIP3   OH252144   1.996   5.655  13.339 -0.1711 -0.4321  0.1453
10218TIP3    H152145   2.014   5.627  13.250  0.5397 -1.8939  0.7180
10218TIP3    H252146   1.986   5.574  13.389 -1.0944  0.3543  1.2986
10219TIP3   OH252147   0.542   5.943  13.685 -0.6021 -0.3172 -0.1630
10219TIP3    H152148   0.568   5.860  13.724  0.2273  0.2344  0.5055
10219TIP3    H252149   0.623   5.979  13.648 -1.1630 -0.3046 -1.4184
10220TIP3   OH252150   0.824   5.620  11.057 -0.2687 -0.1090 -0.4037
10220TIP3    H152151   0.733   5.590  11.053 -0.5200  0.7891 -2.9252
10220TIP3    H252152   0.873   5.557  11.005  0.5250 -0.3346  0.5783
10221TIP3   OH252153   3.993   1.962   2.804 -0.0208 -0.5840 -0.1275
10221TIP3    H152154   4.027   1.898   2.741 -0.4548 -0.4887 -0.4602
10221TIP3    H252155   4.068   1.982   2.860  0.6769  0.1196 -1.2698
10222TIP3   OH252156   5.834   1.905  16.332  0.8811 -0.5433  0.3400
10222TIP3    H152157   5.836   1.810  16.316  1.9807 -0.3598 -0.7409
10222TIP3    H252158   5.793   1.913  16.418  2.0356 -2.0884  1.0859
10223TIP3   OH252159   0.046   4.729  11.232  0.0521 -0.0004 -0.2409
10223TIP3    H152160   0.077   4.641  11.209  0.5055  0.3117 -0.8779
10223TIP3    H252161  -0.045   4.716  11.258  0.0426 -0.6301 -0.5525
10224TIP3   OH252162   1.282   0.273  15.786  0.3355  0.1835 -0.7853
10224TIP3    H152163   1.341   0.250  15.715  0.2166  1.8178 -1.4532
10224TIP3    H252164   1.195   0.252  15.752  0.4401 -1.6429 -0.0332
10225TIP3   OH252165   4.334   5.663  14.922 -0.0926 -0.1740  0.1747
10225TIP3    H152166   4.297   5.747  14.895 -1.2755 -0.0823  1.8810
10225TIP3    H252167   4.258   5.611  14.951  0.9489 -0.2707  3.0810
10226TIP3   OH252168   1.756   3.011  10.678 -0.3030  0.1941 -0.2188
10226TIP3    H152169   1.681   2.973  10.633 -0.6717 -0.1306  0.6465
10226TIP3    H252170   1.799   3.066  10.612 -1.9152  1.2353 -0.4338
10227TIP3   OH252171   6.181   5.907   3.039 -0.1155  0.4632  0.3949
10227TIP3    H152172   6.171   5.997   3.006 -0.0772  0.7996  1.2792
10227TIP3    H252173   6.275   5.894   3.047 -0.0464 -0.1963 -1.1421
10228TIP3   OH252174   4.095   3.684  10.516  0.8288 -0.3986 -0.1511
10228TIP3    H152175   4.049   3.737  10.452  0.6713  0.9442  1.0244
10228TIP3    H252176   4.095   3.595  10.479 -1.4233 -0.1709 -0.8388
10229TIP3   OH252177   0.782   5.494  15.931  0.4883  0.3216 -0.3116
10229TIP3    H152178   0.843   5.568  15.936  1.3033 -0.3625  0.0428
10229TIP3    H252179   0.834   5.418  15.954 -0.0163 -0.5585 -1.9507
10230TIP3   OH252180   3.836   4.256   0.995  0.1781  0.5668 -0.0900
10230TIP3    H152181   3.866   4.306   1.071  2.1473  0.4546 -0.7226
10230TIP3    H252182   3.889   4.176   0.997 -0.2374  0.2444 -1.1721
10231TIP3   OH252183   1.110   5.597   6.809  0.1405 -0.1221  0.3553
10231TIP3    H152184   1.054   5.519   6.801  0.0447  0.0312 -0.5155
10231TIP3    H252185   1.072   5.646   6.882  0.0838 -0.7948  0.7841
10232TIP3   OH252186   1.256   3.331  13.047 -0.0660 -0.6326  0.0125
10232TIP3    H152187   1.238   3.418  13.010 -0.6174 -1.0750 -0.8056
10232TIP3    H252188   1.317   3.348  13.119 -1.0533  0.5463  0.6101
10233TIP3   OH252189   3.807   2.627  14.989  0.0508 -0.3010  0.1704
10233TIP3    H152190   3.779   2.565  14.920 -1.6023 -0.1561  0.6659
10233TIP3    H252191   3.824   2.708  14.942 -2.4659  0.2225  0.0057
10234TIP3   OH252192   1.910   5.694   5.338  0.5803 -0.4612  0.6811
10234TIP3    H152193   1.889   5.754   5.410 -3.4124 -0.2564 -0.3879
10234TIP3    H252194   1.950   5.750   5.271 -1.3140  0.7656  0.4697
10235TIP3   OH252195   4.793   3.332  13.990 -0.1206 -0.4696  0.0265
10235TIP3    H152196   4.850   3.353  13.916  1.0338 -2.8408  0.1388
10235TIP3    H252197   4.800   3.407  14.048  1.7820 -0.0712 -0.6496
10236TIP3   OH252198   2.512   1.322  11.566  0.0583  0.3471 -0.0020
10236TIP3    H152199   2.588   1.266  11.580 -0.7244 -0.3186  1.9803
10236TIP3    H252200   2.547   1.401  11.526  1.6325 -0.3268 -0.0256
10237TIP3   OH252201   0.335   0.963   0.394  0.2682  0.5011 -0.6316
10237TIP3    H152202   0.408   0.936   0.449 -0.5838  1.8667  1.2408
10237TIP3    H252203   0.338   1.058   0.394 -0.0690  0.5694 -2.6091
10238TIP3   OH252204   4.730   2.910  11.573 -0.2788  0.3146  0.4272
10238TIP3    H152205   4.668   2.838  11.559  0.2583 -0.0721 -0.0391
10238TIP3    H252206   4.731   2.957  11.489  0.7573 -0.2552  0.0960
10239TIP3   OH252207   2.142   5.467  11.913 -0.8809  0.1574  0.3321
10239TIP3    H152208   2.104   5.471  11.825 -1.4310  2.6086  0.6289
10239TIP3    H252209   2.075   5.503  11.971  0.5049  1.2520  1.3378
10240TIP3   OH252210   2.735   2.535   3.454  0.4374 -0.3605  0.0260
10240TIP3    H152211   2.702   2.622   3.478  3.1621  0.5547  0.8606
10240TIP3    H252212   2.712   2.479   3.528  1.9923  0.6274  1.3387
10241TIP3   OH252213   5.516   1.367  15.366  1.0527 -0.1471  0.1895
10241TIP3    H152214   5.538   1.359  15.273 -0.7973 -1.2081 -0.1979
10241TIP3    H252215   5.576   1.307  15.410 -0.0287 -1.9278 -0.6782
10242TIP3   OH252216   1.730   1.745   5.211  0.4579  0.2190  0.2666
10242TIP3    H152217   1.676   1.684   5.161  2.0264  0.2246 -1.5301
10242TIP3    H252218   1.690   1.831   5.195  0.1031  0.0459  0.2220
10243TIP3   OH252219   2.462   0.956   4.064  0.2351  0.2931 -0.1613
10243TIP3    H152220   2.387   0.925   4.012  1.1661 -1.1282 -0.7334
10243TIP3    H252221   2.436   0.941   4.155  0.3527 -1.5922 -0.3992
10244TIP3   OH252222   0.752   4.681  13.653  0.3210  0.2419 -0.5943
10244TIP3    H152223   0.691   4.755  13.655  0.0079 -0.0149 -0.3340
10244TIP3    H252224   0.821   4.708  13.593  0.2840  0.8019 -0.3875
10245TIP3   OH252225   4.864   6.240  12.353  0.2915  0.4095 -0.0529
10245TIP3    H152226   4.891   6.324  12.391  0.8973 -0.1708  0.8389
10245TIP3    H252227   4.878   6.177  12.423 -1.0293 -0.3063 -0.4133
10246TIP3   OH252228   5.030   4.258   4.518  0.1587  0.2902 -0.1364
10246TIP3    H152229   5.035   4.319   4.444 -0.8789 -1.4601 -1.7607
10246TIP3    H252230   5.038   4.313   4.596  4.7394  1.9579 -1.4565
10247TIP3   OH252231   5.703   5.123   5.608  0.5675 -0.3880 -0.0152
10247TIP3    H152232   5.660   5.161   5.684  1.0048 -0.1326  0.1103
10247TIP3    H252233   5.661   5.165   5.533  0.3938 -0.3605  0.0983
10248TIP3   OH252234   6.588   0.423   4.685 -0.5203 -0.5024  0.1256
10248TIP3    H152235   6.678   0.444   4.710  0.0140 -1.1613 -1.1489
10248TIP3    H252236   6.585   0.327   4.684 -1.8398 -0.5202  2.1548
10249TIP3   OH252237   1.152   2.614   2.989 -0.0970 -0.2483  0.8352
10249TIP3    H152238   1.058   2.625   2.979 -0.2957 -2.1030  0.3742
10249TIP3    H252239   1.190   2.652   2.910 -0.6945 -2.1040 -0.3965
10250TIP3   OH252240   0.148   4.865   3.246  0.3035 -0.2368  0.4587
10250TIP3    H152241   0.152   4.952   3.285 -0.8128  0.6386 -1.2875
10250TIP3    H252242   0.055   4.844   3.242  0.5623 -1.5874  0.9856
10251TIP3   OH252243   5.531   4.219   1.705  0.1948  0.3343  0.3687
10251TIP3    H152244   5.547   4.223   1.611  1.4066  0.9299  0.5776
10251TIP3    H252245   5.446   4.260   1.717  0.1252  0.4425 -0.4533
10252TIP3   OH252246   6.493   2.277  13.373 -0.5009  0.1414  0.1301
10252TIP3    H152247   6.400   2.275  13.394 -0.5632 -0.3558 -0.1652
10252TIP3    H252248   6.501   2.348  13.309 -0.2172  2.0514  2.1526
10253TIP3   OH252249   4.473   2.535  11.487 -0.3672 -0.2193 -0.1946
10253TIP3    H152250   4.515   2.448  11.489  0.0844  0.0029  0.4803
10253TIP3    H252251   4.501   2.576  11.569 -0.1435  0.7671 -0.7611
10254TIP3   OH252252   5.380   2.304  12.153  0.0482  0.6471 -0.3861
10254TIP3    H152253   5.390   2.398  12.166  0.6834  0.4725  0.5378
10254TIP3    H252254   5.371   2.268  12.242  1.2798 -0.3004 -0.6117
10255TIP3   OH252255   3.832   2.188   4.468 -0.1634  0.3154 -0.1970
10255TIP3    H152256   3.744   2.198   4.433 -0.6851  0.0101  0.9782
10255TIP3    H252257   3.833   2.101   4.508  0.8858  0.0383 -0.7673
10256TIP3   OH252258   2.843   0.938  16.154 -0.0549  0.3509 -0.2354
10256TIP3    H152259   2.797   0.982  16.225  1.6853 -0.8329  1.7351
10256TIP3    H252260   2.882   1.009  16.103 -1.1102  1.2183  0.1293
10257TIP3   OH252261   6.849   2.102   5.871  0.4666  0.2653 -0.0486
10257TIP3    H152262   6.810   2.120   5.956 -1.1249 -0.5784 -0.5652
10257TIP3    H252263   6.837   2.008   5.858  1.0612  0.3113 -1.0288
10258TIP3   OH252264   5.630   5.633   2.027  0.4331 -0.0487  0.1356
10258TIP3    H152265   5.652   5.652   1.936 -1.7424  1.6977 -0.1210
10258TIP3    H252266   5.612   5.719   2.065 -2.6363 -1.0014  1.0728
10259TIP3   OH252267   5.673   0.260   3.003 -0.2558 -0.2558  0.9321
10259TIP3    H152268   5.647   0.315   3.077  0.1623  1.5984 -0.2120
10259TIP3    H252269   5.767   0.271   2.996  0.1226 -2.5412  1.6899
10260TIP3   OH252270   0.798   0.449  14.798 -0.5529 -0.5226 -0.1794
10260TIP3    H152271   0.712   0.454  14.757 -0.6124  0.1861  0.0263
10260TIP3    H252272   0.857   0.424  14.726 -1.1036 -2.3231 -0.0641
10261TIP3   OH252273   2.950   3.055  10.356  0.5933 -0.6033 -0.0740
10261TIP3    H152274   3.008   3.052  10.431 -0.9473 -2.4205  1.1350
10261TIP3    H252275   2.947   2.964  10.324  1.0629  0.0819 -2.2555
10262TIP3   OH252276   4.000   4.689   0.977  0.1842 -0.2302 -0.3528
10262TIP3    H152277   3.974   4.777   0.948  0.1191 -0.1648 -0.0995
10262TIP3    H252278   3.983   4.689   1.071  1.9050  0.0972 -0.0180
10263TIP3   OH252279   1.897   4.996  14.520 -0.1158  0.4354 -0.2940
10263TIP3    H152280   1.974   5.006  14.464  0.4856  2.0874  0.7711
10263TIP3    H252281   1.918   4.921  14.575  0.8506  0.9977  0.1337
10264TIP3   OH252282   4.451   5.715  16.758 -0.2003  0.8737  0.5342
10264TIP3    H152283   4.456   5.747  16.668 -1.6125 -0.9411 -0.2533
10264TIP3    H252284   4.431   5.793  16.810  0.5520  1.9410 -0.7033
10265TIP3   OH252285   3.451   4.803   0.510 -0.1238 -0.1060 -0.1626
10265TIP3    H152286   3.392   4.843   0.574 -1.6382 -0.2071 -1.4348
10265TIP3    H252287   3.484   4.877   0.459 -0.7007 -0.1989 -0.6898
10266TIP3   OH252288   2.188   4.189   4.904  0.2720  0.2325  0.1240
10266TIP3    H152289   2.238   4.107   4.907  1.1201  0.7421  0.4641
10266TIP3    H252290   2.136   4.188   4.984  1.0089  0.4580  0.6158
10267TIP3   OH252291   3.048   0.886   3.900  0.1090 -0.4402 -0.0305
10267TIP3    H152292   3.049   0.864   3.993  1.7126 -0.4110 -0.0054
10267TIP3    H252293   2.995   0.965   3.894 -1.2852 -1.2961  0.6226
10268TIP3   OH252294   0.431   3.780  12.564 -0.3384  0.5375 -0.4115
10268TIP3    H152295   0.348   3.814  12.531 -0.7293 -1.9565 -2.2064
10268TIP3    H252296   0.493   3.792  12.491  0.8349  1.9139  0.7287
10269TIP3   OH252297   5.101   2.836  16.834  0.2370  0.2109 -0.1647
10269TIP3    H152298   5.125   2.759  16.887  0.2082  0.5876  0.4019
10269TIP3    H252299   5.181   2.859  16.787  0.7875  0.9896  1.1220
10270TIP3   OH252300   5.401   1.446   1.227 -0.2053  0.2682  0.2221
10270TIP3    H152301   5.495   1.430   1.234  0.7530  4.5024 -0.4839
10270TIP3    H252302   5.369   1.443   1.317  0.7932 -0.2511  0.5738
10271TIP3   OH252303   5.049   4.923   2.867 -0.2760  0.2828 -0.7079
10271TIP3    H152304   5.037   4.961   2.954 -1.3439  0.2931 -0.8526
10271TIP3    H252305   5.075   4.832   2.885 -0.3312  0.3303 -0.3831
10272TIP3   OH252306   5.152   1.746  16.193  0.6566  0.1256 -0.3886
10272TIP3    H152307   5.147   1.651  16.204 -1.0112 -0.1615 -2.8069
10272TIP3    H252308   5.215   1.775  16.259  1.9190 -2.7449 -0.2043
10273TIP3   OH252309   4.555   3.703   0.238  0.9079  0.0116  0.1522
10273TIP3    H152310   4.477   3.735   0.192  0.9382  0.4154  0.3841
10273TIP3    H252311   4.570   3.766   0.308  1.7349  0.2044 -0.1883
10274TIP3   OH252312   2.968   2.934   6.209  0.6154  0.6137  1.1325
10274TIP3    H152313   2.954   2.914   6.117 -2.3590 -0.7411  1.7530
10274TIP3    H252314   3.013   2.856   6.244  0.2710  0.4085  1.1247
10275TIP3   OH252315   2.562   0.556  10.874 -0.5131  0.1357 -0.2274
10275TIP3    H152316   2.514   0.536  10.793 -1.8379 -0.8428  0.7580
10275TIP3    H252317   2.654   0.540  10.851 -0.8606 -0.1316 -1.5412
10276TIP3   OH252318   1.418   3.155   0.103 -0.3055 -0.6298  0.0712
10276TIP3    H152319   1.396   3.178   0.013  0.0267 -1.1846 -0.1585
10276TIP3    H252320   1.479   3.224   0.131 -2.1913  0.8925  0.6987
10277TIP3   OH252321   5.055   4.157   2.604  0.8076 -0.4874  0.0007
10277TIP3    H152322   5.108   4.208   2.664 -0.5794  0.8013  0.1884
10277TIP3    H252323   5.058   4.206   2.522 -0.8608  0.1456  0.2943
10278TIP3   OH252324   2.105   3.413   5.023  0.0327  0.0083 -0.6260
10278TIP3    H152325   2.046   3.380   5.091 -0.5634  0.2854 -0.9959
10278TIP3    H252326   2.051   3.474   4.973 -0.3960 -2.2370 -3.0900
10279TIP3   OH252327   6.772   5.834  13.037  0.0704 -0.3641  0.5162
10279TIP3    H152328   6.861   5.867  13.050  0.2787 -0.4657 -0.5063
10279TIP3    H252329   6.748   5.865  12.950 -0.1767 -1.8919  0.0005
10280TIP3   OH252330   2.470   6.462   1.275  0.6770 -0.6606 -0.7418
10280TIP3    H152331   2.555   6.473   1.318  1.6847 -2.6009 -2.0810
10280TIP3    H252332   2.456   6.367   1.273 -1.3095 -0.4050 -0.9732
10281TIP3   OH252333   6.053   2.179   2.653 -0.0349 -0.2801  0.3314
10281TIP3    H152334   6.143   2.158   2.628 -0.2947 -0.5533 -0.4216
10281TIP3    H252335   6.000   2.111   2.611 -0.6144  0.0339  0.5404
10282TIP3   OH252336   3.660   2.082  13.300  0.8847  0.1460  0.1263
10282TIP3    H152337   3.754   2.095  13.313  1.2123 -0.8819 -1.0385
10282TIP3    H252338   3.620   2.164  13.331  1.9732 -0.0760  2.3741
10283TIP3   OH252339   5.482   3.920  13.443  0.2926 -0.4165  0.0980
10283TIP3    H152340   5.550   3.877  13.495 -0.5044 -1.5052  0.2796
10283TIP3    H252341   5.414   3.943  13.506 -0.2367 -0.8344 -0.3084
10284TIP3   OH252342   3.576   1.018   2.663  0.4381 -0.4605  0.3610
10284TIP3    H152343   3.634   0.956   2.708 -0.9023 -0.4608  2.1748
10284TIP3    H252344   3.540   0.967   2.590  0.1252 -1.5412  1.2320
10285TIP3   OH252345   1.420   1.858  13.757  0.3172 -0.1911  0.0367
10285TIP3    H152346   1.382   1.899  13.835  0.0803  1.5685 -0.9603
10285TIP3    H252347   1.466   1.781  13.791 -0.7002 -0.0873  1.7713
10286TIP3   OH252348   4.681   2.196   2.271  0.3646  0.1956 -0.0482
10286TIP3    H152349   4.586   2.189   2.261  0.4455  0.6226 -1.1891
10286TIP3    H252350   4.702   2.286   2.249  0.9334  0.4147  1.2599
10287TIP3   OH252351   0.752   4.221  13.741  0.1147  0.7112  0.4854
10287TIP3    H152352   0.659   4.219  13.719  0.7569  1.5138 -2.7916
10287TIP3    H252353   0.796   4.186  13.663  2.5608 -0.0715  2.1087
10288TIP3   OH252354   0.047   3.998  12.666 -0.4994  0.6539 -0.3096
10288TIP3    H152355  -0.041   3.971  12.638 -0.1324 -1.5340  0.4651
10288TIP3    H252356   0.095   4.010  12.584 -0.4382 -2.1618 -0.7862
10289TIP3   OH252357   3.659   0.632  11.161 -0.3088 -0.1678  0.1910
10289TIP3    H152358   3.601   0.655  11.234 -1.1915 -0.1126 -0.5086
10289TIP3    H252359   3.673   0.715  11.114 -0.0892 -0.2819  0.0512
10290TIP3   OH252360   6.649   3.435   1.814 -0.4049  0.0912  0.0483
10290TIP3    H152361   6.605   3.389   1.885 -1.0812 -1.6631 -1.4507
10290TIP3    H252362   6.579   3.466   1.757  0.1503  0.8663 -0.2373
10291TIP3   OH252363   0.905   2.060   1.137 -0.0302  0.1339 -0.3971
10291TIP3    H152364   0.979   2.100   1.092  1.2504 -1.2471  0.3616
10291TIP3    H252365   0.887   1.980   1.087  1.2075 -1.2585  1.2311
10292TIP3   OH252366   1.422   3.859   2.841 -0.1909  0.3946  0.3039
10292TIP3    H152367   1.370   3.882   2.918 -0.5959 -1.6136  0.6922
10292TIP3    H252368   1.500   3.815   2.877 -0.6693 -1.1155 -0.4019
10293TIP3   OH252369   4.130   4.391   0.252  0.8602 -0.2407 -0.2576
10293TIP3    H152370   4.043   4.423   0.272  1.2662  0.2890  0.7149
10293TIP3    H252371   4.116   4.322   0.187 -0.3948 -1.1039  0.8809
10294TIP3   OH252372   6.496   0.780  13.067  0.0831  0.0917  0.4207
10294TIP3    H152373   6.585   0.813  13.054  0.2830 -1.1170 -2.0110
10294TIP3    H252374   6.462   0.770  12.978 -2.3079 -0.0129  1.2821
10295TIP3   OH252375   0.923   2.850  10.840 -0.1371  0.1007 -0.0421
10295TIP3    H152376   0.982   2.775  10.836 -0.2063  0.0796 -1.9907
10295TIP3    H252377   0.938   2.896  10.757 -1.2071  1.3666  0.4388
10296TIP3   OH252378   6.207   6.607  13.325 -0.0536  0.0887  0.1860
10296TIP3    H152379   6.114   6.604  13.348 -0.0305 -2.2548  0.1477
10296TIP3    H252380   6.209   6.611  13.230 -0.1029  0.5885  0.2028
10297TIP3   OH252381   2.523   2.995   2.253 -0.5218  0.3106  0.5965
10297TIP3    H152382   2.483   3.049   2.185 -0.4031 -0.8516 -0.4378
10297TIP3    H252383   2.450   2.945   2.290 -0.4419  0.2194  0.6313
10298TIP3   OH252384   1.441   5.790  12.777  0.7148 -0.4037  0.2425
10298TIP3    H152385   1.387   5.763  12.703 -0.8985  0.6678  0.9866
10298TIP3    H252386   1.384   5.780  12.853  1.3764  1.2530  0.9951
10299TIP3   OH252387   2.017   4.897   4.550 -0.0544  0.0401  0.0035
10299TIP3    H152388   1.988   4.852   4.629 -0.7323  0.7169  0.1522
10299TIP3    H252389   2.110   4.875   4.543  0.2217  0.6071  1.4435
10300TIP3   OH252390   4.928   2.822  14.874  0.7627  0.1517 -0.8239
10300TIP3    H152391   4.917   2.916  14.886  2.6633  0.6723 -2.4891
10300TIP3    H252392   4.981   2.814  14.794 -0.8789 -2.4010 -1.7988
10301TIP3   OH252393   4.381   3.262  15.620 -0.1430 -0.2134  0.3649
10301TIP3    H152394   4.434   3.215  15.684  3.1019  1.6989 -0.6760
10301TIP3    H252395   4.343   3.194  15.565  1.2645 -1.7096  1.1702
10302TIP3   OH252396   2.318   0.038  16.625  0.8714 -0.5987  0.3216
10302TIP3    H152397   2.251   0.003  16.683 -0.9417  0.3800 -1.0796
10302TIP3    H252398   2.340  -0.035  16.566 -3.4725  0.4126 -3.1159
10303TIP3   OH252399   5.920   1.923   3.985 -0.0695  0.0638 -0.1452
10303TIP3    H152400   5.827   1.944   3.980  0.0869  1.1038  0.9243
10303TIP3    H252401   5.962   1.988   3.929 -0.1143 -1.7808 -2.4956
10304TIP3   OH252402   1.625   6.473   0.065 -0.0477 -0.2831 -0.2880
10304TIP3    H152403   1.670   6.423  -0.003  0.1403  0.4179 -0.6940
10304TIP3    H252404   1.542   6.499   0.025 -1.4623 -2.6498  0.8843
10305TIP3   OH252405   0.312   0.306  11.587 -0.5023 -0.8021  0.2392
10305TIP3    H152406   0.296   0.293  11.494 -0.5588  0.7768  0.0008
10305TIP3    H252407   0.254   0.378  11.611  1.1467  0.3218  0.9802
10306TIP3   OH252408   6.830   3.570  15.934 -0.1517  0.3206 -0.6662
10306TIP3    H152409   6.811   3.550  15.842 -2.9347 -0.5034  0.0193
10306TIP3    H252410   6.745   3.585  15.974  1.0273  1.1703  1.7068
10307TIP3   OH252411   0.300   2.032  12.756 -0.3230 -0.5315  0.1586
10307TIP3    H152412   0.312   2.029  12.851 -0.5745  0.4875  0.2372
10307TIP3    H252413   0.306   2.125  12.735  1.5784 -0.8824 -1.0705
10308TIP3   OH252414   0.721   4.776   1.251  0.1753 -0.4732  0.6685
10308TIP3    H152415   0.736   4.757   1.344 -0.3801 -4.2056  0.1383
10308TIP3    H252416   0.798   4.740   1.207 -0.4423 -0.4425 -0.4609
10309TIP3   OH252417   1.097   3.012   2.781 -0.4231 -0.3868  0.0183
10309TIP3    H152418   1.099   3.107   2.770 -0.5576 -0.2439  1.0673
10309TIP3    H252419   1.153   2.997   2.858 -2.8419 -0.8291  1.7992
10310TIP3   OH252420   2.638   2.091   3.880  0.1266 -0.1451  0.3118
10310TIP3    H152421   2.590   2.172   3.863  0.4180 -0.1586 -0.6612
10310TIP3    H252422   2.600   2.057   3.961 -1.0750  0.1688 -0.0940
10311TIP3   OH252423   5.865   6.779   2.661 -0.4150  0.0455 -0.3816
10311TIP3    H152424   5.931   6.812   2.721 -0.9661  1.4234 -0.5059
10311TIP3    H252425   5.914   6.751   2.584  0.3703 -2.3568  0.9029
10312TIP3   OH252426   4.550   4.893  13.315  0.1012 -0.3474  0.0856
10312TIP3    H152427   4.545   4.980  13.354 -0.9435 -0.4658  0.2556
10312TIP3    H252428   4.641   4.867  13.325  0.1458  0.1837  1.2311
10313TIP3   OH252429   1.069   1.095   0.989  0.3915  0.1188 -0.2013
10313TIP3    H152430   1.051   1.100   0.895  0.7009  0.2529 -0.2526
10313TIP3    H252431   1.126   1.170   1.006 -0.4785  0.6884  0.2749
10314TIP3   OH252432   0.242   2.361  11.788  0.2901 -0.3707 -0.1631
10314TIP3    H152433   0.222   2.446  11.749  3.1023 -0.0173 -1.0827
10314TIP3    H252434   0.193   2.298  11.736 -1.2832  0.5832  0.0950
10315TIP3   OH252435   6.763   4.909   4.393 -0.1936  0.3447  0.0107
10315TIP3    H152436   6.838   4.962   4.418  0.2233 -0.9992  1.8797
10315TIP3    H252437   6.719   4.890   4.476  0.1328 -2.7917 -0.3900
10316TIP3   OH252438   0.520   3.348  15.920 -0.0806  0.1032  0.1306
10316TIP3    H152439   0.538   3.410  15.990 -1.0981  0.4356  0.1125
10316TIP3    H252440   0.538   3.397  15.840  0.1342  0.0382  0.1393
10317TIP3   OH252441   1.507   1.744   4.516  0.0191 -0.0857  0.1958
10317TIP3    H152442   1.448   1.682   4.472 -0.7892  1.2777 -0.7206
10317TIP3    H252443   1.519   1.707   4.604 -0.6400 -1.3979 -0.2346
10318TIP3   OH252444   4.072   4.160   1.567 -0.6456 -1.1021 -0.3459
10318TIP3    H152445   4.157   4.197   1.591 -0.6014 -1.2892 -0.2068
10318TIP3    H252446   4.054   4.096   1.636 -0.9414 -1.0002 -0.3285
10319TIP3   OH252447   6.123   2.816  11.388 -0.4683  0.3835  0.2018
10319TIP3    H152448   6.183   2.881  11.352 -0.9553  1.0027  0.4790
10319TIP3    H252449   6.178   2.741  11.408  0.2147  0.9383  0.4622
10320TIP3   OH252450   1.677   3.835   5.022  0.2684  0.2490 -0.4035
10320TIP3    H152451   1.661   3.891   5.098  0.6340 -2.3664  1.7483
10320TIP3    H252452   1.622   3.872   4.953  0.2732  3.0121  0.9322
10321TIP3   OH252453   3.463   4.613  10.439 -0.2021  0.5333  0.0187
10321TIP3    H152454   3.419   4.698  10.436 -2.9252 -0.7869 -1.0379
10321TIP3    H252455   3.483   4.600  10.532 -3.5427  0.6194  0.8881
10322TIP3   OH252456   2.060   0.634  16.557  0.1847  0.3755 -0.0350
10322TIP3    H152457   2.079   0.674  16.472  2.2842  1.1069  0.7326
10322TIP3    H252458   2.022   0.705  16.609  0.2409  0.3203  0.0831
10323TIP3   OH252459   5.095   5.141  12.755 -0.2432  0.1002 -0.3792
10323TIP3    H152460   5.064   5.146  12.665 -0.5764  0.1888 -0.2638
10323TIP3    H252461   5.113   5.048  12.769  0.6588  0.2012 -0.8111
10324TIP3   OH252462   2.202   0.786   5.270  0.2426 -0.3038 -0.1499
10324TIP3    H152463   2.191   0.772   5.364  0.2111  1.1531  0.0877
10324TIP3    H252464   2.140   0.725   5.229  1.3152 -2.0546  0.6793
10325TIP3   OH252465   1.161   2.179  13.678 -0.1351  0.5227  0.1418
10325TIP3    H152466   1.149   2.102  13.734  1.1609  0.9666  1.0892
10325TIP3    H252467   1.075   2.220  13.675 -0.6182 -0.4364  0.4256
10326TIP3   OH252468   2.419   0.744   4.675 -0.1673  0.1410  0.3119
10326TIP3    H152469   2.483   0.805   4.712  0.8531 -1.2161  0.8586
10326TIP3    H252470   2.379   0.702   4.752 -0.5146 -0.2214 -0.0647
10327TIP3   OH252471   5.980   3.917   3.285 -0.2060 -0.6885 -0.2980
10327TIP3    H152472   5.902   3.962   3.251  0.0459 -0.4351 -0.5445
10327TIP3    H252473   5.967   3.917   3.380 -0.4988 -0.6340 -0.3354
10328TIP3   OH252474   0.519   2.722   2.079  0.0921  0.8172 -1.3952
10328TIP3    H152475   0.542   2.807   2.114 -0.4309  0.8373 -1.0833
10328TIP3    H252476   0.557   2.721   1.991  0.9322  0.9857 -1.0476
10329TIP3   OH252477   4.266   5.953   0.433  0.2259  0.2324 -0.0626
10329TIP3    H152478   4.253   6.007   0.356 -1.0086 -0.4045 -0.3190
10329TIP3    H252479   4.214   5.996   0.502 -0.6370 -0.5105 -0.2292
10330TIP3   OH252480   3.750   1.443   6.028 -0.2177 -0.0458  0.1620
10330TIP3    H152481   3.705   1.470   5.947 -0.3242  0.9530  0.5468
10330TIP3    H252482   3.774   1.352   6.012  0.4439  0.3486 -1.3074
10331TIP3   OH252483   6.222   0.571   4.073 -0.0183 -0.5923  0.2999
10331TIP3    H152484   6.309   0.533   4.084  0.7394  1.4213  1.9482
10331TIP3    H252485   6.182   0.565   4.160  0.1939  2.2547  0.7133
10332TIP3   OH252486   4.581   1.381   4.507  0.2383  0.5720  0.8017
10332TIP3    H152487   4.613   1.293   4.525  0.9147  0.5219 -0.5160
10332TIP3    H252488   4.521   1.401   4.580 -0.3407 -1.1680  0.8379
10333TIP3   OH252489   4.755   5.840   6.471 -0.1892 -0.5038 -0.4101
10333TIP3    H152490   4.796   5.779   6.410  1.2582  1.1197 -1.1590
10333TIP3    H252491   4.796   5.924   6.452 -1.3717  0.5204  1.2614
10334TIP3   OH252492   6.397   3.065  17.028  0.4679  0.4279 -0.4726
10334TIP3    H152493   6.402   3.156  16.999 -0.5112  0.6478 -0.0041
10334TIP3    H252494   6.353   3.019  16.957  0.0634  0.5265 -0.2894
10335TIP3   OH252495   1.079   5.714  15.108  0.0788  0.0239 -0.0701
10335TIP3    H152496   1.074   5.654  15.182 -1.8063 -0.6883 -0.7213
10335TIP3    H252497   1.117   5.662  15.037  1.5888  0.6129  0.2779
10336TIP3   OH252498   4.436   6.197   2.738 -0.1664 -0.0970 -0.7169
10336TIP3    H152499   4.405   6.111   2.710 -0.9474  0.7087 -2.4372
10336TIP3    H252500   4.531   6.188   2.742 -0.2395 -1.0394 -0.8031
10337TIP3   OH252501   6.220   1.046  16.405  0.2462  0.1824 -0.5712
10337TIP3    H152502   6.216   1.073  16.497  0.3746 -0.6121 -0.3215
10337TIP3    H252503   6.128   1.035  16.379  0.2427 -0.9112 -0.1261
10338TIP3   OH252504   3.593   0.298   5.181 -0.4710 -0.0325  0.1399
10338TIP3    H152505   3.558   0.374   5.134  0.4020 -0.4645 -1.2762
10338TIP3    H252506   3.588   0.226   5.118  2.6373 -0.1806 -0.1093
10339TIP3   OH252507   3.746   4.519   3.786  0.1181 -0.0156  0.3692
10339TIP3    H152508   3.664   4.493   3.744 -1.0016 -0.9893  2.9727
10339TIP3    H252509   3.759   4.610   3.758 -1.2000 -0.2151 -1.0244
10340TIP3   OH252510   1.430   5.316   3.991  0.4686  0.1358  0.4862
10340TIP3    H152511   1.347   5.288   4.028  0.4955 -0.2180  0.2851
10340TIP3    H252512   1.420   5.302   3.897  1.4527 -1.8391  0.6139
10341TIP3   OH252513   1.334   1.137  10.611  0.1433  0.2316  0.2515
10341TIP3    H152514   1.243   1.111  10.622  0.5486 -2.1994 -1.3021
10341TIP3    H252515   1.379   1.097  10.686  0.1399  0.1868  0.2294
10342TIP3   OH252516   3.465   4.229  16.964 -0.7119  0.2013 -0.1368
10342TIP3    H152517   3.373   4.255  16.970 -1.1348 -1.2054 -0.1980
10342TIP3    H252518   3.507   4.303  16.920 -1.3307  1.9168  1.9670
10343TIP3   OH252519   5.853   6.696   0.079  0.2213 -0.2558  0.1429
10343TIP3    H152520   5.771   6.744   0.065 -1.7008 -3.0368  1.1403
10343TIP3    H252521   5.897   6.744   0.148 -1.2910  0.4795  0.6501
10344TIP3   OH252522   5.875   3.298   3.145  0.0253 -0.5252  0.2696
10344TIP3    H152523   5.789   3.277   3.108 -0.0858 -0.4517  0.4805
10344TIP3    H252524   5.928   3.220   3.128 -0.6629 -1.4117  1.8965
10345TIP3   OH252525   0.475   6.111  10.401  0.1863 -0.6393 -0.2181
10345TIP3    H152526   0.570   6.120  10.393  0.3313 -2.3164 -0.7697
10345TIP3    H252527   0.452   6.041  10.340 -0.7497 -3.4805  3.0358
10346TIP3   OH252528   2.601   5.965   1.736  0.1848 -0.0869 -0.0816
10346TIP3    H152529   2.548   5.920   1.670  0.3196 -2.4506  1.3306
10346TIP3    H252530   2.536   6.003   1.796  0.0865  0.7428 -0.6913
10347TIP3   OH252531   2.676   2.051   1.796  0.3992  0.1196 -0.1716
10347TIP3    H152532   2.618   1.975   1.784 -0.0908  0.2197  1.3158
10347TIP3    H252533   2.758   2.026   1.754  0.2311 -1.2361  0.2676
10348TIP3   OH252534   6.578   6.686   2.111  0.3963  0.2474 -0.0145
10348TIP3    H152535   6.512   6.749   2.082 -1.0350 -0.6983  1.0559
10348TIP3    H252536   6.622   6.659   2.031 -0.2887  1.1506 -0.7198
10349TIP3   OH252537   4.991   6.660   3.919  0.3919 -0.0711  0.1313
10349TIP3    H152538   5.042   6.718   3.976 -0.2121  0.7313 -0.1261
10349TIP3    H252539   4.923   6.716   3.883  0.6073 -0.6270 -1.1928
10350TIP3   OH252540   2.373   5.839  11.743 -0.0259 -0.3203  0.3650
10350TIP3    H152541   2.354   5.842  11.837  1.2616  0.1744  0.6317
10350TIP3    H252542   2.367   5.930  11.714  0.8834 -0.2854  0.2570
10351TIP3   OH252543   3.055   5.620   4.055 -0.1610 -0.1192 -0.0064
10351TIP3    H152544   3.030   5.528   4.053  0.4061 -0.2761 -1.6759
10351TIP3    H252545   2.973   5.668   4.043 -0.4617 -0.3976  0.9010
10352TIP3   OH252546   0.087   1.707  12.898  0.3285 -0.6390  0.0247
10352TIP3    H152547   0.066   1.619  12.866 -0.7055 -0.5166  0.3439
10352TIP3    H252548   0.048   1.766  12.834 -0.1726 -0.4102  0.5348
10353TIP3   OH252549   1.546   1.240   6.479 -0.1416  0.5941  0.8632
10353TIP3    H152550   1.561   1.174   6.411  1.7752  0.4336  1.3853
10353TIP3    H252551   1.495   1.308   6.436  1.2679  0.6247 -0.8466
10354TIP3   OH252552   5.506   5.263   3.067  0.1299 -0.0324  0.1025
10354TIP3    H152553   5.590   5.242   3.107  0.7588 -0.2797 -1.2986
10354TIP3    H252554   5.494   5.197   2.999  0.7006  2.2122 -2.3595
10355TIP3   OH252555   2.565   4.759   4.621 -0.0866 -0.3820 -0.9504
10355TIP3    H152556   2.603   4.756   4.534 -1.3689 -0.9684 -1.5138
10355TIP3    H252557   2.492   4.698   4.618 -0.3862 -0.1369  0.4242
10356TIP3   OH252558   6.039   3.996  13.922  0.0715 -0.9065 -0.2421
10356TIP3    H152559   6.073   3.982  13.833 -0.6163  1.8295 -1.0323
10356TIP3    H252560   6.063   4.086  13.943 -0.0062 -1.3969  2.3030
10357TIP3   OH252561   5.529   5.121   1.693 -0.5925 -0.4694  0.2650
10357TIP3    H152562   5.501   5.056   1.758 -0.0719 -0.0457  0.9210
10357TIP3    H252563   5.482   5.201   1.717 -0.0281 -0.1807  0.4160
10358TIP3   OH252564   5.147   6.048   0.252 -0.2185 -0.3313  0.6110
10358TIP3    H152565   5.182   6.041   0.163  1.4500  1.1599  1.1044
10358TIP3    H252566   5.109   6.135   0.257 -2.7936 -1.3538  0.5820
10359TIP3   OH252567   3.799   2.598  16.343  0.2771  0.1144  0.2151
10359TIP3    H152568   3.727   2.660  16.354  0.4890  0.7111 -1.4235
10359TIP3    H252569   3.760   2.512  16.358 -0.7474  0.4430 -0.5215
10360TIP3   OH252570   2.689   2.320  10.750  0.0190 -0.2644  0.4231
10360TIP3    H152571   2.778   2.347  10.729 -0.0326 -0.2283  0.2473
10360TIP3    H252572   2.670   2.362  10.833  0.3104 -0.5981  0.6604
10361TIP3   OH252573   6.116   2.303   1.960 -0.2714  0.4015 -0.0226
10361TIP3    H152574   6.116   2.288   1.865  0.6481  1.6796 -0.2526
10361TIP3    H252575   6.095   2.396   1.969  1.2092  0.6675  0.9378
10362TIP3   OH252576   3.697   5.299   4.730  0.6110 -0.3061 -0.2346
10362TIP3    H152577   3.688   5.344   4.815  0.9271 -1.1114  0.2344
10362TIP3    H252578   3.779   5.334   4.694  0.9612 -0.6306  0.2208
10363TIP3   OH252579   0.758   1.490  16.705  0.1124 -0.3837 -0.0761
10363TIP3    H152580   0.751   1.583  16.726  1.1358  0.1106 -1.7222
10363TIP3    H252581   0.668   1.459  16.701 -0.2281  0.4127  0.9192
10364TIP3   OH252582   2.273   0.092  11.342 -0.0627  0.3812  0.0979
10364TIP3    H152583   2.355   0.045  11.350  1.0532  2.1926 -0.1650
10364TIP3    H252584   2.251   0.119  11.431 -0.5955 -0.4067  0.2196
10365TIP3   OH252585   0.005   6.786  11.690 -0.4401 -0.2312 -0.1300
10365TIP3    H152586   0.027   6.837  11.612 -0.1144 -1.4356 -0.8408
10365TIP3    H252587   0.054   6.704  11.681 -1.3730 -0.9133  0.7126
10366TIP3   OH252588   5.592   1.107  16.019 -0.1023 -0.3295 -0.2533
10366TIP3    H152589   5.555   1.130  15.934 -1.1120  1.1566  0.5560
10366TIP3    H252590   5.609   1.190  16.062  0.0824 -1.0485  1.1368
10367TIP3   OH252591   0.618   3.779   2.173  0.2981  0.1750  0.0072
10367TIP3    H152592   0.671   3.807   2.098 -0.2073  1.1393 -0.0103
10367TIP3    H252593   0.560   3.853   2.190  0.2348 -0.1285  1.2042
10368TIP3   OH252594   6.247   1.158   4.141 -0.3960  0.2511 -0.5101
10368TIP3    H152595   6.254   1.253   4.137  0.1590  0.4999  3.0062
10368TIP3    H252596   6.166   1.137   4.095  0.7309  2.0491 -3.6330
10369TIP3   OH252597   5.446   1.381  16.502 -0.1045 -0.0628 -0.0532
10369TIP3    H152598   5.512   1.328  16.459 -0.7757  0.0390 -1.2307
10369TIP3    H252599   5.494   1.459  16.533  0.0924  0.7307 -2.1966
10370TIP3   OH252600   0.577   6.409  10.849  0.1558  0.3368  0.3188
10370TIP3    H152601   0.548   6.471  10.782  2.0618  0.7468 -0.1616
10370TIP3    H252602   0.551   6.323  10.815  0.2117  0.6221 -0.4531
10371TIP3   OH252603   1.448   2.594  16.916  0.1552 -0.2292 -0.0882
10371TIP3    H152604   1.542   2.608  16.924 -0.1287  0.7686  2.8876
10371TIP3    H252605   1.428   2.612  16.824  2.5905  1.4431 -0.3759
10372TIP3   OH252606   3.757   2.123   0.057  0.2696 -0.3380  1.0565
10372TIP3    H152607   3.804   2.134  -0.026  0.0739 -2.4545  0.5902
10372TIP3    H252608   3.667   2.148   0.037 -0.0420 -1.9587  0.2416
10373TIP3   OH252609   5.002   6.030   2.537 -0.0204  0.2902 -0.2975
10373TIP3    H152610   5.079   6.060   2.489 -0.9684  3.5429 -0.0427
10373TIP3    H252611   5.019   5.937   2.555  3.6292  0.7498 -0.5839
10374TIP3   OH252612   4.161   6.221   4.505 -0.4163 -0.2016 -0.3709
10374TIP3    H152613   4.172   6.166   4.428  1.6941 -0.2279 -0.1133
10374TIP3    H252614   4.243   6.211   4.554  0.0916  3.0818 -0.2933
10375TIP3   OH252615   2.221   4.703  10.917  0.3374  0.3819 -0.3044
10375TIP3    H152616   2.208   4.670  11.005 -0.8534  1.4485 -0.0580
10375TIP3    H252617   2.219   4.798  10.926  0.2139  0.5074 -1.4713
10376TIP3   OH252618   5.393   6.074   0.694  0.0805 -0.2328 -0.2397
10376TIP3    H152619   5.327   6.042   0.632 -0.2635  0.5843 -0.3032
10376TIP3    H252620   5.402   6.003   0.758 -0.4181 -0.5965 -0.5620
10377TIP3   OH252621   0.089   0.710   3.118 -0.3759  0.2912 -0.0059
10377TIP3    H152622   0.030   0.738   3.188 -0.8120 -2.1871  0.7547
10377TIP3    H252623   0.169   0.761   3.132 -1.0714  1.1004  1.2192
10378TIP3   OH252624   0.803   5.171  14.092  0.6523 -0.3723 -0.2261
10378TIP3    H152625   0.854   5.189  14.013  0.6730  1.4470  0.1647
10378TIP3    H252626   0.714   5.153  14.061  0.4991  1.0297 -0.6360
10379TIP3   OH252627   5.306   2.250   2.240 -0.2716 -0.1248  0.0896
10379TIP3    H152628   5.264   2.251   2.154  2.1964 -0.6987 -1.2266
10379TIP3    H252629   5.376   2.315   2.233 -0.5146  0.3856  1.9664
10380TIP3   OH252630   3.813   2.366   2.813 -0.4973  0.2176 -0.7405
10380TIP3    H152631   3.834   2.402   2.726 -0.6411  0.9876 -0.4697
10380TIP3    H252632   3.853   2.428   2.874  1.5224 -1.4672 -0.2286
10381TIP3   OH252633   0.866   5.008  14.317  0.1205 -0.2203  0.1241
10381TIP3    H152634   0.913   5.076  14.365  1.2276 -0.2045 -0.9397
10381TIP3    H252635   0.819   5.054  14.248 -1.9900 -0.1723  1.5332
10382TIP3   OH252636   5.535   2.311  15.056  0.0126  0.1105 -0.0601
10382TIP3    H152637   5.548   2.363  15.135  2.1910  1.2062 -1.0416
10382TIP3    H252638   5.619   2.318  15.009  0.3566 -4.0294 -0.4289
10383TIP3   OH252639   1.157   3.836   2.679  0.0913 -0.4972 -0.1455
10383TIP3    H152640   1.137   3.929   2.685 -0.9047 -0.8003  2.5481
10383TIP3    H252641   1.251   3.830   2.698 -0.4237 -0.1875  3.1036
10384TIP3   OH252642   5.467   0.577   3.134  0.5170  0.3131 -0.4293
10384TIP3    H152643   5.388   0.555   3.184 -0.1301  0.5959 -1.3083
10384TIP3    H252644   5.526   0.503   3.148 -1.0441 -1.3487 -2.1290
10385TIP3   OH252645   2.512   0.342  15.376  1.2675 -0.6598 -0.3143
10385TIP3    H152646   2.546   0.383  15.455  0.5483 -2.6521  1.0968
10385TIP3    H252647   2.499   0.414  15.315  0.9406  1.0697  1.7088
10386TIP3   OH252648   3.826   4.996  14.631 -0.0965 -0.1409  0.3136
10386TIP3    H152649   3.746   4.943  14.627  0.2965 -0.8546  1.4838
10386TIP3    H252650   3.830   5.039  14.545 -2.4227  0.9248  0.6345
10387TIP3   OH252651   6.811   1.793  13.128  0.4192 -0.2357  0.0747
10387TIP3    H152652   6.870   1.863  13.154  0.0599  0.0313  0.1822
10387TIP3    H252653   6.856   1.747  13.057 -0.3148  1.5259 -1.6140
10388TIP3   OH252654   6.216   4.541   4.495  0.2302 -0.5009 -0.5381
10388TIP3    H152655   6.269   4.478   4.545  2.5547  0.2870 -1.8418
10388TIP3    H252656   6.277   4.612   4.474 -1.9024  1.4461 -0.4772
10389TIP3   OH252657   3.668   6.814   4.787 -0.5558  0.0037  0.8591
10389TIP3    H152658   3.615   6.744   4.749  2.0368 -1.4409 -0.3729
10389TIP3    H252659   3.709   6.774   4.863  1.0347  0.1059  0.0865
10390TIP3   OH252660   3.756   1.669  15.315  0.2862  0.0199 -0.4197
10390TIP3    H152661   3.675   1.710  15.346  0.2776 -1.2147  1.3176
10390TIP3    H252662   3.820   1.740  15.316 -0.0890  0.3776  1.0462
10391TIP3   OH252663   5.832   4.755   5.345 -0.1891 -0.5362  0.5998
10391TIP3    H152664   5.780   4.715   5.275  0.0952 -0.9823  0.6372
10391TIP3    H252665   5.797   4.715   5.425  0.5533 -1.2325  0.5865
10392TIP3   OH252666   0.679   2.813   3.379 -0.5573  0.2041  0.6054
10392TIP3    H152667   0.735   2.759   3.435  0.0834  0.0955 -0.1229
10392TIP3    H252668   0.721   2.899   3.378  0.0811 -0.1051 -0.6137
10393TIP3   OH252669   4.668   0.855  15.398 -0.1192  0.0663  0.4713
10393TIP3    H152670   4.600   0.921  15.409 -0.8872 -0.5706 -0.2632
10393TIP3    H252671   4.654   0.822  15.309  1.6972  0.5175 -0.0068
10394TIP3   OH252672   5.325   0.891  14.451  0.6385  0.2327  0.6082
10394TIP3    H152673   5.301   0.984  14.448  0.4180  0.1443 -0.9478
10394TIP3    H252674   5.418   0.891  14.472  0.0834  0.6743  3.5795
10395TIP3   OH252675   3.880   5.398  12.201 -0.4282 -0.2807  0.0713
10395TIP3    H152676   3.847   5.467  12.143 -0.2874  0.1703  0.5127
10395TIP3    H252677   3.875   5.318  12.149 -1.0822 -0.0235 -0.2753
10396TIP3   OH252678   0.728   4.078  16.638  0.9568  0.2498 -0.4172
10396TIP3    H152679   0.696   4.116  16.557 -0.0513  1.2312  0.4151
10396TIP3    H252680   0.756   3.990  16.614 -0.5365  0.0618 -1.5804
10397TIP3   OH252681   0.895   6.351  10.619  0.2321 -1.0252 -0.0498
10397TIP3    H152682   0.806   6.333  10.651 -1.0177  2.6354 -0.9177
10397TIP3    H252683   0.904   6.295  10.542 -1.9052 -0.6403 -0.6565
10398TIP3   OH252684   5.231   4.820   1.032  0.8307 -0.2767 -0.8764
10398TIP3    H152685   5.300   4.852   1.090  0.6388 -0.1044 -0.7420
10398TIP3    H252686   5.277   4.795   0.952  0.9044  1.0171 -1.2698
10399TIP3   OH252687   0.347   2.939  11.104  0.0817 -0.5455  0.3746
10399TIP3    H152688   0.296   2.921  11.026  2.5464 -0.2817 -1.4253
10399TIP3    H252689   0.309   3.019  11.141 -1.2002 -0.7536 -0.4442
10400TIP3   OH252690   5.122   1.434   4.165  0.6390 -0.0916  0.1948
10400TIP3    H152691   5.181   1.439   4.241  0.0368 -1.0027  0.7396
10400TIP3    H252692   5.050   1.378   4.194  0.5619 -0.7406 -1.1608
10401TIP3   OH252693   0.056   1.638   0.069  0.4086  0.6706  0.4466
10401TIP3    H152694  -0.028   1.614   0.109  0.6737 -0.0725  0.5689
10401TIP3    H252695   0.090   1.556   0.032  0.3677  1.2595 -0.9547
10402TIP3   OH252696   4.522   0.441   1.320  0.4360 -0.1270 -0.8234
10402TIP3    H152697   4.581   0.366   1.313 -1.0266 -1.3457 -0.6270
10402TIP3    H252698   4.517   0.477   1.231  0.4210 -0.8492 -1.1180
10403TIP3   OH252699   2.016   1.941   5.079  0.3655 -0.4767 -0.4114
10403TIP3    H152700   1.949   1.992   5.124 -0.8174 -3.7579  1.9317
10403TIP3    H252701   2.097   1.990   5.094 -0.7024  0.8625  1.4260
10404TIP3   OH252702   5.078   4.018  11.590  0.4821  0.5518 -0.0073
10404TIP3    H152703   5.120   3.968  11.660  1.9576  3.0376  1.0376
10404TIP3    H252704   5.147   4.033  11.526 -0.3619 -0.0633 -1.0991
10405TIP3   OH252705   5.040   0.288   1.155 -0.1176 -0.1780 -0.7983
10405TIP3    H152706   5.092   0.356   1.112 -2.3007  1.6481 -0.7513
10405TIP3    H252707   4.949   0.309   1.132 -1.0283 -1.8577  0.9501
10406TIP3   OH252708   2.626   2.686  13.572  0.2373 -0.4552 -0.4616
10406TIP3    H152709   2.565   2.759  13.565  0.0832 -0.5461 -0.0846
10406TIP3    H252710   2.631   2.668  13.666 -0.0487 -1.2010 -0.5842
10407TIP3   OH252711   0.414   6.448  16.076 -0.5175  0.2112 -0.2138
10407TIP3    H152712   0.444   6.421  15.989  1.6498  0.9467  0.2388
10407TIP3    H252713   0.480   6.413  16.136 -1.0214  1.2003  0.9584
10408TIP3   OH252714   4.643   3.844  13.170 -0.2248  0.0926 -0.1587
10408TIP3    H152715   4.568   3.788  13.154 -0.4966  0.1149  0.9769
10408TIP3    H252716   4.646   3.854  13.265 -1.2360  3.4137 -0.3557
10409TIP3   OH252717   5.060   4.700  11.601  0.4398  0.1021  0.3546
10409TIP3    H152718   5.121   4.739  11.538  0.0153 -0.1936 -0.2533
10409TIP3    H252719   5.033   4.617  11.561  1.3714 -0.8703  1.6555
10410TIP3   OH252720   4.558   0.070  13.103  0.5937 -0.0261 -0.0291
10410TIP3    H152721   4.476   0.088  13.150 -0.0770 -1.5109 -0.5664
10410TIP3    H252722   4.618   0.038  13.170  1.1557  2.1034  0.5753
10411TIP3   OH252723   3.263   3.444  12.965  0.1001  0.2272  0.0789
10411TIP3    H152724   3.225   3.360  12.990 -1.8545 -0.0476 -3.2017
10411TIP3    H252725   3.245   3.502  13.040 -1.5103 -1.4536  1.0835
10412TIP3   OH252726   6.429   1.542   0.814 -0.3139  0.4051 -0.2562
10412TIP3    H152727   6.485   1.619   0.816  0.6793 -0.3045  0.1168
10412TIP3    H252728   6.475   1.480   0.758 -1.2731  0.1897 -0.8354
10413TIP3   OH252729   2.843   2.229   4.325  0.2138 -0.6597 -0.2497
10413TIP3    H152730   2.775   2.166   4.300  0.9263 -2.4952  2.0945
10413TIP3    H252731   2.804   2.279   4.397  0.0985  0.8423 -1.2946
10414TIP3   OH252732   5.317   0.873  11.120  0.4172 -0.3054  0.2335
10414TIP3    H152733   5.240   0.841  11.072  0.2824 -0.7597  0.7391
10414TIP3    H252734   5.337   0.957  11.079  0.5227 -0.8352 -0.8523
10415TIP3   OH252735   6.770   3.840  16.100  0.0430 -0.0853 -0.4648
10415TIP3    H152736   6.754   3.871  16.189 -0.3306 -1.4046 -0.0540
10415TIP3    H252737   6.773   3.745  16.108 -2.0219 -0.3562 -2.1710
10416TIP3   OH252738   3.566   2.980   1.592  0.1197  0.3491  0.9691
10416TIP3    H152739   3.496   3.045   1.600  0.8680  1.0333  2.3478
10416TIP3    H252740   3.618   2.992   1.671  1.6459 -0.3244  0.0945
10417TIP3   OH252741   0.938   5.604  12.483 -0.0477  0.0442  0.1289
10417TIP3    H152742   0.881   5.653  12.424 -1.1733 -1.0184  0.2853
10417TIP3    H252743   0.980   5.539  12.426 -0.4547 -0.3990  0.3202
10418TIP3   OH252744   5.439   2.160   4.970 -0.3952 -0.5715  0.7929
10418TIP3    H152745   5.363   2.103   4.956 -0.1335 -0.4240 -1.7016
10418TIP3    H252746   5.513   2.109   4.936  0.1297  0.4905  0.3127
10419TIP3   OH252747   3.558   4.941   5.434 -0.1814 -0.1064  0.2550
10419TIP3    H152748   3.616   4.962   5.507 -1.5725 -0.3010  1.4616
10419TIP3    H252749   3.553   5.023   5.384 -0.4670  0.5292  1.2888
10420TIP3   OH252750   2.126   5.132  17.065  0.2188 -0.0579  0.4423
10420TIP3    H152751   2.066   5.057  17.062 -1.3428  1.1351 -0.1360
10420TIP3    H252752   2.148   5.149  16.973  2.4377 -1.1660  0.7038
10421TIP3   OH252753   1.295   4.116  12.668  0.3744  0.2606  0.6830
10421TIP3    H152754   1.204   4.145  12.660  0.8902  1.3679 -2.6684
10421TIP3    H252755   1.292   4.022  12.651 -0.2737 -0.0106  2.1770
10422TIP3   OH252756   0.881   3.840  14.880 -0.0371  0.1421 -0.4764
10422TIP3    H152757   0.931   3.905  14.831 -0.0689 -0.3232 -1.1393
10422TIP3    H252758   0.793   3.877  14.887  0.3484  0.8875  0.5459
10423TIP3   OH252759   4.828   6.466  15.791  0.2041 -0.0887  0.3393
10423TIP3    H152760   4.777   6.546  15.801  0.6550  0.2073  0.3039
10423TIP3    H252761   4.889   6.467  15.865 -1.2917 -1.5568  1.6834
10424TIP3   OH252762   2.528   1.758  13.356 -0.9418 -0.6067  0.3439
10424TIP3    H152763   2.497   1.720  13.274 -0.1520 -0.9199  0.1901
10424TIP3    H252764   2.516   1.689  13.421 -1.6471 -0.3302  0.5216
10425TIP3   OH252765   0.943   3.181   6.147 -0.6189 -0.2535  0.2726
10425TIP3    H152766   0.954   3.273   6.175 -2.0763 -0.5130  1.8713
10425TIP3    H252767   0.974   3.130   6.222  1.6494 -1.1645 -1.1727
10426TIP3   OH252768   0.758   1.816  14.051  0.4242  0.0597  0.1091
10426TIP3    H152769   0.748   1.831  13.957 -0.9963 -0.4825  0.1466
10426TIP3    H252770   0.692   1.750  14.071  0.3258  0.5901  1.5921
10427TIP3   OH252771   5.627   6.413  14.085 -0.0377  0.0873 -0.6493
10427TIP3    H152772   5.651   6.504  14.104  0.6225 -0.3015  0.4470
10427TIP3    H252773   5.579   6.384  14.163  0.5548 -0.7820 -0.5998
10428TIP3   OH252774   0.300   3.651  13.564  0.2412 -0.1983  0.6521
10428TIP3    H152775   0.311   3.556  13.564  1.8236 -0.0700  1.8848
10428TIP3    H252776   0.208   3.665  13.543  0.3327 -1.9198 -1.1939
10429TIP3   OH252777   4.193   3.049  16.751 -0.8224  0.0082 -0.0924
10429TIP3    H152778   4.161   3.118  16.810  0.2521  0.0718  0.4300
10429TIP3    H252779   4.210   3.095  16.669 -1.2236  0.1385 -0.1065
10430TIP3   OH252780   6.234   1.128   1.346 -0.0571 -0.0789 -0.1697
10430TIP3    H152781   6.291   1.067   1.394  0.2103  0.6938  0.5172
10430TIP3    H252782   6.208   1.192   1.412 -1.3318 -0.1406 -0.5973
10431TIP3   OH252783   3.963   6.117   4.883 -0.4036 -0.0689 -0.3008
10431TIP3    H152784   3.929   6.199   4.918 -2.5177 -0.5920 -1.0028
10431TIP3    H252785   4.053   6.138   4.856 -0.8457  1.9599 -0.3520
10432TIP3   OH252786   1.417   0.010   2.385 -1.1667  0.3589 -0.2840
10432TIP3    H152787   1.387  -0.024   2.300 -1.6598 -0.3457  0.1567
10432TIP3    H252788   1.349   0.072   2.411 -0.1012  1.9807 -1.2426
10433TIP3   OH252789   1.074   5.928   4.962  0.3284 -0.2069  0.2283
10433TIP3    H152790   1.090   5.896   5.051  2.2911 -2.0120 -0.6731
10433TIP3    H252791   1.119   5.865   4.905 -0.1922  1.3099 -2.0207
10434TIP3   OH252792   3.067   5.179  11.147  0.6450 -0.4276  0.2398
10434TIP3    H152793   3.142   5.239  11.157 -0.5583  0.8526  2.3972
10434TIP3    H252794   3.008   5.225  11.087  0.7558 -0.5628  0.0266
10435TIP3   OH252795   5.519   3.753   0.566 -0.5581  0.3281  0.0223
10435TIP3    H152796   5.473   3.724   0.487 -0.4007 -0.8114  0.3234
10435TIP3    H252797   5.548   3.842   0.546 -1.6615  0.5414 -0.7015
10436TIP3   OH252798   4.671   2.583  12.384 -0.5347 -0.4925 -0.0992
10436TIP3    H152799   4.675   2.675  12.357  1.5452 -0.0736  1.4338
10436TIP3    H252800   4.729   2.538  12.323 -0.2257 -0.5135  0.2149
10437TIP3   OH252801   6.830   6.237   1.600 -0.1266 -0.5351  0.0446
10437TIP3    H152802   6.911   6.200   1.565  0.1210  1.4023 -1.5749
10437TIP3    H252803   6.763   6.216   1.534 -0.7734 -1.2527  0.8948
10438TIP3   OH252804   3.983   1.175   1.629  0.4356  0.1811  0.1037
10438TIP3    H152805   3.961   1.155   1.538  0.6022  1.1351 -0.1608
10438TIP3    H252806   4.078   1.190   1.627  0.5017 -0.1630  0.5118
10439TIP3   OH252807   0.349   6.571   0.684 -0.0253 -0.1447  0.4192
10439TIP3    H152808   0.405   6.501   0.651 -0.6953  0.4438 -2.2011
10439TIP3    H252809   0.408   6.646   0.694 -0.3282  0.7997 -3.3997
10440TIP3   OH252810   2.586   5.480  13.173  0.0121  0.0917 -0.3477
10440TIP3    H152811   2.646   5.454  13.103  0.9342  1.0142  0.0826
10440TIP3    H252812   2.620   5.438  13.251  1.8776  2.8740  0.4828
10441TIP3   OH252813   3.219   3.968  13.067  0.4083 -0.0804  0.0483
10441TIP3    H152814   3.264   4.029  13.124  0.9784  0.4112 -0.9057
10441TIP3    H252815   3.227   3.883  13.111 -0.0075  0.4364  1.1605
10442TIP3   OH252816   6.005   3.250   5.146 -0.1054 -0.8404  0.1666
10442TIP3    H152817   6.049   3.334   5.128 -1.0410 -0.3945 -0.0848
10442TIP3    H252818   5.967   3.261   5.233  1.1204 -1.5986  0.8266
10443TIP3   OH252819   4.593   2.279   3.163 -0.1825  0.3690 -0.5917
10443TIP3    H152820   4.574   2.357   3.112 -0.1740 -0.2640 -1.5856
10443TIP3    H252821   4.652   2.310   3.232 -0.3704  1.2772 -0.8214
10444TIP3   OH252822   1.468   2.207   4.901  0.1023 -0.2917  0.0844
10444TIP3    H152823   1.457   2.284   4.957 -1.6046  0.2514 -0.9226
10444TIP3    H252824   1.399   2.215   4.836  0.8473 -1.9068 -0.9605
10445TIP3   OH252825   6.040   6.053  15.606  0.0564 -0.0233 -0.0602
10445TIP3    H152826   6.093   5.986  15.649  2.4703  2.1734  0.5860
10445TIP3    H252827   5.985   6.089  15.675  0.1558 -0.0047  0.0081
10446TIP3   OH252828   1.619   3.915  12.171 -0.3233  0.0784  0.2195
10446TIP3    H152829   1.592   3.824  12.178  1.0326 -0.3751 -0.0946
10446TIP3    H252830   1.632   3.943  12.262 -0.6552 -0.0643  0.3125
10447TIP3   OH252831   1.875   4.014   5.196 -0.1671  0.5087  0.1069
10447TIP3    H152832   1.907   4.068   5.123  0.4922  0.1947  0.1542
10447TIP3    H252833   1.883   3.924   5.164  0.1619  0.3658  0.5758
10448TIP3   OH252834   6.377   1.000   1.547 -0.1817  0.1705 -0.2750
10448TIP3    H152835   6.328   1.006   1.628  0.9187 -0.4072  0.4623
10448TIP3    H252836   6.451   1.060   1.559 -0.2964  0.4837 -1.0654
10449TIP3   OH252837   6.823   1.081   3.770  0.6750 -0.5161  0.7473
10449TIP3    H152838   6.728   1.084   3.757  0.8760 -2.0450 -1.8017
10449TIP3    H252839   6.858   1.144   3.708  1.3527  0.4151  2.0279
10450TIP3   OH252840   4.594   1.138  17.091 -0.1521 -0.0180  0.6920
10450TIP3    H152841   4.529   1.130  17.161 -0.0164  1.5223  1.0412
10450TIP3    H252842   4.667   1.185  17.132 -0.2360  1.2710 -0.5614
10451TIP3   OH252843   6.601   4.649  17.060  0.1747 -0.8547 -0.7222
10451TIP3    H152844   6.665   4.645  17.130  1.6668  0.9391 -1.9031
10451TIP3    H252845   6.598   4.560  17.025  1.0571 -1.2490  0.1808
10452TIP3   OH252846   1.912   0.125   0.015  0.4072 -0.5827  0.0138
10452TIP3    H152847   1.872   0.131  -0.072  0.7083 -1.4501 -0.1901
10452TIP3    H252848   1.885   0.206   0.059  0.7359  0.1594 -1.0931
10453TIP3   OH252849   6.715   3.352  14.429 -0.2581  0.1944  0.1613
10453TIP3    H152850   6.709   3.388  14.340 -0.6791  3.0804  1.2561
10453TIP3    H252851   6.809   3.349  14.447 -0.0927 -1.5897 -0.7494
10454TIP3   OH252852   4.686   5.643  16.193  0.4099  0.1005  0.0344
10454TIP3    H152853   4.733   5.628  16.274 -0.1129  1.2719  0.5839
10454TIP3    H252854   4.594   5.653  16.220  0.3611  1.5636 -0.5294
10455TIP3   OH252855   1.384   5.559   5.507 -0.1088  0.0473 -0.0259
10455TIP3    H152856   1.371   5.503   5.430 -0.0931 -0.2022  0.1521
10455TIP3    H252857   1.477   5.549   5.528  0.3560  1.6135 -1.1347
10456TIP3   OH252858   1.294   2.471   3.141  0.5821  0.2065 -0.1100
10456TIP3    H152859   1.305   2.538   3.208 -1.5251 -0.0294  0.5357
10456TIP3    H252860   1.249   2.515   3.069 -1.6723 -0.6692  0.7000
10457TIP3   OH252861   1.560   0.794  11.231  0.0360 -0.0008 -0.1341
10457TIP3    H152862   1.514   0.766  11.152 -0.8035 -0.1369  0.3908
10457TIP3    H252863   1.585   0.712  11.275  0.5942  0.0730 -0.2956
10458TIP3   OH252864   0.451   5.069  12.293  0.1099 -0.1852  0.3506
10458TIP3    H152865   0.494   5.086  12.377 -0.2246  2.0321  0.1138
10458TIP3    H252866   0.515   5.094  12.227  0.4524 -2.1131 -0.1265
10459TIP3   OH252867   6.570   4.313  14.730  0.3804 -0.6418  0.5694
10459TIP3    H152868   6.580   4.332  14.636  0.1944 -2.2445  0.1988
10459TIP3    H252869   6.484   4.272  14.737 -0.5316  1.3722  1.7923
10460TIP3   OH252870   0.074   2.948   4.360  0.1041 -0.7892  0.2715
10460TIP3    H152871   0.093   3.040   4.376 -0.0359 -0.7205  0.0471
10460TIP3    H252872   0.063   2.910   4.447  1.4237 -0.8684  0.4200
10461TIP3   OH252873   0.254   1.766  15.404 -0.0007 -0.0345 -0.0538
10461TIP3    H152874   0.188   1.703  15.376  0.7887  0.3484 -3.0472
10461TIP3    H252875   0.303   1.721  15.472 -1.7874 -1.1959  0.5374
10462TIP3   OH252876   4.009   1.002  12.182  0.2149 -0.0290 -0.3973
10462TIP3    H152877   3.961   1.047  12.113 -1.9532 -0.9181  0.4447
10462TIP3    H252878   3.943   0.949  12.227  1.4710  0.5669  2.4128
10463TIP3   OH252879   6.816   3.440   5.518 -0.2744  0.0439 -0.5014
10463TIP3    H152880   6.741   3.416   5.462 -0.4297  1.1440 -0.7811
10463TIP3    H252881   6.829   3.363   5.574 -0.7452 -0.7001 -1.3744
10464TIP3   OH252882   2.686   2.032  15.591  0.0185  0.0912  0.0644
10464TIP3    H152883   2.734   2.053  15.671 -0.5797  1.3961  0.1047
10464TIP3    H252884   2.754   2.017  15.525  0.4963  0.0161  0.5661
10465TIP3   OH252885   5.974   6.719   3.277  0.0714  0.7175 -0.6348
10465TIP3    H152886   6.063   6.739   3.248 -0.2976  1.8190 -1.0652
10465TIP3    H252887   5.930   6.686   3.199  0.1416 -0.0091 -0.3759
10466TIP3   OH252888   2.540   6.172  13.374 -0.0498  0.5769  0.2131
10466TIP3    H152889   2.508   6.119  13.301  1.5526 -0.9257  0.5189
10466TIP3    H252890   2.575   6.251  13.332 -2.1967  1.3161 -0.2852
10467TIP3   OH252891   0.601   4.355   5.147  0.0565 -0.1824  0.1690
10467TIP3    H152892   0.614   4.373   5.053  0.3396  1.8432  0.5454
10467TIP3    H252893   0.524   4.408   5.170  0.8091  0.4272  1.3501
10468TIP3   OH252894   1.204   3.111   0.325 -0.0546 -0.4007 -0.1367
10468TIP3    H152895   1.281   3.088   0.273  1.2352  0.5974  1.2759
10468TIP3    H252896   1.191   3.037   0.384 -0.1796 -0.5558 -0.3558
10469TIP3   OH252897   1.547   1.663   3.891  0.0192 -0.0252  0.0466
10469TIP3    H152898   1.520   1.600   3.825 -3.1084  0.2907  0.8816
10469TIP3    H252899   1.502   1.635   3.971  2.8888  0.1686  1.9096
10470TIP3   OH252900   1.601   0.062   1.177 -0.1129 -0.2308 -0.4416
10470TIP3    H152901   1.652   0.131   1.221  0.0515 -0.5149 -0.1819
10470TIP3    H252902   1.666  -0.005   1.155 -0.2935 -0.3617 -0.5794
10471TIP3   OH252903   1.729   6.727   2.523  0.4179  0.0005 -0.5921
10471TIP3    H152904   1.733   6.649   2.467 -0.7816 -0.6244  0.1550
10471TIP3    H252905   1.697   6.796   2.465 -0.8524 -0.6485 -0.6870
10472TIP3   OH252906   1.388   6.041  16.982 -0.2259 -0.5176  0.9171
10472TIP3    H152907   1.356   5.952  16.971  0.4548 -0.6748  0.0086
10472TIP3    H252908   1.321   6.096  16.943  0.5472 -0.8455 -0.9908
10473TIP3   OH252909   1.897   0.722   1.871  0.3981 -0.2171  0.2404
10473TIP3    H152910   1.922   0.696   1.782 -1.4870  0.8989 -0.6667
10473TIP3    H252911   1.807   0.690   1.881  0.0151  1.0628  1.1296
10474TIP3   OH252912   4.565   6.551   1.615  0.0633 -0.4865  0.2724
10474TIP3    H152913   4.487   6.572   1.666 -0.5213 -0.7094 -0.5185
10474TIP3    H252914   4.568   6.617   1.546  0.5869 -0.4743  0.2966
10475TIP3   OH252915   5.631   4.205   0.832 -0.0477 -0.0093  0.2794
10475TIP3    H152916   5.573   4.214   0.757  1.0891  1.5030 -0.4850
10475TIP3    H252917   5.659   4.295   0.852 -0.8526 -0.2640  2.9966
10476TIP3   OH252918   6.121   1.311  13.357 -0.5759  0.1623  0.0660
10476TIP3    H152919   6.044   1.263  13.327 -0.7664 -0.3551  1.3474
10476TIP3    H252920   6.169   1.249  13.411  1.7334 -0.1196 -2.1621
10477TIP3   OH252921   5.331   3.036  15.401 -0.2433  0.1414  0.1240
10477TIP3    H152922   5.271   2.966  15.375 -0.5953  0.6810 -0.5165
10477TIP3    H252923   5.274   3.103  15.439 -0.2536  1.3152 -1.8419
10478TIP3   OH252924   5.662   0.763  13.360  0.4526 -0.4223 -0.1680
10478TIP3    H152925   5.697   0.829  13.301 -0.0309  0.2778  0.3142
10478TIP3    H252926   5.623   0.697  13.302  1.7512 -0.7733 -0.6786
10479TIP3   OH252927   3.909   6.051  14.073 -0.3201 -0.3978 -0.3130
10479TIP3    H152928   3.983   6.018  14.022 -1.1818 -2.0220 -0.5771
10479TIP3    H252929   3.897   6.141  14.042  0.8911 -0.4500 -0.9926
10480TIP3   OH252930   0.974   0.076  13.333  0.1397 -0.4906  0.5311
10480TIP3    H152931   0.913   0.028  13.388 -0.3817 -0.4835 -0.0323
10480TIP3    H252932   0.948   0.054  13.243 -0.1970  0.9224  0.2605
10481TIP3   OH252933   6.660   2.001  14.854  0.5108 -0.3596 -0.3458
10481TIP3    H152934   6.687   1.985  14.945 -2.4609 -0.4918  0.6026
10481TIP3    H252935   6.700   2.085  14.832  0.5262  0.1367  1.4160
10482TIP3   OH252936   4.615   5.039  12.895 -0.3677  0.3212  0.0299
10482TIP3    H152937   4.676   5.018  12.966  0.3707 -0.2539 -0.7458
10482TIP3    H252938   4.670   5.073  12.825 -1.1260  1.1981 -0.1641
10483TIP3   OH252939   4.843   1.244  13.735  0.1452 -0.3604 -0.3992
10483TIP3    H152940   4.847   1.233  13.830  1.2343 -0.3904 -0.4317
10483TIP3    H252941   4.845   1.155  13.701  0.2948 -0.3373 -0.4547
10484TIP3   OH252942   1.068   0.364   2.614 -0.1763 -0.7743  0.0266
10484TIP3    H152943   1.115   0.393   2.692 -0.4640 -0.5189  0.1078
10484TIP3    H252944   0.980   0.343   2.645 -0.2565 -0.7856 -0.2048
10485TIP3   OH252945   1.558   3.825  13.547 -0.8983 -0.5305  0.3014
10485TIP3    H152946   1.489   3.768  13.514 -0.9229 -0.8830  0.9458
10485TIP3    H252947   1.528   3.853  13.633  1.1805 -3.4147  2.1718
10486TIP3   OH252948   5.032   4.792   2.099  0.1399 -0.0494 -0.6159
10486TIP3    H152949   4.952   4.838   2.124  2.2846  2.9509  1.5611
10486TIP3    H252950   5.054   4.826   2.013 -0.6174 -0.5196 -1.0076
10487TIP3   OH252951   1.301   4.068   5.350 -0.3464  0.1731  0.1292
10487TIP3    H152952   1.214   4.050   5.314  0.4858 -1.7779 -1.0452
10487TIP3    H252953   1.289   4.062   5.445 -1.9049  2.1062  0.1083
10488TIP3   OH252954   3.881   3.104  15.721 -0.0300  0.1591  0.5743
10488TIP3    H152955   3.904   3.123  15.812  0.2680 -1.5358  0.9033
10488TIP3    H252956   3.801   3.154  15.705 -0.0215  0.5728  1.7360
10489TIP3   OH252957   4.612   5.312   4.125  0.5828  0.0623 -0.2508
10489TIP3    H152958   4.634   5.330   4.034  2.0724 -0.6662 -0.0607
10489TIP3    H252959   4.634   5.393   4.171  1.1951 -0.0473 -0.3396
10490TIP3   OH252960   4.157   0.278   5.792  0.2856  0.3879  0.4678
10490TIP3    H152961   4.094   0.278   5.864  0.3086  1.0975  0.4934
10490TIP3    H252962   4.113   0.327   5.722 -0.1240 -1.0888 -0.3590
10491TIP3   OH252963   6.489   3.423   2.924  0.5142 -0.4047  0.7661
10491TIP3    H152964   6.480   3.331   2.899 -5.1586  0.2791 -1.1558
10491TIP3    H252965   6.504   3.469   2.841 -1.2511  0.6524  0.9941
10492TIP3   OH252966   0.387   6.519   2.728 -0.6813  0.0896  0.4134
10492TIP3    H152967   0.432   6.596   2.762  0.8634 -0.3882 -0.4282
10492TIP3    H252968   0.307   6.552   2.689 -1.5510  0.8883  2.7065
10493TIP3   OH252969   4.688   3.052   3.402  0.2602 -0.0769  0.0740
10493TIP3    H152970   4.652   3.065   3.314  0.2600  0.1547  0.1095
10493TIP3    H252971   4.780   3.079   3.395 -0.2391  1.9731  0.6512
10494TIP3   OH252972   3.432   2.746  16.965 -0.0284 -0.0096  0.2114
10494TIP3    H152973   3.471   2.778  16.884 -0.8588  0.6847  0.0724
10494TIP3    H252974   3.344   2.718  16.940 -0.4110  0.5144  0.9281
10495TIP3   OH252975   4.284   1.960   2.486  0.0540  0.2566  0.2278
10495TIP3    H152976   4.311   1.894   2.422  0.1871 -0.5628  1.0948
10495TIP3    H252977   4.311   1.923   2.570  2.4049  2.5598  0.5914
10496TIP3   OH252978   2.888   3.863   3.950 -0.1715  0.0667 -0.2307
10496TIP3    H152979   2.890   3.820   4.036  2.5708  0.6405  0.0851
10496TIP3    H252980   2.875   3.792   3.888  4.5632 -1.5352  0.2487
10497TIP3   OH252981   0.797   1.254   0.993  0.0358 -0.2638 -0.0459
10497TIP3    H152982   0.883   1.214   1.008 -0.3654 -1.2106 -0.1458
10497TIP3    H252983   0.816   1.346   0.976  1.1060 -0.6062 -0.8600
10498TIP3   OH252984   1.443   4.511  16.221 -0.1368 -0.4683 -0.0225
10498TIP3    H152985   1.425   4.428  16.177  0.0083  0.1146 -1.2114
10498TIP3    H252986   1.535   4.506  16.247 -0.1990 -0.7752  0.1419
10499TIP3   OH252987   0.905   2.696  13.270  0.1678 -0.5309 -0.6231
10499TIP3    H152988   0.937   2.651  13.348 -0.2951  0.3769  0.1035
10499TIP3    H252989   0.962   2.772  13.260 -2.6165  2.1260  1.7047
10500TIP3   OH252990   4.545   3.822  14.075  0.0718 -0.5440  0.4706
10500TIP3    H152991   4.492   3.886  14.123  0.3304 -0.1246  0.1981
10500TIP3    H252992   4.539   3.742  14.127 -0.0263 -0.2212  0.9566
10501TIP3   OH252993   3.477   6.366   4.298 -0.0960 -0.3618 -0.2342
10501TIP3    H152994   3.506   6.332   4.383 -1.8105  0.6116  0.7971
10501TIP3    H252995   3.387   6.333   4.289 -0.8183  1.5446 -0.4854
10502TIP3   OH252996   2.712   2.187   5.828  0.5377  0.3329  0.0912
10502TIP3    H152997   2.777   2.133   5.782 -2.1467 -0.0601 -3.7025
10502TIP3    H252998   2.715   2.271   5.783 -1.4218  0.3408 -0.0837
10503TIP3   OH252999   2.006   3.937   3.040  0.4821  0.1577  0.0103
10503TIP3    H153000   1.969   4.015   2.999  0.2189 -0.4181 -0.8806
10503TIP3    H253001   1.994   3.952   3.134  0.4788  1.2021 -0.1419
10504TIP3   OH253002   0.169   3.949  13.438 -0.2599 -0.0591 -0.4285
10504TIP3    H153003   0.259   3.915  13.440  0.3695  1.3648 -1.8534
10504TIP3    H253004   0.141   3.948  13.529  0.3347 -2.6723 -0.2093
10505TIP3   OH253005   5.730   5.427  13.754 -0.1651  0.3219  0.6012
10505TIP3    H153006   5.687   5.484  13.690 -1.4612 -0.0958  1.0715
10505TIP3    H253007   5.715   5.338  13.721  0.8406  0.1855  0.4813
10506TIP3   OH253008   1.055   1.428   4.251  0.6836  0.4527 -0.2750
10506TIP3    H153009   0.974   1.379   4.264  0.6777  1.1712  3.2848
10506TIP3    H253010   1.123   1.374   4.291  1.0220  2.1939  1.7022
10507TIP3   OH253011   5.006   1.546  14.023  0.2058  0.4809  0.0151
10507TIP3    H153012   5.001   1.641  14.034 -0.4913  0.4749 -0.2371
10507TIP3    H253013   5.078   1.519  14.081 -0.1755  1.0500  0.7700
10508TIP3   OH253014   1.862   1.890   4.833  0.0469 -0.5272 -0.4866
10508TIP3    H153015   1.937   1.887   4.775  1.0161  0.1538  0.6789
10508TIP3    H253016   1.897   1.924   4.916 -1.6879  0.5498 -0.1401
10509TIP3   OH253017   0.215   4.182  16.055 -0.3708  0.1577  0.3304
10509TIP3    H153018   0.285   4.242  16.029  1.6511 -2.5038 -0.8189
10509TIP3    H253019   0.251   4.132  16.128 -1.7038 -0.2349  0.7587
10510TIP3   OH253020   3.374   3.705   0.359  0.0237 -0.4465  0.2447
10510TIP3    H153021   3.356   3.722   0.451  0.1039 -0.5541  0.2805
10510TIP3    H253022   3.306   3.643   0.332  0.3718 -0.9034  0.3969
10511TIP3   OH253023   0.177   6.835   4.904 -0.5429  0.3175 -0.2687
10511TIP3    H153024   0.181   6.898   4.976  0.7426  1.3409 -1.2006
10511TIP3    H253025   0.125   6.878   4.837 -0.6275 -0.1012 -0.4788
10512TIP3   OH253026   6.142   1.650  15.029  0.3108 -0.1892 -0.3917
10512TIP3    H153027   6.229   1.614  15.046  0.8081  1.2737  0.3231
10512TIP3    H253028   6.157   1.725  14.972 -0.1473  1.5586  1.6321
10513TIP3   OH253029   3.639   6.495  16.590  0.2021 -0.1747 -0.0765
10513TIP3    H153030   3.554   6.535  16.571  0.9434  1.1226 -0.7855
10513TIP3    H253031   3.649   6.426  16.524 -0.8396 -1.2300  0.8088
10514TIP3   OH253032   5.991   5.949  15.160 -0.3080  0.4192  0.3873
10514TIP3    H153033   6.081   5.974  15.181 -0.5322  1.1583  0.5204
10514TIP3    H253034   5.985   5.856  15.181  0.6617  0.1547 -0.4139
10515TIP3   OH253035   1.011   1.468   4.601  0.0631 -0.2555 -0.3728
10515TIP3    H153036   1.041   1.392   4.651 -1.2766  0.4966  1.7178
10515TIP3    H253037   0.916   1.456   4.593 -0.8764  2.8366  3.3149
10516TIP3   OH253038   6.414   0.564  16.999 -0.8188  0.8034  0.6554
10516TIP3    H153039   6.499   0.553  17.041 -0.7553 -1.9824 -0.0405
10516TIP3    H253040   6.362   0.612  17.064  0.6895  0.8802  1.8760
10517TIP3   OH253041   1.655   0.839   1.470 -0.0186 -0.0734 -0.1580
10517TIP3    H153042   1.590   0.904   1.496  1.3032  0.9289  0.7934
10517TIP3    H253043   1.624   0.757   1.509 -1.0100  0.2618 -0.2306
10518TIP3   OH253044   3.058   5.266  14.672 -0.7520 -0.2199  0.2770
10518TIP3    H153045   3.059   5.246  14.578 -0.7403 -0.6103  0.3556
10518TIP3    H253046   3.069   5.361  14.677  0.2939 -0.3061 -0.0930
10519TIP3   OH253047   2.325   6.521   2.674  0.1150 -0.4409  0.0109
10519TIP3    H153048   2.413   6.546   2.701 -0.1927 -1.0328  1.7027
10519TIP3    H253049   2.322   6.426   2.689 -0.8078 -0.4211 -0.0041
10520TIP3   OH253050   6.690   3.787   3.719 -0.3714 -0.1636 -0.0044
10520TIP3    H153051   6.618   3.794   3.782  0.8770 -2.3904  1.8120
10520TIP3    H253052   6.705   3.693   3.709  3.7302  0.1149  1.5190
10521TIP3   OH253053   4.770   4.392   5.462  0.0984 -0.2581 -0.2262
10521TIP3    H153054   4.689   4.373   5.510  0.3298  0.1733  0.3492
10521TIP3    H253055   4.753   4.362   5.373 -1.2562  1.1574 -0.4939
10522TIP3   OH253056   5.563   6.497   3.993  0.1735 -0.1654  0.3458
10522TIP3    H153057   5.504   6.426   3.970  0.6297 -0.0066 -1.4434
10522TIP3    H253058   5.508   6.575   3.996 -0.2242 -0.4677  1.7593
10523TIP3   OH253059   6.010   2.987  14.787  0.3274  0.1979 -0.0894
10523TIP3    H153060   6.095   3.030  14.773 -0.4139  2.5222  1.9172
10523TIP3    H253061   5.989   3.004  14.878 -3.2378  1.5914 -0.9861
10524TIP3   OH253062   6.287   0.893   5.318  0.5294 -0.2758  0.0138
10524TIP3    H153063   6.341   0.951   5.264 -1.2428 -0.8312 -2.5612
10524TIP3    H253064   6.257   0.949   5.390 -1.2850  2.2891 -2.4664
10525TIP3   OH253065   3.572   6.043  12.741 -0.0270 -0.1141  0.2519
10525TIP3    H153066   3.638   6.111  12.725  0.6803  0.0014  3.0667
10525TIP3    H253067   3.514   6.047  12.665  0.6088  2.9119 -0.2056
10526TIP3   OH253068   1.710   2.971   2.631 -0.2055 -0.2354  0.4851
10526TIP3    H153069   1.620   3.002   2.645 -0.0757  0.3896 -0.0630
10526TIP3    H253070   1.705   2.918   2.552  0.1702  0.9342 -0.3355
10527TIP3   OH253071   4.343   1.085  12.919 -0.5739 -0.0755 -0.1467
10527TIP3    H153072   4.366   1.032  12.842 -1.4612  1.0673 -1.2594
10527TIP3    H253073   4.353   1.175  12.889 -0.9823  0.3956  1.0849
10528TIP3   OH253074   1.713   0.747   4.952  0.3733  0.0406  0.2167
10528TIP3    H153075   1.742   0.669   4.906  0.4254 -0.4165  1.0134
10528TIP3    H253076   1.784   0.768   5.013  0.3179  0.6536  0.0845
10529TIP3   OH253077   6.813   4.997  11.285  0.6468  0.0734 -0.1363
10529TIP3    H153078   6.756   5.074  11.293  0.8535  0.6208 -2.8150
10529TIP3    H253079   6.780   4.936  11.351 -1.1962  1.4679  0.3321
10530TIP3   OH253080   0.745   5.745  15.024 -0.1880  0.2680 -0.0967
10530TIP3    H153081   0.767   5.755  15.117 -0.4254 -1.6393  0.1988
10530TIP3    H253082   0.827   5.720  14.983 -0.3418 -0.0720 -0.1940
10531TIP3   OH253083   6.193   1.643   4.564 -0.1616  0.1375 -0.0777
10531TIP3    H153084   6.158   1.572   4.510 -1.7677  0.6338  0.2842
10531TIP3    H253085   6.238   1.599   4.636 -1.8179 -0.5481  0.5762
10532TIP3   OH253086   3.877   6.301  15.346  0.0502 -0.0105  0.3287
10532TIP3    H153087   3.930   6.332  15.420 -0.8749  0.5084  0.7961
10532TIP3    H253088   3.786   6.318  15.373 -0.4106 -1.6060 -0.1137
10533TIP3   OH253089   6.611   6.800   1.329 -0.1472 -0.3530 -0.1701
10533TIP3    H153090   6.653   6.838   1.252 -1.3326  0.1443 -0.5830
10533TIP3    H253091   6.565   6.723   1.296  0.0770 -0.6609  0.2131
10534TIP3   OH253092   3.538   3.815  16.068 -0.0039 -0.3986 -0.2906
10534TIP3    H153093   3.479   3.748  16.033  0.9628 -0.3877 -2.0307
10534TIP3    H253094   3.610   3.820  16.005  0.7591  1.1522  0.6321
10535TIP3   OH253095   4.965   5.698  13.740 -0.2208 -0.4284 -0.0574
10535TIP3    H153096   4.908   5.714  13.816 -1.7880 -0.3943 -1.1858
10535TIP3    H253097   5.004   5.613  13.756 -0.1565 -0.2092  1.0098
10536TIP3   OH253098   4.855   3.116   1.357 -0.2791  0.5670  0.1938
10536TIP3    H153099   4.939   3.138   1.317 -0.7063  2.7460  0.4045
10536TIP3    H253100   4.879   3.083   1.445  0.3813  0.2390 -0.0971
10537TIP3   OH253101   2.068   6.844   1.197  0.1772  0.5251 -0.0937
10537TIP3    H153102   2.001   6.781   1.171  2.7209 -1.7932 -1.5911
10537TIP3    H253103   2.049   6.863   1.289 -1.9816 -0.6534 -0.2168
10538TIP3   OH253104   6.448   4.536   5.744 -0.4644 -0.3273  0.3644
10538TIP3    H153105   6.517   4.481   5.781  0.0193 -1.6575 -2.3056
10538TIP3    H253106   6.468   4.541   5.651 -3.0604  0.6381 -0.2304
10539TIP3   OH253107   6.174   2.301   5.016 -0.0723  0.0155 -0.2048
10539TIP3    H153108   6.263   2.266   5.021 -0.1024  0.0127  0.3409
10539TIP3    H253109   6.127   2.238   4.962  0.2059 -0.0867 -0.3332
10540TIP3   OH253110   2.224   2.034  10.873 -0.2201  0.1825 -0.3206
10540TIP3    H153111   2.252   1.943  10.862 -0.1146  0.2264 -0.4174
10540TIP3    H253112   2.256   2.058  10.961  1.1888  0.6323 -0.9180
10541TIP3   OH253113   6.685   0.785  16.368  0.2519 -0.3404 -0.0346
10541TIP3    H153114   6.618   0.850  16.349 -0.8961 -0.5136  2.8659
10541TIP3    H253115   6.696   0.737  16.286 -0.9710  1.6168 -1.4278
10542TIP3   OH253116   0.243   6.472  11.310 -0.3074 -0.2725 -0.2286
10542TIP3    H153117   0.277   6.561  11.310  0.7269 -0.6469  0.6684
10542TIP3    H253118   0.152   6.480  11.338  0.3843  0.3031  2.0342
10543TIP3   OH253119   1.660   2.445   4.646  0.0619  0.1977 -0.4882
10543TIP3    H153120   1.575   2.482   4.670  0.2294  1.3523 -1.5746
10543TIP3    H253121   1.652   2.428   4.552  0.8908 -0.0900 -0.5085
10544TIP3   OH253122   0.575   6.406  11.692 -0.8136  0.4158  1.1176
10544TIP3    H153123   0.618   6.327  11.723 -0.6091  0.1802  0.2560
10544TIP3    H253124   0.504   6.375  11.635  1.1191  0.8128 -1.7158
10545TIP3   OH253125   4.256   5.603   3.609 -0.8138 -0.2920 -0.2467
10545TIP3    H153126   4.291   5.554   3.535  0.4085  2.1110 -1.3730
10545TIP3    H253127   4.315   5.583   3.682  1.3033  1.4339 -1.3753
10546TIP3   OH253128   4.477   5.803  15.810 -0.1745 -0.4851  0.1356
10546TIP3    H153129   4.446   5.752  15.885 -1.3034  0.0747  0.0764
10546TIP3    H253130   4.491   5.738  15.741 -0.4284 -0.8539  0.4291
10547TIP3   OH253131   3.098   5.934   4.852  0.0005  0.0933 -0.0951
10547TIP3    H153132   3.080   6.028   4.861 -2.1348  0.0944 -2.8704
10547TIP3    H253133   3.055   5.909   4.770  2.1919 -2.9380 -0.5075
10548TIP3   OH253134   6.842   5.750  11.364 -0.3591 -0.7678  0.0972
10548TIP3    H153135   6.799   5.833  11.383 -0.0492 -0.5228 -0.2702
10548TIP3    H253136   6.771   5.685  11.368 -0.8837 -0.2866 -1.1118
10549TIP3   OH253137   6.346   0.343   3.262  0.1922 -0.1428 -0.2289
10549TIP3    H153138   6.437   0.313   3.253  0.7505  1.6596 -0.8967
10549TIP3    H253139   6.318   0.309   3.347  1.7544 -0.0666  0.3422
10550TIP3   OH253140   1.848   3.178  15.377  0.2481  0.2362  0.1678
10550TIP3    H153141   1.793   3.149  15.450  1.7077  0.8658  1.5720
10550TIP3    H253142   1.786   3.193  15.305 -1.3310  0.3388  1.4867
10551TIP3   OH253143   6.136   4.531   5.629  0.0978 -0.5679 -0.2140
10551TIP3    H153144   6.124   4.444   5.592  1.1997 -0.5418 -0.6955
10551TIP3    H253145   6.121   4.590   5.555  0.9443 -0.4430 -0.2991
10552TIP3   OH253146   3.266   5.941  10.694  0.2656  0.2698 -0.2064
10552TIP3    H153147   3.190   5.953  10.637  1.1434 -0.8492 -1.6754
10552TIP3    H253148   3.315   6.023  10.686 -0.0134  0.4175 -0.4395
10553TIP3   OH253149   2.933   4.092   6.567 -0.4395  0.4463  0.2924
10553TIP3    H153150   2.859   4.110   6.624 -1.2943  1.6301 -1.1175
10553TIP3    H253151   2.956   4.177   6.529 -0.9328 -0.4990 -2.3066
10554TIP3   OH253152   4.916   5.737  15.921  0.3854  0.0472 -0.8457
10554TIP3    H153153   4.826   5.705  15.930 -0.0311  1.3664  0.0452
10554TIP3    H253154   4.969   5.669  15.963 -0.0951 -1.0440 -1.9139
10555TIP3   OH253155   0.460   5.046   1.443 -0.5037  0.1745 -0.1813
10555TIP3    H153156   0.387   4.984   1.437 -0.6758  0.3500  0.0828
10555TIP3    H253157   0.492   5.054   1.354 -0.0050 -0.8665 -0.1131
10556TIP3   OH253158   5.318   4.011   3.673 -0.2582  0.3579 -0.4404
10556TIP3    H153159   5.390   4.073   3.676 -0.3559  0.5732 -1.9122
10556TIP3    H253160   5.262   4.036   3.746  0.4117  1.1150 -0.1763
10557TIP3   OH253161   5.121   4.119  11.174 -0.0504 -0.4598 -0.4820
10557TIP3    H153162   5.184   4.096  11.105  0.0803 -0.4532 -0.3651
10557TIP3    H253163   5.135   4.053  11.242  0.8456  0.3889  0.1879
10558TIP3   OH253164   0.273   0.604  15.194  0.3372  0.2983 -0.0168
10558TIP3    H153165   0.285   0.667  15.123 -0.2249  0.6278  0.1664
10558TIP3    H253166   0.298   0.652  15.273 -1.6952  0.8774  0.3249
10559TIP3   OH253167   0.985   1.973   1.566 -0.3292 -0.0813  0.2836
10559TIP3    H153168   0.980   1.879   1.547  0.2657  0.0578 -0.6180
10559TIP3    H253169   0.894   2.000   1.575 -0.4697 -1.1959  3.0156
10560TIP3   OH253170   4.136   5.813  15.709 -0.1186 -0.6197 -0.6483
10560TIP3    H153171   4.105   5.745  15.649  0.0630 -1.6685  0.4187
10560TIP3    H253172   4.087   5.892  15.684 -0.1636 -1.0711 -2.0520
10561TIP3   OH253173   4.007   2.652  12.643 -0.4063 -0.2580  0.2055
10561TIP3    H153174   3.983   2.725  12.701  1.5296 -0.0551  0.8375
10561TIP3    H253175   3.979   2.574  12.691 -2.7914  0.0267 -0.6231
10562TIP3   OH253176   5.383   5.509  13.688  0.4524  0.4674 -0.2233
10562TIP3    H153177   5.381   5.434  13.629 -0.7196 -0.0804  0.4754
10562TIP3    H253178   5.458   5.561  13.659  1.2339 -0.9194 -0.7691
10563TIP3   OH253179   0.084   6.798  16.961 -0.1919  0.4853  0.1144
10563TIP3    H153180   0.122   6.812  16.874 -1.4023 -0.1658 -0.5537
10563TIP3    H253181   0.063   6.704  16.963 -0.9905  0.6620  0.7570
10564TIP3   OH253182   3.651   0.657   5.323 -0.5220 -0.2070  0.6425
10564TIP3    H153183   3.609   0.727   5.373 -0.1397  0.2817  0.2885
10564TIP3    H253184   3.614   0.577   5.359 -0.9307  0.1733  1.0876
10565TIP3   OH253185   5.896   5.485  15.492  0.4143 -0.3652 -0.0618
10565TIP3    H153186   5.917   5.514  15.581 -1.2708 -0.9891  0.5669
10565TIP3    H253187   5.827   5.420  15.503  1.5812 -2.0074 -1.6859
10566TIP3   OH253188   0.368   5.364   0.179 -0.1564  0.1093 -0.3904
10566TIP3    H153189   0.290   5.400   0.137 -1.5362 -1.9594  0.2329
10566TIP3    H253190   0.391   5.288   0.125  0.1486 -0.5102  0.5867
10567TIP3   OH253191   6.162   4.749  14.425  0.1918  0.1625 -0.1531
10567TIP3    H153192   6.123   4.669  14.461  2.1918 -0.3525  1.0334
10567TIP3    H253193   6.100   4.818  14.449 -0.7831 -0.8098  0.2321
10568TIP3   OH253194   5.922   0.919   0.860 -0.5366  0.1693 -0.5251
10568TIP3    H153195   5.861   0.942   0.929 -0.4220  2.8998 -1.2424
10568TIP3    H253196   6.009   0.940   0.896 -0.2382 -0.9194 -0.5686
10569TIP3   OH253197   0.915   2.352  11.847 -0.8936  0.1703  0.0843
10569TIP3    H153198   0.969   2.429  11.830 -1.7535  0.4143 -1.8029
10569TIP3    H253199   0.836   2.387  11.888 -0.1306 -0.0741  1.8718
10570TIP3   OH253200   3.931   4.566  12.402 -0.3391 -0.4001  0.9724
10570TIP3    H153201   3.888   4.480  12.401  0.0360 -0.6762 -2.3977
10570TIP3    H253202   4.010   4.552  12.455 -0.5666 -1.9914  0.9496
10571TIP3   OH253203   4.405   2.292   1.413  0.5030  0.2074  0.1407
10571TIP3    H153204   4.310   2.283   1.419  0.4414  0.8638  0.1244
10571TIP3    H253205   4.419   2.379   1.376  1.0904 -0.2207 -0.6899
10572TIP3   OH253206   0.551   3.416   3.574 -0.0690 -0.5313 -0.1095
10572TIP3    H153207   0.638   3.391   3.543  0.9525 -0.2219  2.2695
10572TIP3    H253208   0.522   3.484   3.513  0.5627 -1.8732 -1.9748
10573TIP3   OH253209   0.723   0.146   0.534 -0.2539 -0.0803 -0.2410
10573TIP3    H153210   0.632   0.174   0.545 -0.2751  0.1552 -0.9351
10573TIP3    H253211   0.773   0.228   0.533  0.1011 -0.2650  1.2578
10574TIP3   OH253212   3.219   5.667  14.470  0.3923  0.2886  0.6306
10574TIP3    H153213   3.127   5.645  14.458  0.5088 -0.0595  0.3566
10574TIP3    H253214   3.264   5.583  14.480  1.2169  0.1145 -3.0849
10575TIP3   OH253215   3.102   2.906  12.968 -0.1967 -0.3315 -0.0034
10575TIP3    H153216   3.041   2.920  12.895  1.1924 -0.3046 -1.2101
10575TIP3    H253217   3.109   2.810  12.974 -0.7172 -0.3419  0.4501
10576TIP3   OH253218   2.422   2.151   4.556  0.5414  0.5974  0.5557
10576TIP3    H153219   2.337   2.195   4.552  1.3497  2.3789  1.7623
10576TIP3    H253220   2.475   2.205   4.615  2.6695 -0.2048 -0.4980
10577TIP3   OH253221   0.175   6.047   5.104  0.3483  0.1835 -0.8352
10577TIP3    H153222   0.172   6.087   5.191 -1.8251  0.4241 -0.9499
10577TIP3    H253223   0.213   5.961   5.118  0.6373  0.4724  0.2414
10578TIP3   OH253224   4.617   3.525  15.751 -0.2477  0.9789  0.6710
10578TIP3    H153225   4.704   3.514  15.714 -0.1689  0.5680  0.9660
10578TIP3    H253226   4.610   3.619  15.771  0.5515  0.8450  1.6754
10579TIP3   OH253227   4.961   2.329   0.708  0.1139  0.3414  0.3568
10579TIP3    H153228   4.944   2.236   0.720 -1.6060  0.7262  1.2089
10579TIP3    H253229   5.046   2.333   0.666  1.8827 -1.5172  3.4167
10580TIP3   OH253230   5.189   3.270   2.094 -0.2908  0.3394 -0.0203
10580TIP3    H153231   5.233   3.311   2.020 -1.6341  1.3980 -0.2622
10580TIP3    H253232   5.116   3.327   2.114 -0.3826 -0.2952  1.6869
10581TIP3   OH253233   4.565   0.491  11.559 -0.1215 -0.6074  0.4475
10581TIP3    H153234   4.553   0.467  11.651  0.2597 -2.3551  0.0903
10581TIP3    H253235   4.654   0.464  11.538 -0.9182 -2.4432 -0.9824
10582TIP3   OH253236   5.599   2.976   6.625 -0.1691  0.4582 -0.2104
10582TIP3    H153237   5.602   3.019   6.711 -0.9562  0.8717 -0.3783
10582TIP3    H253238   5.640   3.038   6.565  2.2151 -0.6393  0.1471
10583TIP3   OH253239   4.885   5.387   1.148  0.5119 -0.7635  0.3389
10583TIP3    H153240   4.816   5.321   1.144  0.2354 -0.4826  0.4050
10583TIP3    H253241   4.910   5.402   1.057 -0.4183  0.0621  0.1956
10584TIP3   OH253242   1.684   4.691   3.234 -0.4948  0.4500  0.2292
10584TIP3    H153243   1.647   4.604   3.250  1.2709 -0.5652 -0.8365
10584TIP3    H253244   1.669   4.706   3.141 -1.3054  1.5755  0.5272
10585TIP3   OH253245   0.310   0.839   1.559  0.0272  0.4328  0.1601
10585TIP3    H153246   0.386   0.879   1.517 -0.3425  1.6360  0.5920
10585TIP3    H253247   0.323   0.858   1.652 -1.6904  2.2678  0.0778
10586TIP3   OH253248   3.409   0.950   3.548 -0.2650  0.2467  0.3684
10586TIP3    H153249   3.414   1.043   3.528 -0.4871  0.9727  3.2146
10586TIP3    H253250   3.498   0.918   3.533 -0.1087  0.9656 -0.3209
10587TIP3   OH253251   3.013   4.501   2.454  0.1682 -0.3905  0.2197
10587TIP3    H153252   3.010   4.428   2.393 -0.4774 -0.5863  0.4834
10587TIP3    H253253   3.016   4.461   2.540  1.4494 -0.1195  0.3288
10588TIP3   OH253254   6.380   1.313   3.856 -0.5906  0.6701 -0.7008
10588TIP3    H153255   6.440   1.250   3.895 -0.7109 -0.2717 -1.9646
10588TIP3    H253256   6.350   1.367   3.929  1.0351  0.5361  0.1037
10589TIP3   OH253257   1.710   1.343   4.006  0.2796  0.0462  0.0971
10589TIP3    H153258   1.761   1.381   3.935 -0.9267  1.6586  0.0460
10589TIP3    H253259   1.625   1.325   3.968 -0.1576  0.2584  0.9359
10590TIP3   OH253260   0.094   6.833  16.207 -0.3507 -0.3916 -0.2821
10590TIP3    H153261   0.116   6.754  16.255 -0.2421 -0.0953  0.1595
10590TIP3    H253262   0.111   6.811  16.115 -1.5175 -1.2826 -0.3021
10591TIP3   OH253263   4.334   3.004   3.302 -0.4718  0.3402  0.0014
10591TIP3    H153264   4.286   2.922   3.313 -1.0999  0.7126  0.0679
10591TIP3    H253265   4.359   3.005   3.210  0.5895 -0.4868  0.2545
10592TIP3   OH253266   5.113   3.930  16.145 -0.1612  0.3265 -0.5356
10592TIP3    H153267   5.081   3.857  16.199  0.4336  1.0660  0.8858
10592TIP3    H253268   5.120   3.894  16.057 -1.0031 -0.9911 -0.0870
10593TIP3   OH253269   1.723   5.531  10.764  0.0818  0.2891 -0.0725
10593TIP3    H153270   1.705   5.476  10.687  0.2418  1.0274 -0.6450
10593TIP3    H253271   1.754   5.614  10.728 -0.4958  0.8896  0.7776
10594TIP3   OH253272   2.056   1.323  11.069  0.2081 -0.0811  0.4670
10594TIP3    H153273   1.972   1.277  11.080 -0.1347  0.7576  1.4766
10594TIP3    H253274   2.034   1.402  11.020  0.0166  1.1324  2.3878
10595TIP3   OH253275   6.767   0.102   5.498 -0.4979 -0.2988  0.3241
10595TIP3    H153276   6.747   0.087   5.590 -0.8215 -1.9661  0.0055
10595TIP3    H253277   6.858   0.133   5.497 -0.1540 -1.2537  1.1339
10596TIP3   OH253278   0.336   0.309   3.704 -0.7590  0.3980  0.1392
10596TIP3    H153279   0.246   0.328   3.675 -0.9316 -2.3545 -1.4723
10596TIP3    H253280   0.355   0.223   3.667  2.5963  0.9027  0.4057
10597TIP3   OH253281   2.529   1.601  16.849 -0.1804 -0.1455  0.2809
10597TIP3    H153282   2.552   1.557  16.931  1.0994 -2.1014 -1.0325
10597TIP3    H253283   2.611   1.607  16.800 -0.8665  1.1722 -0.7831
10598TIP3   OH253284   1.202   3.314   0.978  0.6420 -0.1679  0.1067
10598TIP3    H153285   1.248   3.261   0.913  1.1000  1.7536 -1.2376
10598TIP3    H253286   1.266   3.331   1.046  0.6684 -0.8278  0.2528
10599TIP3   OH253287   3.356   6.561  17.089  0.1454  0.5554  0.0599
10599TIP3    H153288   3.265   6.571  17.117  0.2272  0.9848  0.1830
10599TIP3    H253289   3.399   6.641  17.118  0.5558  0.3738 -0.0322
10600TIP3   OH253290   2.720   1.954  14.709  0.0425 -0.3638  0.3799
10600TIP3    H153291   2.643   2.005  14.684  0.2681 -0.4027 -0.4381
10600TIP3    H253292   2.761   2.004  14.778 -0.0778  0.2544  0.0084
10601TIP3   OH253293   0.021   5.023  13.187 -0.6066 -0.3700 -0.0311
10601TIP3    H153294   0.026   5.100  13.130 -0.8062 -1.8436 -2.1254
10601TIP3    H253295   0.055   5.054  13.271  0.9807  1.5447 -1.2887
10602TIP3   OH253296   4.828   0.297   1.885  0.1601 -0.2235 -0.0805
10602TIP3    H153297   4.861   0.235   1.821 -0.5177  0.0910 -0.7614
10602TIP3    H253298   4.906   0.331   1.928  0.5876 -0.9115 -0.3006
10603TIP3   OH253299   4.190   0.532  10.432  0.1764  0.3577  0.4375
10603TIP3    H153300   4.137   0.460  10.397 -0.4142  0.8305  0.3486
10603TIP3    H253301   4.280   0.506  10.415 -0.0079 -0.5884  0.8304
10604TIP3   OH253302   5.983   1.341  15.479 -0.0856 -0.2252  0.3908
10604TIP3    H153303   6.054   1.304  15.532  1.1131  1.8367  0.3330
10604TIP3    H253304   6.000   1.308  15.390 -0.3280 -1.2314  0.6969
10605TIP3   OH253305   0.770   5.666   1.981  0.3308  0.1009 -0.0992
10605TIP3    H153306   0.740   5.608   2.051 -1.7596 -1.7187 -2.3086
10605TIP3    H253307   0.708   5.739   1.982 -0.6689 -0.6972 -0.9311
10606TIP3   OH253308   5.754   4.129   5.574  0.2834  0.7512 -0.0926
10606TIP3    H153309   5.666   4.106   5.543  0.7379 -1.0231 -0.1905
10606TIP3    H253310   5.813   4.095   5.506  1.1373 -0.4261  1.1838
10607TIP3   OH253311   3.853   2.049   5.076  0.5979  0.2564  0.5603
10607TIP3    H153312   3.908   2.128   5.080  0.0893  0.5727  1.9646
10607TIP3    H253313   3.841   2.024   5.168 -1.5769  0.1944  0.3158
10608TIP3   OH253314   3.243   6.535   2.009  0.1003  0.2715 -0.4221
10608TIP3    H153315   3.271   6.578   1.929  2.3944 -4.3489 -2.5180
10608TIP3    H253316   3.300   6.571   2.077 -0.0817  2.4272 -1.3417
10609TIP3   OH253317   6.712   1.026   2.956  0.0921 -0.8529 -0.2807
10609TIP3    H153318   6.659   0.967   2.903 -0.0114 -0.9970 -0.0210
10609TIP3    H253319   6.801   0.992   2.947 -0.1012 -1.6635  0.6652
10610TIP3   OH253320   4.048   4.363  16.441 -0.0012 -0.1774  0.0701
10610TIP3    H153321   3.990   4.334  16.371  0.6654  1.9604 -1.4769
10610TIP3    H253322   3.995   4.422  16.494  0.3350  0.7371 -0.5733
10611TIP3   OH253323   3.067   1.436   3.755 -0.0504 -0.3218 -0.1775
10611TIP3    H153324   3.037   1.413   3.667 -0.0752 -0.8381 -0.0337
10611TIP3    H253325   2.987   1.437   3.808  0.1767 -1.8992  0.2521
10612TIP3   OH253326   3.427   4.284  15.051 -0.2555  0.7627  0.0700
10612TIP3    H153327   3.419   4.204  15.102  0.2438  0.9947  0.5148
10612TIP3    H253328   3.499   4.268  14.991 -0.2523  0.8242  0.0565
10613TIP3   OH253329   0.199   3.544   2.544  0.1974  0.5455  0.3446
10613TIP3    H153330   0.247   3.579   2.470  0.3477 -0.1039  0.1259
10613TIP3    H253331   0.171   3.621   2.594 -0.1626  1.0017 -0.5397
10614TIP3   OH253332   4.914   3.049   0.088 -0.1681  0.2877 -0.7414
10614TIP3    H153333   4.964   3.067   0.008 -2.1045  0.2640 -2.0226
10614TIP3    H253334   4.926   2.955   0.103  0.8918  0.4507 -0.4843
10615TIP3   OH253335   6.612   5.126   3.475  0.4009 -0.2220 -0.1379
10615TIP3    H153336   6.615   5.097   3.384  0.4969 -0.1328 -0.1638
10615TIP3    H253337   6.654   5.212   3.474  0.5244 -0.2791  0.0121
10616TIP3   OH253338   5.933   3.057  15.058 -0.0769 -0.8723  0.0085
10616TIP3    H153339   5.840   3.035  15.056 -1.1551  3.0027 -1.2981
10616TIP3    H253340   5.944   3.106  15.139  0.9695 -1.5791  0.3175
10617TIP3   OH253341   5.362   6.295  10.893 -0.0400 -0.4191 -0.7244
10617TIP3    H153342   5.452   6.292  10.859  0.9976 -0.0177  1.8024
10617TIP3    H253343   5.365   6.244  10.974 -2.0201 -0.0951 -0.3989
10618TIP3   OH253344   1.315   3.445  16.920 -0.2725  0.1346  0.2768
10618TIP3    H153345   1.410   3.448  16.909 -0.2232  0.1542  0.7011
10618TIP3    H253346   1.284   3.527  16.882 -0.0391  0.5254  0.9125
10619TIP3   OH253347   5.706   4.056  16.664 -0.0076  0.0054  0.2799
10619TIP3    H153348   5.787   4.105  16.671  0.4548 -0.6648 -0.2859
10619TIP3    H253349   5.686   4.055  16.571 -0.6851  0.1935  0.4184
10620TIP3   OH253350   3.232   6.486  15.660  0.2587 -0.0030 -0.0991
10620TIP3    H153351   3.218   6.528  15.575 -0.5888  3.0119  1.4027
10620TIP3    H253352   3.147   6.449  15.683  0.2152  0.0831 -0.1197
10621TIP3   OH253353   4.117   5.865   2.258  0.6014 -0.4927  0.2672
10621TIP3    H153354   4.105   5.931   2.326 -0.8152  1.4037 -1.6826
10621TIP3    H253355   4.165   5.911   2.188  0.7751 -1.9348 -0.6032
10622TIP3   OH253356   3.777   4.906  12.186 -0.3447 -0.2563 -0.8436
10622TIP3    H153357   3.786   4.870  12.274 -0.8355 -1.8740 -1.4204
10622TIP3    H253358   3.700   4.963  12.191  0.9974  1.6114  0.3189
10623TIP3   OH253359   3.946   2.380  17.095  0.2244  0.4961  0.3903
10623TIP3    H153360   3.862   2.353  17.131  0.9692  0.1022  1.9429
10623TIP3    H253361   3.953   2.473  17.116  0.2797  0.4716  0.4813
10624TIP3   OH253362   5.419   1.370   4.067  0.8914  0.3380  0.0090
10624TIP3    H153363   5.378   1.323   3.995  0.7048  1.3760 -0.5799
10624TIP3    H253364   5.378   1.333   4.146 -1.9352  1.9296 -0.5604
10625TIP3   OH253365   0.795   6.512   4.602 -0.3468 -0.6322  0.0416
10625TIP3    H153366   0.843   6.438   4.566  0.9543  1.0538 -1.9103
10625TIP3    H253367   0.840   6.531   4.685  0.5750 -0.7945 -0.4111
10626TIP3   OH253368   3.074   5.310  13.907 -0.0157 -0.4880 -0.1403
10626TIP3    H153369   3.072   5.346  13.819 -0.1000 -0.8093 -0.2714
10626TIP3    H253370   3.118   5.226  13.898 -1.0177 -1.0366 -0.0699
10627TIP3   OH253371   6.004   1.638  17.042 -0.0597  0.1926 -0.5050
10627TIP3    H153372   6.060   1.708  17.010  0.9435 -0.5538 -0.4436
10627TIP3    H253373   6.062   1.561  17.047 -0.8201 -0.3468  0.5857
10628TIP3   OH253374   1.652   4.444   6.637 -0.3189 -0.6883 -0.1550
10628TIP3    H153375   1.719   4.376   6.640 -0.0635 -0.4394 -0.1616
10628TIP3    H253376   1.658   4.480   6.548 -0.2220 -0.4302 -0.0460
10629TIP3   OH253377   3.216   5.060  16.920 -0.6211  0.0946 -0.4620
10629TIP3    H153378   3.247   5.137  16.871 -1.2568 -0.2591 -1.4583
10629TIP3    H253379   3.230   5.083  17.012 -0.5717  1.3110 -0.7465
10630TIP3   OH253380   6.212   4.043  10.802 -0.1466  0.4834 -0.1720
10630TIP3    H153381   6.170   3.985  10.738 -0.0482  0.2267 -0.0008
10630TIP3    H253382   6.157   4.038  10.880 -0.0769  0.5355 -0.1188
10631TIP3   OH253383   1.501   3.297  13.731 -0.3534  0.4769 -0.1028
10631TIP3    H153384   1.525   3.207  13.754 -1.9789 -0.1639 -0.7334
10631TIP3    H253385   1.489   3.341  13.815  0.2826  0.0583  0.2157
10632TIP3   OH253386   2.644   6.482   3.878 -0.3500  0.2332 -0.0901
10632TIP3    H153387   2.607   6.465   3.964 -0.6524 -2.0257 -0.5841
10632TIP3    H253388   2.597   6.559   3.846  0.5368  1.7979  2.1240
10633TIP3   OH253389   6.334   1.319   3.585 -0.3242 -0.9631  0.5713
10633TIP3    H153390   6.412   1.359   3.548  0.6569 -2.3324  1.0704
10633TIP3    H253391   6.350   1.318   3.680 -1.6905  0.2215  0.8535
10634TIP3   OH253392   6.745   6.064   0.547 -0.2871  0.8754 -0.1352
10634TIP3    H153393   6.709   6.050   0.634 -1.1787  1.8626 -0.3180
10634TIP3    H253394   6.755   5.976   0.510 -3.1620  0.5098 -0.3067
10635TIP3   OH253395   5.570   3.273   0.766 -0.2798  0.3097 -0.1167
10635TIP3    H153396   5.488   3.245   0.804 -0.0214 -0.0089  0.2122
10635TIP3    H253397   5.627   3.196   0.769  0.6765  1.0293  1.4720
10636TIP3   OH253398   4.594   4.124   4.398 -0.2049  0.7518 -0.5886
10636TIP3    H153399   4.657   4.117   4.470  0.5381  0.8371 -1.2175
10636TIP3    H253400   4.648   4.144   4.322 -1.1299  2.0689 -0.9085
10637TIP3   OH253401   5.608   5.378  15.319 -0.0475  0.2671 -0.2134
10637TIP3    H153402   5.561   5.418  15.246  2.1672  2.1905 -0.7135
10637TIP3    H253403   5.614   5.286  15.296  0.0939  0.7304 -2.2277
10638TIP3   OH253404   3.495   2.566  16.454 -0.4271  0.2953  0.0741
10638TIP3    H153405   3.414   2.530  16.489 -0.4239 -2.3223 -2.2242
10638TIP3    H253406   3.468   2.641  16.401 -1.4915 -0.8868 -1.1256
10639TIP3   OH253407   5.943   3.933  12.857  0.0175  0.2891 -0.3592
10639TIP3    H153408   5.928   3.884  12.938 -0.6347  1.5650  0.3336
10639TIP3    H253409   6.036   3.922  12.839  0.4556  0.9895  1.2849
10640TIP3   OH253410   4.616   5.968   3.049  0.1906 -0.4297  0.2567
10640TIP3    H153411   4.709   5.977   3.026  0.0716  0.8304  0.1793
10640TIP3    H253412   4.615   5.964   3.144  0.2397  0.9913  0.3297
10641TIP3   OH253413   5.090   5.953   4.203  0.1080  0.2108  0.4488
10641TIP3    H153414   5.053   5.903   4.130  1.1178  1.9481 -1.3476
10641TIP3    H253415   5.014   5.983   4.253 -0.6793  0.0246 -0.6059
10642TIP3   OH253416   2.330   5.541  12.094  0.2912  0.4088  0.1105
10642TIP3    H153417   2.279   5.491  12.030 -0.0117 -0.1225  0.7611
10642TIP3    H253418   2.315   5.633  12.070  1.9494  0.2075 -1.9490
10643TIP3   OH253419   1.133   4.166  13.257  0.4061  0.5623 -0.2674
10643TIP3    H153420   1.139   4.097  13.323  2.2893 -0.9222 -1.8561
10643TIP3    H253421   1.085   4.127  13.184  1.5709  0.8352 -1.2287
10644TIP3   OH253422   2.602   1.287   4.914  0.1248  0.2771  0.3763
10644TIP3    H153423   2.616   1.318   4.825 -0.3007  0.9784  0.5496
10644TIP3    H253424   2.682   1.311   4.961  0.0110  0.6432  0.3826
10645TIP3   OH253425   1.281   4.198   5.856 -0.1772 -0.1247 -0.4134
10645TIP3    H153426   1.231   4.153   5.925  1.6468 -1.9463 -0.1657
10645TIP3    H253427   1.371   4.199   5.890  0.4821  0.3427 -2.0999
10646TIP3   OH253428   2.015   5.348   0.259 -0.4478 -0.0936 -0.5449
10646TIP3    H153429   2.079   5.405   0.218  1.5850  0.0536  2.4730
10646TIP3    H253430   1.978   5.400   0.330 -0.7274 -1.5283  0.4271
10647TIP3   OH253431   1.545   4.556  14.762 -0.6137  0.3276  0.2019
10647TIP3    H153432   1.523   4.635  14.712 -1.3949  0.1617  0.2806
10647TIP3    H253433   1.640   4.547  14.750 -0.5996  0.9719 -0.2549
10648TIP3   OH253434   6.072   1.697  13.544  0.0459  0.2100  0.3843
10648TIP3    H153435   6.036   1.734  13.625 -0.4381  0.4808  0.0524
10648TIP3    H253436   6.074   1.770  13.483  1.7065  0.3369  0.5485
10649TIP3   OH253437   2.255   3.662  14.713 -0.1662  0.1642 -0.3030
10649TIP3    H153438   2.255   3.720  14.636  0.7891 -1.0763 -1.2893
10649TIP3    H253439   2.346   3.662  14.743 -1.0022  3.1378  2.9076
10650TIP3   OH253440   6.225   1.023   0.337 -0.4502  0.1107  0.0475
10650TIP3    H153441   6.180   0.974   0.405 -0.1340 -0.4180 -0.1122
10650TIP3    H253442   6.287   0.959   0.299  2.3593  1.4539  1.9931
10651TIP3   OH253443   5.117   0.775  12.497  0.1975 -0.1897 -0.3072
10651TIP3    H153444   5.079   0.833  12.430 -0.6075 -0.7354 -0.3419
10651TIP3    H253445   5.048   0.710  12.514  1.0357 -1.0647 -0.1820
10652TIP3   OH253446   5.896   1.043   5.448 -0.7129 -0.3761  0.4760
10652TIP3    H153447   5.886   1.134   5.420 -0.2042  0.0309  1.5404
10652TIP3    H253448   5.991   1.030   5.451 -0.7527 -0.5034  1.6285
10653TIP3   OH253449   4.671   1.157  13.213 -0.1190 -0.5967  0.7995
10653TIP3    H153450   4.717   1.113  13.142  1.4025 -0.5310  1.6767
10653TIP3    H253451   4.615   1.221  13.170 -2.4569 -3.3058 -0.5287
10654TIP3   OH253452   4.397   3.690  10.954 -0.6380  0.0162  0.0658
10654TIP3    H153453   4.353   3.610  10.928 -2.1151  1.2838 -1.5690
10654TIP3    H253454   4.382   3.751  10.882  0.4718  1.7657  1.2134
10655TIP3   OH253455   1.853   5.962  11.871 -0.6283 -0.1309  0.0659
10655TIP3    H153456   1.789   6.007  11.926 -0.2868 -0.7073  0.9719
10655TIP3    H253457   1.894   5.898  11.930  0.1078 -0.4238 -0.7391
10656TIP3   OH253458   2.544   6.401   2.021 -0.3054 -0.3296 -0.0738
10656TIP3    H153459   2.556   6.306   2.027 -1.2362 -0.3614  4.0152
10656TIP3    H253460   2.460   6.418   2.062  0.0334  2.3434 -0.2705
10657TIP3   OH253461   1.685   5.762   4.772  0.1260 -0.1031  0.1164
10657TIP3    H153462   1.629   5.827   4.814 -0.0621  0.1880 -0.5744
10657TIP3    H253463   1.742   5.730   4.843 -1.6854 -1.2796  1.1045
10658TIP3   OH253464   0.626   5.446   5.118 -0.6112  0.3366  0.3404
10658TIP3    H153465   0.558   5.378   5.124  0.3266 -0.6595 -0.0233
10658TIP3    H253466   0.580   5.523   5.084 -1.6206 -0.2257  0.3854
10659TIP3   OH253467   4.315   1.238  16.507 -0.0804 -0.5999  0.9603
10659TIP3    H153468   4.316   1.170  16.575 -1.1577 -1.6630 -0.0303
10659TIP3    H253469   4.290   1.191  16.427 -0.4534  0.9021  0.1586
10660TIP3   OH253470   1.663   4.579   4.060  0.3293  0.1802 -0.5177
10660TIP3    H153471   1.651   4.620   4.146 -0.0390 -3.1741  1.1978
10660TIP3    H253472   1.675   4.653   4.000 -1.1789  2.7671  2.0796
10661TIP3   OH253473   3.788   5.053  11.155  0.2104  0.2476 -0.1712
10661TIP3    H153474   3.808   5.021  11.066  3.2093  1.2982  0.0208
10661TIP3    H253475   3.785   5.148  11.146 -0.5331  0.3143  0.6855
10662TIP3   OH253476   1.426   5.402   2.479  0.3224  0.3024  0.0494
10662TIP3    H153477   1.418   5.497   2.475  0.2568  0.2813 -0.4525
10662TIP3    H253478   1.359   5.369   2.419  1.8755  0.0350 -1.6771
10663TIP3   OH253479   0.120   4.656   5.855  0.1818  0.3357 -0.0659
10663TIP3    H153480   0.070   4.721   5.905  1.5144  1.0651  0.3742
10663TIP3    H253481   0.141   4.588   5.920 -0.4177 -0.0833 -0.3040
10664TIP3   OH253482   3.905   0.085   0.463 -0.0694  0.1119  0.8350
10664TIP3    H153483   3.910   0.029   0.385 -1.0698  1.9011 -0.6144
10664TIP3    H253484   3.947   0.035   0.532  0.0392 -1.9455 -0.6392
10665TIP3   OH253485   3.914   1.471  12.665  0.6005 -0.4068  0.0871
10665TIP3    H153486   3.825   1.448  12.639  0.2915 -0.5278  1.2022
10665TIP3    H253487   3.932   1.413  12.739  1.4114 -0.0061  0.2073
10666TIP3   OH253488   4.302   4.745   0.964  0.0052 -0.0046 -0.4329
10666TIP3    H153489   4.288   4.816   0.901  3.5105  2.0959  0.8397
10666TIP3    H253490   4.255   4.774   1.042  1.6636  1.1856  0.1774
10667TIP3   OH253491   0.591   5.884   3.872  0.0159  0.0124 -0.5817
10667TIP3    H153492   0.533   5.843   3.808  1.9215 -1.4052 -1.4661
10667TIP3    H253493   0.540   5.884   3.954 -1.0310 -1.6576 -1.1920
10668TIP3   OH253494   3.367   1.329  13.259 -0.5795 -0.1044 -0.1206
10668TIP3    H153495   3.431   1.341  13.188 -1.1411 -2.7722 -1.2268
10668TIP3    H253496   3.420   1.329  13.339  0.5737 -0.4029 -0.8495
10669TIP3   OH253497   0.458   2.501  15.226 -0.2247 -0.2310  0.4768
10669TIP3    H153498   0.547   2.507  15.259 -0.1837 -1.0362  0.5367
10669TIP3    H253499   0.469   2.486  15.132 -0.2485 -1.8220  0.7030
10670TIP3   OH253500   5.866   0.954   0.601  0.2081  0.3719  0.3712
10670TIP3    H153501   5.860   1.048   0.619 -0.5754  0.4779 -0.3659
10670TIP3    H253502   5.865   0.913   0.687 -3.4817  0.8517  0.7508
10671TIP3   OH253503   2.921   3.425   0.818 -0.4058  0.1483 -0.1663
10671TIP3    H153504   2.894   3.339   0.785  1.6395 -0.5473 -0.1395
10671TIP3    H253505   2.845   3.482   0.801 -1.8544 -1.6619 -0.0583
10672TIP3   OH253506   0.354   6.031  11.123 -0.6062 -0.1417  0.0013
10672TIP3    H153507   0.288   6.047  11.056  0.3595  1.9732 -0.5475
10672TIP3    H253508   0.317   6.069  11.203 -0.3600  0.4152 -0.1446
10673TIP3   OH253509   3.339   5.664   2.453 -0.1405  0.3852  0.3390
10673TIP3    H153510   3.288   5.620   2.385 -0.2824  0.3148  0.4904
10673TIP3    H253511   3.415   5.606   2.465 -0.0182  0.4946  0.1082
10674TIP3   OH253512   4.355   3.522  15.671 -0.1255 -0.0798  0.3453
10674TIP3    H153513   4.450   3.526  15.684  0.1522 -2.6107 -0.3949
10674TIP3    H253514   4.337   3.430  15.655 -3.1450 -0.2001  3.3304
10675TIP3   OH253515   5.620   6.510   1.253 -0.1399  0.1334 -0.1716
10675TIP3    H153516   5.669   6.475   1.328  0.2184  0.4823 -0.2409
10675TIP3    H253517   5.655   6.597   1.240 -3.4487  2.0834  2.3104
10676TIP3   OH253518   2.401   3.555  11.845 -0.4603  0.1251  0.5483
10676TIP3    H153519   2.487   3.590  11.868 -0.6985  0.8478  0.3675
10676TIP3    H253520   2.382   3.592  11.759 -2.2538  2.5299  1.8323
10677TIP3   OH253521   5.044   6.395  11.279  0.3720  0.7110 -0.8718
10677TIP3    H153522   5.131   6.359  11.264  0.1797  0.0070 -0.3443
10677TIP3    H253523   5.049   6.485  11.247  1.5967  1.0097  0.0833
10678TIP3   OH253524   1.916   5.212  11.568  0.1168  0.4423  0.3749
10678TIP3    H153525   1.836   5.215  11.515 -0.3787  0.0603  1.0749
10678TIP3    H253526   1.912   5.290  11.623  0.2448  0.4440  0.3825
10679TIP3   OH253527   4.190   4.985   4.514 -0.1311 -0.2792  0.4473
10679TIP3    H153528   4.257   5.043   4.549  0.5729 -0.2330 -0.9047
10679TIP3    H253529   4.238   4.921   4.462 -1.0348 -1.1038  0.5884
10680TIP3   OH253530   1.930   4.150  12.329 -0.0517 -0.2393 -0.5947
10680TIP3    H153531   2.000   4.125  12.269 -0.5387  0.0577 -1.2965
10680TIP3    H253532   1.883   4.068  12.348 -0.4053 -0.2029 -1.2870
10681TIP3   OH253533   4.756   0.257  15.933  0.1923 -0.0111 -0.7326
10681TIP3    H153534   4.827   0.306  15.975 -0.4636  0.0826  0.3011
10681TIP3    H253535   4.750   0.176  15.984  1.3234 -1.2389 -2.4728
10682TIP3   OH253536   2.503   1.886  13.909 -0.8625 -0.6168 -0.5354
10682TIP3    H153537   2.489   1.942  13.833 -2.0410  0.4767  0.4404
10682TIP3    H253538   2.532   1.946  13.978  1.6736 -1.7870 -0.4550
10683TIP3   OH253539   5.052   3.025   5.818  0.1098 -0.2102  0.0411
10683TIP3    H153540   5.140   2.992   5.802  0.0437 -0.8251  0.8773
10683TIP3    H253541   4.994   2.952   5.795 -0.1423 -0.0378  0.1180
10684TIP3   OH253542   6.488   5.229   4.847 -0.5476 -0.0832 -0.6219
10684TIP3    H153543   6.455   5.149   4.807  1.7777 -0.9255 -1.0001
10684TIP3    H253544   6.575   5.242   4.807  1.4521 -0.3488  3.1918
10685TIP3   OH253545   2.457   6.501   5.558  0.3158 -0.0744 -0.3695
10685TIP3    H153546   2.408   6.580   5.578 -0.7851 -0.5742 -0.9693
10685TIP3    H253547   2.401   6.430   5.589  0.2697 -0.6954 -1.7979
10686TIP3   OH253548   5.183   1.649  15.507  0.0892  0.3591 -0.1580
10686TIP3    H153549   5.197   1.580  15.443  2.2495  1.1654 -0.6205
10686TIP3    H253550   5.093   1.678  15.492 -0.6396 -1.8780 -0.3678
10687TIP3   OH253551   4.538   3.424  12.196  0.0339  0.1316  0.0047
10687TIP3    H153552   4.585   3.367  12.256 -1.5452 -0.9721  0.2561
10687TIP3    H253553   4.549   3.512  12.232 -0.2291 -0.4113  1.4852
10688TIP3   OH253554   5.559   2.215  13.528  0.0484  0.5116  0.0294
10688TIP3    H153555   5.620   2.181  13.594  0.4048  1.2536  0.0927
10688TIP3    H253556   5.585   2.306  13.517 -0.4225  0.5634 -0.6731
10689TIP3   OH253557   0.955   0.650   4.133  0.0490  0.2920 -0.3667
10689TIP3    H153558   1.034   0.667   4.184  0.7233  2.5759 -2.0210
10689TIP3    H253559   0.980   0.580   4.073  0.3679  0.0061  0.0972
10690TIP3   OH253560   6.237   1.058  14.235  0.0238  0.2729 -0.6846
10690TIP3    H153561   6.296   1.132  14.224 -1.6624  1.5233 -1.9227
10690TIP3    H253562   6.171   1.089  14.298 -0.7640 -0.1097 -1.2956
10691TIP3   OH253563   2.760   2.597  15.237 -0.1273  0.7573  0.6381
10691TIP3    H153564   2.824   2.546  15.287  1.4160  1.4224 -0.5972
10691TIP3    H253565   2.696   2.625  15.303  0.5649 -0.3438  1.8302
10692TIP3   OH253566   3.180   1.844  14.089 -0.8929 -0.4671  0.0417
10692TIP3    H153567   3.125   1.831  14.167 -1.6672 -2.1028 -0.7411
10692TIP3    H253568   3.170   1.764  14.039 -0.0860  0.4004 -1.5757
10693TIP3   OH253569   5.823   6.198   3.365 -0.0924 -0.1746 -0.1443
10693TIP3    H153570   5.891   6.240   3.417 -0.0344 -1.0771  0.5253
10693TIP3    H253571   5.870   6.138   3.307 -0.2007  0.4279 -0.8741
10694TIP3   OH253572   4.159   4.012  12.321 -0.1258  0.0800 -0.9984
10694TIP3    H153573   4.133   4.002  12.229  1.3287 -0.4045 -1.3834
10694TIP3    H253574   4.254   4.025  12.318 -0.2562  1.7736  0.3347
10695TIP3   OH253575   2.580   3.681   3.598 -0.1709 -0.2491  0.0339
10695TIP3    H153576   2.542   3.596   3.621 -1.8371  0.8018  1.3064
10695TIP3    H253577   2.520   3.746   3.633  1.3567  1.5045 -0.3986
10696TIP3   OH253578   6.050   4.416   1.850  0.2351 -0.1995  0.5574
10696TIP3    H153579   6.047   4.396   1.757  3.8052  1.3248 -0.0404
10696TIP3    H253580   6.089   4.338   1.890  2.1306  0.4845  0.1462
10697TIP3   OH253581   1.207   1.032   2.825  0.4406  0.0330 -0.3789
10697TIP3    H153582   1.238   1.087   2.896  2.1815  0.0961 -1.1486
10697TIP3    H253583   1.188   0.948   2.867  4.0617 -0.8180 -0.1739
10698TIP3   OH253584   2.850   6.484   1.079  0.1610  0.2331 -0.1437
10698TIP3    H153585   2.940   6.487   1.113 -0.2935  1.9395  1.0891
10698TIP3    H253586   2.797   6.460   1.155 -0.5194  0.2826 -0.5942
10699TIP3   OH253587   0.111   1.894   4.731  0.6312 -0.4713  0.2345
10699TIP3    H153588   0.072   1.935   4.809  0.6341 -0.6446  0.3270
10699TIP3    H253589   0.048   1.827   4.705 -0.8380  1.5220 -1.6703
10700TIP3   OH253590   6.698   0.412  14.230 -0.1742  0.2059  0.6296
10700TIP3    H153591   6.660   0.419  14.142  0.4481  0.5173  0.3803
10700TIP3    H253592   6.663   0.331  14.265  0.0285 -0.2189 -0.1322
10701TIP3   OH253593   4.829   2.082   0.766  0.4506 -0.4681  0.1753
10701TIP3    H153594   4.799   2.020   0.700  2.1432  0.7946 -1.8932
10701TIP3    H253595   4.771   2.067   0.841 -1.8451 -1.6839 -1.7070
10702TIP3   OH253596   3.815   5.097   3.340  0.2055  0.2795  0.9170
10702TIP3    H153597   3.783   5.170   3.286 -1.7184  0.5087  2.2379
10702TIP3    H253598   3.866   5.043   3.280 -1.4474  0.7476 -1.0290
10703TIP3   OH253599   0.364   0.649   4.528 -0.7394 -0.1052  0.4402
10703TIP3    H153600   0.285   0.683   4.487 -0.1264  0.8866  0.0320
10703TIP3    H253601   0.372   0.560   4.494 -0.7500  0.3749 -0.9136
10704TIP3   OH253602   2.067   5.248  11.088 -0.5685  0.2871 -0.0550
10704TIP3    H153603   2.007   5.192  11.137 -0.2053 -1.8526 -1.8889
10704TIP3    H253604   2.011   5.298  11.028 -0.7691  0.8261  0.5714
10705TIP3   OH253605   6.183   5.661  14.503 -0.2363 -0.0025  0.2065
10705TIP3    H153606   6.196   5.691  14.593  2.2019  0.9310 -0.3961
10705TIP3    H253607   6.159   5.740  14.454  2.2628  0.3100 -0.6360
10706TIP3   OH253608   5.685   3.719   3.072  0.0131 -0.4060 -0.0951
10706TIP3    H153609   5.687   3.740   2.979 -0.7855  0.5513  0.0856
10706TIP3    H253610   5.721   3.797   3.115 -2.0610  0.2654  0.5374
10707TIP3   OH253611   6.619   4.824  13.378 -1.0324 -0.1712  0.7265
10707TIP3    H153612   6.654   4.778  13.454 -0.9274 -2.2049 -0.4832
10707TIP3    H253613   6.680   4.803  13.308  0.8176  4.3478  0.6344
10708TIP3   OH253614   4.426   3.010  14.640 -0.4542 -0.4038  0.4617
10708TIP3    H153615   4.460   3.035  14.725  1.3175  1.4463 -0.7008
10708TIP3    H253616   4.423   3.091  14.590  0.0721 -1.6327 -1.7208
10709TIP3   OH253617   1.945   6.482  16.394 -0.3160  0.2129 -0.2392
10709TIP3    H153618   1.989   6.501  16.477  0.9310 -1.0083 -0.5910
10709TIP3    H253619   1.872   6.425  16.419 -0.4318  0.5010  0.0983
10710TIP3   OH253620   2.201   3.285   3.336  0.2607  0.0748 -0.3547
10710TIP3    H153621   2.149   3.240   3.402 -0.1481  0.5217 -0.3688
10710TIP3    H253622   2.143   3.353   3.301  0.3135 -0.4539 -1.4990
10711TIP3   OH253623   3.605   6.358   2.464 -0.6070 -0.2453  0.1290
10711TIP3    H153624   3.515   6.351   2.494 -0.3782  0.1574  0.9457
10711TIP3    H253625   3.604   6.323   2.375 -1.4345 -0.8627  0.3730
10712TIP3   OH253626   4.904   5.497  11.691  0.1318  0.2754  0.1170
10712TIP3    H153627   4.955   5.486  11.610  0.1378  1.2258 -0.0242
10712TIP3    H253628   4.822   5.536  11.662  0.2185  0.8257  0.5850
10713TIP3   OH253629   5.509   2.848   1.627 -0.0141 -0.6932  0.6293
10713TIP3    H153630   5.440   2.833   1.562 -0.1455  2.7509 -0.2367
10713TIP3    H253631   5.590   2.849   1.575  0.1382 -0.1480  0.8772
10714TIP3   OH253632   5.911   5.757   2.809  0.1773  0.3756  0.1913
10714TIP3    H153633   5.904   5.848   2.780 -1.0629  0.0663 -0.5102
10714TIP3    H253634   5.996   5.728   2.776  1.8360  2.0198  2.6349
10715TIP3   OH253635   6.594   5.400   3.421 -0.3003  0.0009  0.4774
10715TIP3    H153636   6.517   5.415   3.474 -0.3078 -1.4540  0.9204
10715TIP3    H253637   6.570   5.430   3.333 -0.6673  1.3786  1.0278
10716TIP3   OH253638   1.345   2.973  16.020  0.6949 -0.6427 -0.3855
10716TIP3    H153639   1.354   2.878  16.026  1.4983 -0.5055  1.0367
10716TIP3    H253640   1.251   2.988  16.023  0.4807 -1.4374 -1.9555
10717TIP3   OH253641   6.283   3.585   0.758 -0.2594  0.3586 -0.2448
10717TIP3    H153642   6.188   3.571   0.757 -0.3505  0.9525 -1.0905
10717TIP3    H253643   6.320   3.502   0.787 -1.0680  0.3227  0.7389
10718TIP3   OH253644   6.372   4.131  12.285  0.2679 -0.3276 -0.4145
10718TIP3    H153645   6.453   4.147  12.333  0.5746 -2.4877 -0.1236
10718TIP3    H253646   6.361   4.209  12.230  0.9936  1.3148  1.6046
10719TIP3   OH253647   0.059   1.635   4.588  0.3867 -0.6951  0.2755
10719TIP3    H153648   0.023   1.610   4.672 -0.1293 -0.3750  0.1559
10719TIP3    H253649  -0.009   1.613   4.524  0.4334 -0.1726  0.0359
10720TIP3   OH253650   5.319   2.095  12.723  0.4051  0.1556 -0.4491
10720TIP3    H153651   5.412   2.073  12.733  0.6062  1.4142  0.8986
10720TIP3    H253652   5.274   2.034  12.781  0.7027  1.3365  1.1144
10721TIP3   OH253653   2.662   1.448   3.427 -0.0541 -0.0288 -0.1074
10721TIP3    H153654   2.708   1.429   3.345  1.6232  1.1501  0.5180
10721TIP3    H253655   2.584   1.496   3.399  0.1783 -0.1616 -1.0341
10722TIP3   OH253656   2.328   3.399   1.134  0.4781  0.3991  0.6642
10722TIP3    H153657   2.420   3.381   1.113  0.8950  1.2072  1.6819
10722TIP3    H253658   2.331   3.479   1.188 -0.5535 -0.9836  2.9247
10723TIP3   OH253659   2.185   6.287  13.878 -0.7828  0.2584 -0.6960
10723TIP3    H153660   2.211   6.279  13.786 -0.2385  0.6115 -0.5784
10723TIP3    H253661   2.188   6.197  13.912  3.2255  0.5078  0.0729
10724TIP3   OH253662   2.453   5.207   4.550 -0.3375  0.2031  0.2592
10724TIP3    H153663   2.521   5.198   4.617 -0.1883 -3.1271 -0.1658
10724TIP3    H253664   2.376   5.165   4.589 -1.5345  1.9478 -0.1323
10725TIP3   OH253665   2.027   2.906   4.534 -0.1946 -0.4991  0.1049
10725TIP3    H153666   2.120   2.905   4.514 -0.3435 -0.3097 -0.6402
10725TIP3    H253667   2.010   2.994   4.567 -0.2406 -0.2971 -0.4461
10726TIP3   OH253668   6.288   2.282  14.420 -0.1322 -0.3005  0.3376
10726TIP3    H153669   6.246   2.361  14.455  0.5166  1.0606 -1.7340
10726TIP3    H253670   6.281   2.291  14.325 -0.0134 -2.7727  0.0225
10727TIP3   OH253671   1.497   3.175  14.743 -0.1429  0.4241  0.2527
10727TIP3    H153672   1.520   3.262  14.775  1.5695 -0.3852  1.3830
10727TIP3    H253673   1.500   3.184  14.648  0.8696  1.4119  0.3480
10728TIP3   OH253674   4.742   3.737   2.486  0.4205  0.2494  0.3831
10728TIP3    H153675   4.725   3.828   2.513 -0.9968  0.1355 -0.0938
10728TIP3    H253676   4.819   3.712   2.538  1.1934  1.9016  0.1080
10729TIP3   OH253677   6.019   6.849   6.179  0.2718 -0.1719  0.1977
10729TIP3    H153678   6.002   6.842   6.273  1.0382  1.2564  0.4818
10729TIP3    H253679   6.070   6.771   6.158  1.7584  0.4117  1.4167
10730TIP3   OH253680   2.768   0.258  13.256  0.2432 -0.4168 -0.0664
10730TIP3    H153681   2.776   0.346  13.293 -0.5147  0.1478 -1.1824
10730TIP3    H253682   2.821   0.202  13.313  0.9300  0.8063  0.5122
10731TIP3   OH253683   5.807   5.933  12.696 -0.1313 -0.3281  0.4096
10731TIP3    H153684   5.744   5.871  12.659 -0.9755  1.1614 -0.7708
10731TIP3    H253685   5.864   5.956  12.622  1.1477 -0.8209  1.2024
10732TIP3   OH253686   5.466   3.862  14.212  0.0563  0.0530  0.0571
10732TIP3    H153687   5.456   3.806  14.135  3.0206  0.8034 -0.9876
10732TIP3    H253688   5.377   3.892  14.230 -1.4899 -3.8823 -0.0803
10733TIP3   OH253689   4.311   6.068   2.996  0.2748  0.1876 -0.1293
10733TIP3    H153690   4.401   6.062   3.028  0.3604 -3.6078 -0.5792
10733TIP3    H253691   4.320   6.089   2.903  0.6548  0.3343 -0.0617
10734TIP3   OH253692   4.827   1.844  14.524 -0.3682  0.5397 -0.5862
10734TIP3    H153693   4.922   1.842  14.536 -0.5397 -2.2440  1.0294
10734TIP3    H253694   4.799   1.925  14.568  1.0017  0.0121  1.3829
10735TIP3   OH253695   6.533   4.264   4.197  0.4568  0.1243  0.6352
10735TIP3    H153696   6.575   4.235   4.117  1.3552  0.4073  0.9919
10735TIP3    H253697   6.463   4.322   4.167  1.9410  1.7293  0.0701
10736TIP3   OH253698   3.352   3.994  12.809  0.0018  0.1437  0.1618
10736TIP3    H153699   3.434   4.041  12.795  0.1603 -0.1460  0.1092
10736TIP3    H253700   3.360   3.957  12.897  0.8042 -1.6030 -0.5935
10737TIP3   OH253701   1.413   0.384  10.610 -0.1628 -0.1742 -0.1084
10737TIP3    H153702   1.329   0.421  10.582 -1.1449 -2.2734 -0.1433
10737TIP3    H253703   1.418   0.299  10.565  0.9924 -1.0017  1.4847
10738TIP3   OH253704   3.206   2.399  15.864 -0.1982  0.2536 -0.2217
10738TIP3    H153705   3.171   2.311  15.871 -2.1393  0.8280 -1.6878
10738TIP3    H253706   3.137   2.449  15.820  0.3322  2.8148  1.6436
10739TIP3   OH253707   4.800   6.097  11.944 -0.1662  0.2076 -0.3538
10739TIP3    H153708   4.797   6.070  12.035  0.9868 -1.6562 -0.8178
10739TIP3    H253709   4.836   6.186  11.947 -0.5540  0.3456  1.0021
10740TIP3   OH253710   0.235   4.172   0.374  0.0101 -0.3239 -0.4268
10740TIP3    H153711   0.324   4.139   0.359  0.2923  0.3155 -0.2014
10740TIP3    H253712   0.178   4.108   0.332  0.6416 -0.0252 -1.7619
10741TIP3   OH253713   1.727   6.040  12.510  0.2894 -0.3703 -0.2644
10741TIP3    H153714   1.650   6.019  12.563  0.7688 -1.0888  0.1639
10741TIP3    H253715   1.758   6.123  12.545  0.2946 -0.5795  0.2435
10742TIP3   OH253716   1.325   6.018  16.511  0.5347  0.5454  0.5357
10742TIP3    H153717   1.342   6.001  16.418 -0.9195  0.3059  0.2938
10742TIP3    H253718   1.398   5.976  16.556  1.2316  0.6114 -0.4841
10743TIP3   OH253719   6.733   4.860   1.915 -0.1521 -0.0499  0.1108
10743TIP3    H153720   6.752   4.767   1.920  0.4969 -0.0065 -1.0824
10743TIP3    H253721   6.651   4.871   1.963 -0.4517 -1.3002 -0.0882
10744TIP3   OH253722   6.117   0.302  13.365 -0.0873  0.0147  0.1710
10744TIP3    H153723   6.083   0.372  13.420 -2.3734 -0.2347 -0.8354
10744TIP3    H253724   6.054   0.231  13.373  0.9632 -1.0627 -0.6509
10745TIP3   OH253725   4.135   0.660   5.113 -0.4242 -0.0946  0.5968
10745TIP3    H153726   4.119   0.566   5.123 -1.1434  0.0524  0.8872
10745TIP3    H253727   4.229   0.671   5.131 -0.4432 -0.6821  1.0715
10746TIP3   OH253728   0.944   0.554  10.453 -0.1635 -0.0776  0.0710
10746TIP3    H153729   0.868   0.534  10.399 -0.2114 -0.4864  0.2902
10746TIP3    H253730   0.964   0.645  10.433  0.1725 -0.3935 -1.0771
10747TIP3   OH253731   3.861   5.493  15.603  0.0365 -0.7252 -0.2216
10747TIP3    H153732   3.868   5.412  15.552  0.3852 -1.0537  0.3306
10747TIP3    H253733   3.868   5.464  15.694  0.8121 -0.0095 -0.0415
10748TIP3   OH253734   5.210   3.578   6.352 -0.1416  0.3718 -0.3947
10748TIP3    H153735   5.180   3.491   6.376  0.5229 -0.0530 -1.0719
10748TIP3    H253736   5.287   3.593   6.407  1.4416 -0.6434 -2.2578
10749TIP3   OH253737   4.640   4.064   0.645  0.4101 -0.3766 -0.0444
10749TIP3    H153738   4.679   4.144   0.679  2.3384 -1.8896  1.5743
10749TIP3    H253739   4.587   4.030   0.717  1.6300 -1.7930  0.2398
10750TIP3   OH253740   1.712   0.487   4.797  0.4512 -0.1428  0.4971
10750TIP3    H153741   1.672   0.406   4.767  1.6464 -0.3240 -0.6837
10750TIP3    H253742   1.738   0.533   4.717 -1.4350  2.0887  1.0591
10751TIP3   OH253743   2.068   6.729   0.702  0.1996 -0.4804  0.4931
10751TIP3    H153744   2.108   6.747   0.617  2.1910  0.7874  1.6086
10751TIP3    H253745   2.142   6.705   0.758 -0.8953 -0.1866  2.1357
10752TIP3   OH253746   0.434   3.648  16.572 -0.0412 -0.0398  0.6751
10752TIP3    H153747   0.523   3.616  16.556  0.0813  1.0135 -0.9955
10752TIP3    H253748   0.379   3.586  16.524 -0.1275 -0.0788  0.8246
10753TIP3   OH253749   0.380   0.824  12.030 -0.2846  0.3723 -0.0110
10753TIP3    H153750   0.407   0.896  12.088  0.1001 -0.3849  0.7738
10753TIP3    H253751   0.287   0.813  12.047 -0.1437  0.0636  0.5727
10754TIP3   OH253752   0.886   1.081  12.005 -0.0112 -0.0586 -0.1696
10754TIP3    H153753   0.890   1.146  11.935  0.6626 -1.3994 -1.4237
10754TIP3    H253754   0.935   1.006  11.971  0.1739 -0.8173  1.6759
10755TIP3   OH253755   3.371   1.142   6.562  0.0536 -0.4075 -0.0894
10755TIP3    H153756   3.342   1.210   6.501 -1.8322 -0.7607  0.3359
10755TIP3    H253757   3.297   1.132   6.623  0.7896 -1.9691  0.6043
10756TIP3   OH253758   0.448   6.130   4.467  0.4014  0.2719 -0.3086
10756TIP3    H153759   0.506   6.055   4.480 -0.1506  0.0672  1.1502
10756TIP3    H253760   0.506   6.199   4.435  1.3742 -0.0685  0.6425
10757TIP3   OH253761   4.477   6.142  14.159  0.3214  0.2988  0.3632
10757TIP3    H153762   4.568   6.113  14.153  0.5620  1.0904  0.0471
10757TIP3    H253763   4.483   6.237  14.170 -0.4490  0.2674  1.1763
10758TIP3   OH253764   1.140   0.455  16.941  0.4613  0.0203  0.0301
10758TIP3    H153765   1.226   0.414  16.951  0.3913 -0.0568  0.3286
10758TIP3    H253766   1.105   0.417  16.860  1.2633  1.0598 -0.8394
10759TIP3   OH253767   0.025   0.816  15.305 -0.5806  0.1623 -0.0948
10759TIP3    H153768   0.040   0.826  15.211 -1.2307 -1.4029 -0.3881
10759TIP3    H253769  -0.070   0.823  15.315 -0.4088  2.2406  0.7353
10760TIP3   OH253770   1.201   0.197  13.702 -0.0683 -1.0901 -0.0607
10760TIP3    H153771   1.235   0.216  13.790  0.5560  0.2830 -0.5794
10760TIP3    H253772   1.146   0.119  13.714  0.3309 -1.1632  1.4687
10761TIP3   OH253773   5.954   5.672  15.226  0.5228  0.2858 -0.0131
10761TIP3    H153774   5.920   5.620  15.298  0.6420  0.5941  0.2674
10761TIP3    H253775   5.883   5.675  15.162 -0.5305  2.0953  1.1644
10762TIP3   OH253776   4.199   6.738  13.086  0.2641  0.1832 -0.0971
10762TIP3    H153777   4.167   6.706  13.171 -1.1306 -0.3558 -0.7985
10762TIP3    H253778   4.139   6.809  13.063 -1.9290 -2.1953 -2.4074
10763TIP3   OH253779   0.728   6.019  14.902 -0.1478  0.4224  0.4378
10763TIP3    H153780   0.757   5.943  14.954 -0.0582  0.5392  0.5578
10763TIP3    H253781   0.695   5.980  14.821 -0.1970  0.2450  0.5405
10764TIP3   OH253782   6.139   0.328  15.433  0.3489 -0.0761  0.0262
10764TIP3    H153783   6.113   0.358  15.521  0.2182 -2.1234  0.7280
10764TIP3    H253784   6.065   0.274  15.404  1.0525 -0.6603 -0.7004
10765TIP3   OH253785   6.536   1.142   6.656 -0.0685 -0.5941 -0.4793
10765TIP3    H153786   6.605   1.082   6.685  0.8478  0.1022 -1.1653
10765TIP3    H253787   6.549   1.149   6.561  0.2283  1.1395 -0.3407
10766TIP3   OH253788   0.535   5.096   6.208  0.1184  0.0439 -0.2519
10766TIP3    H153789   0.528   5.047   6.289  1.9619  0.7724  0.3989
10766TIP3    H253790   0.536   5.029   6.139  0.2730 -0.6900  0.4522
10767TIP3   OH253791   5.650   0.698   0.001  0.7255  0.2943  0.0379
10767TIP3    H153792   5.694   0.684  -0.082  0.9503  1.1085  0.0102
10767TIP3    H253793   5.688   0.778   0.035 -1.2360  1.4404 -0.3215
10768TIP3   OH253794   6.555   0.410   6.338  1.1219 -0.1306 -0.1977
10768TIP3    H153795   6.630   0.353   6.351  0.4139 -1.3792 -1.3574
10768TIP3    H253796   6.498   0.362   6.279  0.8061  2.0645 -1.8127
10769TIP3   OH253797   4.485   2.140  13.674  0.1114 -0.1563 -0.1033
10769TIP3    H153798   4.488   2.049  13.645  1.4759 -0.2363  0.2470
10769TIP3    H253799   4.562   2.151  13.729  0.2001  1.3304 -0.4719
10770TIP3   OH253800   4.897   3.031   5.334  0.4465  0.2388  0.3933
10770TIP3    H153801   4.907   2.937   5.320 -0.9507 -0.0687  1.2522
10770TIP3    H253802   4.833   3.059   5.269  0.3614  0.4701  0.5748
10771TIP3   OH253803   6.455   5.370   0.660 -0.5265  0.0335 -0.3353
10771TIP3    H153804   6.444   5.283   0.699  1.2242 -0.2068 -0.3019
10771TIP3    H253805   6.514   5.356   0.586  0.3638  1.2911  0.0992
10772TIP3   OH253806   2.312   1.058  16.290 -0.1755  0.3205  0.9791
10772TIP3    H153807   2.301   0.963  16.284 -0.5914  0.4360 -0.5726
10772TIP3    H253808   2.240   1.087  16.346 -0.3116 -0.2328  1.0975
10773TIP3   OH253809   0.650   1.775   3.446  0.3508  0.2382  0.1505
10773TIP3    H153810   0.620   1.865   3.435 -0.9943 -0.3362 -1.3594
10773TIP3    H253811   0.592   1.723   3.390  0.5102 -1.6961  1.6602
10774TIP3   OH253812   2.895   1.703  11.703 -0.2617 -0.1578  0.0628
10774TIP3    H153813   2.807   1.702  11.665 -0.0128 -1.1566 -0.5102
10774TIP3    H253814   2.905   1.792  11.737 -1.8251 -0.2735  0.9192
10775TIP3   OH253815   2.944   2.673  11.022  0.6576 -0.0318  0.7254
10775TIP3    H153816   2.968   2.589  11.062  0.0207 -0.4121  0.3286
10775TIP3    H253817   3.018   2.731  11.042  1.8007 -1.0832 -0.2167
10776TIP3   OH253818   2.879   2.686   5.144 -0.5657 -0.5364 -0.4442
10776TIP3    H153819   2.934   2.765   5.146 -0.2536 -0.7407 -0.8418
10776TIP3    H253820   2.793   2.718   5.116  0.0677 -0.6054 -2.7261
10777TIP3   OH253821   1.222   0.961  15.153  0.1269 -0.3090  0.6748
10777TIP3    H153822   1.304   0.976  15.106  0.3696 -0.9105  0.8929
10777TIP3    H253823   1.154   0.977  15.088  0.4264 -0.1888  0.3854
10778TIP3   OH253824   0.251   1.996  17.052  0.1284  0.1306  0.8653
10778TIP3    H153825   0.302   2.047  16.989  1.4289 -1.1984  0.7812
10778TIP3    H253826   0.292   2.013  17.136  1.6686 -1.9848  0.6182
10779TIP3   OH253827   4.808   4.810  13.339 -0.3383 -0.4940  0.7203
10779TIP3    H153828   4.859   4.745  13.387  0.6981  0.3892  0.8630
10779TIP3    H253829   4.846   4.894  13.366 -0.6218  0.0860 -0.6134
10780TIP3   OH253830   6.357   2.607  11.012  0.0178 -0.0753 -0.6049
10780TIP3    H153831   6.452   2.602  11.021 -0.1084  1.3138  2.8316
10780TIP3    H253832   6.342   2.691  10.968  0.3894  1.1303  1.4503
10781TIP3   OH253833   4.701   2.557   4.285  0.2325  0.1069  0.3269
10781TIP3    H153834   4.614   2.539   4.249  0.0781  0.3527  0.5717
10781TIP3    H253835   4.726   2.476   4.328  0.2925 -0.0921 -0.0795
10782TIP3   OH253836   4.952   0.054   4.910  0.2663  0.0117 -0.2190
10782TIP3    H153837   4.923   0.142   4.932 -0.0074  0.0523 -0.7057
10782TIP3    H253838   4.875   0.014   4.868  0.8619  0.0785 -1.4156
10783TIP3   OH253839   2.442   3.665  16.402 -0.5948 -0.0992  0.9656
10783TIP3    H153840   2.370   3.725  16.382  0.4638  1.2293  1.0208
10783TIP3    H253841   2.511   3.721  16.437 -0.0050 -1.5239  2.1893
10784TIP3   OH253842   0.386   2.702   2.421  0.6709 -0.3033 -0.2460
10784TIP3    H153843   0.460   2.716   2.480  0.3120 -1.4669  0.4997
10784TIP3    H253844   0.385   2.607   2.406  0.0033 -0.1662 -1.1385
10785TIP3   OH253845   3.971   1.189  11.937  0.2932  0.0104 -0.0685
10785TIP3    H153846   4.002   1.106  11.899  0.7329  0.4003 -0.5741
10785TIP3    H253847   4.041   1.251  11.920 -0.5374  0.7871 -0.7944
10786TIP3   OH253848   5.428   3.983   1.324 -0.6644  0.2815  0.1266
10786TIP3    H153849   5.337   3.958   1.334 -1.3866  2.1816 -1.1223
10786TIP3    H253850   5.449   3.962   1.233  0.0091  0.2694  0.2786
10787TIP3   OH253851   6.747   4.809   3.028  0.4252 -0.1391  0.3247
10787TIP3    H153852   6.753   4.719   3.059 -3.0359 -0.7386 -0.3873
10787TIP3    H253853   6.793   4.809   2.944  1.4471 -0.8743  0.8564
10788TIP3   OH253854   6.360   0.459   1.579  0.0382  0.0602 -0.3861
10788TIP3    H153855   6.297   0.524   1.548  0.4832  0.8727  0.3666
10788TIP3    H253856   6.312   0.410   1.646 -0.0019  0.2462 -0.2774
10789TIP3   OH253857   4.511   2.903  16.189  0.0320  0.1007 -0.1009
10789TIP3    H153858   4.446   2.870  16.250  1.5423 -2.9186  0.0686
10789TIP3    H253859   4.513   2.997  16.204 -2.9754  0.0712  1.0812
10790TIP3   OH253860   5.626   5.078   0.517 -0.0602  0.6521  0.2488
10790TIP3    H153861   5.603   5.123   0.598  1.8042  1.7102  0.2395
10790TIP3    H253862   5.721   5.067   0.521 -0.2401 -1.8363 -0.5193
10791TIP3   OH253863   3.644   6.721  16.775  0.3335 -0.0750  0.4944
10791TIP3    H153864   3.669   6.715  16.867  2.2065  0.9332  0.0806
10791TIP3    H253865   3.680   6.642  16.735 -1.4285 -1.0857  0.7697
10792TIP3   OH253866   3.638   4.064  10.814  0.6636 -0.3302 -0.0366
10792TIP3    H153867   3.665   4.032  10.900 -0.2303  1.0568  0.8076
10792TIP3    H253868   3.608   3.986  10.767  2.1169 -1.2644  0.5079
10793TIP3   OH253869   1.013   5.660  15.950 -0.2157 -0.7983  0.0711
10793TIP3    H153870   1.067   5.645  15.873 -0.9852 -0.9826 -0.4363
10793TIP3    H253871   1.021   5.754  15.966 -1.8689 -0.2960 -1.6386
10794TIP3   OH253872   1.693   1.671  12.550 -0.2108 -0.5198 -0.0221
10794TIP3    H153873   1.628   1.734  12.583  1.1867  0.1106  1.7548
10794TIP3    H253874   1.644   1.590  12.538 -1.3275 -0.1082  1.3945
10795TIP3   OH253875   2.115   2.937  16.098 -0.1105 -0.3153 -0.0815
10795TIP3    H153876   2.097   2.843  16.096 -5.4637  0.3941 -1.1781
10795TIP3    H253877   2.161   2.954  16.015  0.4348 -1.8624 -0.1369
10796TIP3   OH253878   3.300   0.667   5.200 -0.3754  0.1709 -0.0619
10796TIP3    H153879   3.205   0.670   5.189 -0.5499 -0.2886  1.2555
10796TIP3    H253880   3.325   0.759   5.214 -0.6284  0.2824 -0.3275
10797TIP3   OH253881   5.319   2.606  11.194  0.7075 -1.0832  0.0911
10797TIP3    H153882   5.294   2.528  11.144 -1.4716 -1.5538  1.7863
10797TIP3    H253883   5.278   2.594  11.279 -1.9165  3.0470 -0.3192
10798TIP3   OH253884   4.897   1.484   3.429  0.5510 -0.2454  0.4325
10798TIP3    H153885   4.851   1.403   3.451  2.2794 -1.6503 -0.8896
10798TIP3    H253886   4.851   1.552   3.479 -1.3885 -1.9108  1.0303
10799TIP3   OH253887   6.444   3.159   5.640 -0.6381 -0.3222 -0.1853
10799TIP3    H153888   6.520   3.100   5.646 -3.2719 -4.0285  0.0945
10799TIP3    H253889   6.431   3.171   5.546  0.0649  0.1155 -0.2410
10800TIP3   OH253890   5.910   3.545  13.874 -0.3530  0.6104 -0.6238
10800TIP3    H153891   5.976   3.544  13.804  0.1059 -1.9182 -0.2341
10800TIP3    H253892   5.828   3.526  13.830 -0.6248  2.1792 -0.8714
10801TIP3   OH253893   5.820   0.146  15.748  0.1464  0.8241 -0.1742
10801TIP3    H153894   5.741   0.180  15.790 -0.9615  1.5087 -2.6407
10801TIP3    H253895   5.832   0.060  15.788 -1.4350  0.9837  0.7655
10802TIP3   OH253896   4.613   0.452  16.366  0.3990  0.2391 -0.0362
10802TIP3    H153897   4.523   0.470  16.394  0.0544 -0.0334 -0.9259
10802TIP3    H253898   4.606   0.439  16.271  0.9709 -2.4099  0.2270
10803TIP3   OH253899   3.886   4.680   2.277  0.2313 -0.1719 -0.0753
10803TIP3    H153900   3.945   4.743   2.234 -2.6710  0.6798 -3.2614
10803TIP3    H253901   3.877   4.713   2.366  0.9661  2.3513 -0.8280
10804TIP3   OH253902   2.679   6.644   0.937  0.4083  0.5513 -0.2462
10804TIP3    H153903   2.605   6.657   0.996 -0.4672 -0.7611 -1.0077
10804TIP3    H253904   2.735   6.580   0.983 -0.0894 -0.1883 -0.6423
10805TIP3   OH253905   1.236   6.722   3.955 -0.4441  0.1086  0.4308
10805TIP3    H153906   1.216   6.686   4.041 -1.5538  2.9544  1.4955
10805TIP3    H253907   1.163   6.780   3.936  1.0199  1.5250 -1.2621
10806TIP3   OH253908   1.005   0.183   2.128 -0.1253  0.0972 -0.5602
10806TIP3    H153909   0.967   0.097   2.109 -1.3693  0.4077  0.3596
10806TIP3    H253910   0.932   0.233   2.165  1.0447  0.9553  0.6599
10807TIP3   OH253911   6.819   2.588  12.496 -0.4559  0.0673  0.1918
10807TIP3    H153912   6.901   2.548  12.470  0.1421  1.1396  0.3747
10807TIP3    H253913   6.761   2.575  12.421  0.8168  1.9416 -1.2089
10808TIP3   OH253914   6.327   6.030  16.164  0.3682  0.1105 -0.6548
10808TIP3    H153915   6.253   5.982  16.203 -0.0347 -0.0504 -1.5992
10808TIP3    H253916   6.312   6.024  16.070  1.7619 -0.1971 -0.8721
10809TIP3   OH253917   0.973   4.746  10.457 -0.0767  0.3232  0.4673
10809TIP3    H153918   1.035   4.735  10.385  1.2113 -1.3831  1.7456
10809TIP3    H253919   0.920   4.666  10.456  0.0874  0.1837  1.5159
10810TIP3   OH253920   4.316   4.888  13.589 -1.1809  0.5626  0.4816
10810TIP3    H153921   4.368   4.937  13.653 -0.6141  0.3686  0.1806
10810TIP3    H253922   4.381   4.852  13.528 -1.7444  1.1070 -0.4599
10811TIP3   OH253923   4.682   0.730  15.636 -0.2801 -0.9173 -0.3753
10811TIP3    H153924   4.635   0.794  15.690  0.9778 -0.5228  0.2709
10811TIP3    H253925   4.670   0.761  15.546 -2.5042 -1.6522 -0.4046
10812TIP3   OH253926   1.181   0.428  11.575 -0.1788 -0.1819 -0.3069
10812TIP3    H153927   1.254   0.463  11.626 -0.1589 -0.2100 -0.3162
10812TIP3    H253928   1.109   0.421  11.638  0.0389 -0.8551 -0.1302
10813TIP3   OH253929   6.208   1.051   6.334  0.0957 -0.0046 -0.0244
10813TIP3    H153930   6.146   1.091   6.273  0.3086 -0.0153 -0.2479
10813TIP3    H253931   6.153   1.017   6.405 -0.5795 -3.2400 -1.8949
10814TIP3   OH253932   5.136   6.239   1.631  0.2862  0.2599  0.2813
10814TIP3    H153933   5.164   6.328   1.611  1.4502  0.0140  0.6891
10814TIP3    H253934   5.157   6.189   1.552 -1.9639  0.6256 -0.6213
10815TIP3   OH253935   0.568   0.901  13.222 -0.2676  0.7545 -0.3079
10815TIP3    H153936   0.637   0.836  13.239 -0.6892  0.5960  0.8489
10815TIP3    H253937   0.545   0.887  13.131 -0.6803 -1.0550  0.0377
10816TIP3   OH253938   5.496   5.230  10.554 -0.0756  0.7078  0.0695
10816TIP3    H153939   5.475   5.230  10.460  1.9256  2.2870 -0.4452
10816TIP3    H253940   5.552   5.154  10.566 -1.1557 -0.0901  0.2364
10817TIP3   OH253941   4.864   0.230  15.295  0.1275  0.1060  0.3220
10817TIP3    H153942   4.816   0.282  15.359 -1.8375 -0.0392 -0.9628
10817TIP3    H253943   4.867   0.285  15.216  1.2159 -0.3001  0.0573
10818TIP3   OH253944   6.264   2.740  16.228  0.1006 -0.6601 -0.0044
10818TIP3    H153945   6.178   2.784  16.232 -0.5183 -1.8444  0.0075
10818TIP3    H253946   6.258   2.670  16.293  1.2189 -0.5465  0.2437
10819TIP3   OH253947   3.993   1.817  15.058  0.1172 -0.1975  0.3575
10819TIP3    H153948   4.074   1.868  15.058  0.5516 -0.8757  0.4877
10819TIP3    H253949   3.999   1.763  14.979 -1.4682  1.6692 -1.1451
10820TIP3   OH253950   1.761   0.582  15.346  0.4132 -0.1017  0.3301
10820TIP3    H153951   1.748   0.662  15.296  0.6519  0.1330  0.6444
10820TIP3    H253952   1.805   0.522  15.285 -1.0162 -0.4906 -0.3681
10821TIP3   OH253953   4.177   6.495   5.333  0.1505  0.1965  0.1298
10821TIP3    H153954   4.214   6.414   5.368 -1.9174 -0.2043  1.5580
10821TIP3    H253955   4.157   6.547   5.411 -1.7652  0.5741 -0.5741
10822TIP3   OH253956   4.387   0.147   2.444 -0.4141  0.4054  0.4814
10822TIP3    H153957   4.401   0.052   2.440 -0.0310  0.4852 -0.3703
10822TIP3    H253958   4.299   0.159   2.407  0.5995  0.5823 -2.1072
10823TIP3   OH253959   4.960   0.227   3.822  0.3055 -0.0459 -0.2776
10823TIP3    H153960   4.910   0.149   3.799  3.0672 -2.0081 -0.1282
10823TIP3    H253961   5.046   0.213   3.783  1.1182  2.6483  0.3369
10824TIP3   OH253962   2.041   6.850   4.560  0.1578  0.4849  0.1664
10824TIP3    H153963   2.051   6.835   4.654 -4.1825  1.6210  1.0091
10824TIP3    H253964   2.066   6.941   4.547  3.1552 -0.3086 -0.4015
10825TIP3   OH253965   2.601   3.620   2.954  0.0359  0.2195  0.0048
10825TIP3    H153966   2.605   3.605   3.048  0.3124  0.6761  0.0685
10825TIP3    H253967   2.553   3.703   2.945  2.0828  1.4547 -0.1203
10826TIP3   OH253968   0.921   2.992  13.421  0.0091  0.5416 -0.4138
10826TIP3    H153969   0.979   3.013  13.495 -0.4972  1.1416 -0.1769
10826TIP3    H253970   0.837   2.972  13.462 -0.6443  2.1807 -0.8896
10827TIP3   OH253971   3.008   2.927   3.838  0.5577 -0.9334 -0.3915
10827TIP3    H153972   3.103   2.935   3.846  0.5755 -2.1902  1.1004
10827TIP3    H253973   2.989   2.960   3.750  2.1661  0.8346 -0.1565
10828TIP3   OH253974   4.127   5.037   3.566 -0.3840  0.0322  0.0124
10828TIP3    H153975   4.133   5.034   3.662  0.9079  0.9235 -0.0174
10828TIP3    H253976   4.092   5.124   3.547  1.5578  0.7570 -0.3829
10829TIP3   OH253977   2.494   2.329  17.043 -0.2078 -0.0232 -0.1396
10829TIP3    H153978   2.432   2.337  17.115 -0.8329 -0.9493 -0.5558
10829TIP3    H253979   2.509   2.419  17.013  0.2043  0.3991  1.2393
10830TIP3   OH253980   6.595   3.047  16.653 -0.0692 -0.1544 -0.4345
10830TIP3    H153981   6.526   3.113  16.657 -0.1147 -0.2545  0.6962
10830TIP3    H253982   6.549   2.965  16.632 -0.6885 -0.6922  2.6176
10831TIP3   OH253983   5.112   6.129  13.781 -0.1712 -0.0922 -0.0761
10831TIP3    H153984   5.165   6.051  13.796 -0.8983 -0.9326 -1.6347
10831TIP3    H253985   5.169   6.188  13.731 -0.0857 -0.2089 -0.1139
10832TIP3   OH253986   0.869   6.579  13.756 -0.4125  0.2905  0.4586
10832TIP3    H153987   0.793   6.627  13.723 -0.2956  1.3072  1.6000
10832TIP3    H253988   0.878   6.505  13.697 -0.5110  1.7460 -1.4967
10833TIP3   OH253989   1.110   3.061   1.876  0.6113 -0.2682 -0.0325
10833TIP3    H153990   1.047   3.092   1.940  1.3670 -1.5132  1.3823
10833TIP3    H253991   1.195   3.075   1.918  1.0547 -2.4497 -0.0773
10834TIP3   OH253992   1.836   4.390   2.225  0.0361 -0.2780 -0.3106
10834TIP3    H153993   1.836   4.474   2.179 -3.3934 -1.3372 -2.6032
10834TIP3    H253994   1.860   4.326   2.158 -0.2633 -1.4251  0.6503
10835TIP3   OH253995   5.092   5.073  14.288 -0.2611 -0.1946 -0.3348
10835TIP3    H153996   5.023   5.007  14.298  1.3290 -1.7935  0.5854
10835TIP3    H253997   5.171   5.030  14.319  0.9352  2.0343 -0.0863
10836TIP3   OH253998   6.671   2.535   2.975  0.0558 -0.6107  0.1119
10836TIP3    H153999   6.652   2.623   3.006 -1.1571 -0.4820 -0.9021
10836TIP3    H254000   6.680   2.482   3.054 -1.0858  0.0547  0.7000
10837TIP3   OH254001   1.850   2.218   2.745 -0.0240  0.6100  0.2845
10837TIP3    H154002   1.755   2.218   2.739 -0.0566 -0.1427  0.6909
10837TIP3    H254003   1.880   2.205   2.655 -0.3080  0.4740  0.2099
10838TIP3   OH254004   6.549   0.931   5.627  0.1861 -0.3138 -0.1386
10838TIP3    H154005   6.565   0.892   5.713  1.6589 -1.8249 -1.0251
10838TIP3    H254006   6.458   0.909   5.607  0.5651 -2.2177 -0.0112
10839TIP3   OH254007   0.441   0.428  13.245  0.6758 -0.4284  0.3097
10839TIP3    H154008   0.498   0.484  13.192 -0.5179 -0.2207 -0.8054
10839TIP3    H254009   0.398   0.488  13.306  0.2717 -0.3056 -0.0956
10840TIP3   OH254010   3.288   2.369  11.285 -0.3081 -0.0683  0.4395
10840TIP3    H154011   3.336   2.326  11.356 -1.3813 -1.1701  0.5207
10840TIP3    H254012   3.251   2.298  11.233  0.9871  0.6837 -1.6566
10841TIP3   OH254013   2.249   5.115   4.337 -0.5575  0.3327 -0.1350
10841TIP3    H154014   2.236   5.028   4.299 -1.7472  0.4788 -0.0877
10841TIP3    H254015   2.218   5.106   4.427  0.4262  0.5058  0.2325
10842TIP3   OH254016   6.531   4.166   3.634 -0.4493  0.8484 -0.2592
10842TIP3    H154017   6.447   4.132   3.602  0.5402 -0.4722 -1.5815
10842TIP3    H254018   6.596   4.102   3.604  1.0691  1.9714  0.5086
10843TIP3   OH254019   1.662   6.142  10.918 -0.1796  0.4827  0.4975
10843TIP3    H154020   1.576   6.140  10.962 -0.4353 -0.3967 -0.0070
10843TIP3    H254021   1.652   6.081  10.845 -0.3126  3.1606 -1.8586
10844TIP3   OH254022   2.546   2.639   1.588  0.1069 -0.5265  0.4732
10844TIP3    H154023   2.625   2.670   1.543 -0.9746  1.2328 -0.3274
10844TIP3    H254024   2.575   2.562   1.637  1.8395 -1.2479 -1.5010
10845TIP3   OH254025   2.202   4.744  14.290  0.2113  0.0460  0.5745
10845TIP3    H154026   2.266   4.764  14.222 -0.0060 -0.8528  0.0873
10845TIP3    H254027   2.129   4.704  14.244 -0.5209  0.6380  1.1824
10846TIP3   OH254028   2.497   2.552  15.127  0.1723  0.2562  0.0271
10846TIP3    H154029   2.589   2.576  15.133  0.4250 -0.6516 -0.1254
10846TIP3    H254030   2.474   2.523  15.215  0.2040 -0.0868 -0.0732
10847TIP3   OH254031   5.836   1.837  14.495  0.0998  0.2042  0.0767
10847TIP3    H154032   5.874   1.805  14.577  1.3157  0.2115 -0.4543
10847TIP3    H254033   5.856   1.931  14.494 -3.1760  1.0433  1.4779
10848TIP3   OH254034   3.673   5.403   5.011  0.2680 -0.0943 -0.1665
10848TIP3    H154035   3.582   5.433   5.021  0.0036 -1.4379  2.4265
10848TIP3    H254036   3.725   5.480   5.033 -0.2575  0.3223 -0.3491
10849TIP3   OH254037   2.680   5.501  12.884 -0.5725 -0.2911  1.0279
10849TIP3    H154038   2.685   5.596  12.875 -0.1021 -0.2686  1.4488
10849TIP3    H254039   2.733   5.467  12.812  1.2747 -0.1667  2.2568
10850TIP3   OH254040   0.802   6.670  12.027  0.1483 -0.5273 -0.1355
10850TIP3    H154041   0.748   6.593  12.044 -0.9803  0.3304  0.3667
10850TIP3    H254042   0.798   6.682  11.932  0.4046 -1.1250 -0.2269
10851TIP3   OH254043   0.046   3.155  15.684  0.3235 -0.2921  0.2704
10851TIP3    H154044   0.138   3.171  15.664  0.0243  1.7540  0.2922
10851TIP3    H254045   0.046   3.117  15.772  1.1197  0.5632  0.6562
10852TIP3   OH254046   6.066   0.309   1.084 -0.1692 -0.0133 -0.3254
10852TIP3    H154047   6.027   0.274   1.165 -0.1628 -0.2100 -0.4050
10852TIP3    H254048   5.993   0.311   1.022 -0.3137  0.7239 -0.1363
10853TIP3   OH254049   6.728   2.396  15.875  0.1319 -0.4566 -0.2470
10853TIP3    H154050   6.738   2.401  15.970 -1.4576 -1.2270 -0.0233
10853TIP3    H254051   6.654   2.454  15.855 -1.0830 -2.1156 -0.7099
10854TIP3   OH254052   5.882   0.721  11.879  0.4354  0.3378 -0.2561
10854TIP3    H154053   5.909   0.680  11.796 -0.4207 -0.8081  0.0087
10854TIP3    H254054   5.928   0.671  11.946 -0.2316  0.1215  0.0465
10855TIP3   OH254055   4.216   3.972  10.318 -0.1669  0.0893  0.8971
10855TIP3    H154056   4.157   3.897  10.328  1.6015 -1.1944  2.1319
10855TIP3    H254057   4.294   3.936  10.276 -0.0214  1.6774 -0.3169
10856TIP3   OH254058   2.381   5.307  12.850  0.1947 -0.0483  0.0445
10856TIP3    H154059   2.318   5.276  12.784  0.4455  1.1718 -0.8026
10856TIP3    H254060   2.464   5.269  12.823  0.4893  1.2343 -0.9570
10857TIP3   OH254061   0.938   3.423   3.677  0.6508  0.1014 -0.6015
10857TIP3    H154062   0.940   3.434   3.772 -0.5157 -0.9971 -0.4203
10857TIP3    H254063   0.919   3.511   3.643  3.7768  1.0958 -0.0341
10858TIP3   OH254064   6.035   6.716   4.097 -0.2308  0.0327  0.2911
10858TIP3    H154065   6.116   6.700   4.146  0.6571 -0.6176 -1.3220
10858TIP3    H254066   5.971   6.657   4.136  0.1206  0.3774  1.4280
10859TIP3   OH254067   2.647   4.973   5.062  0.1639 -0.8356 -0.2481
10859TIP3    H154068   2.554   4.997   5.056  0.1105 -0.4443  1.6489
10859TIP3    H254069   2.677   5.012   5.144  1.9378 -1.2435 -0.6588
10860TIP3   OH254070   1.321   6.167   6.219  0.1418  0.0138  0.7416
10860TIP3    H154071   1.396   6.196   6.271  0.3397  3.1181 -1.0529
10860TIP3    H254072   1.260   6.130   6.284  0.9698  2.3161  3.0310
10861TIP3   OH254073   1.333   2.268  15.514 -0.0394 -0.4755  0.0455
10861TIP3    H154074   1.286   2.239  15.592  0.5785 -1.4798  0.0601
10861TIP3    H254075   1.333   2.192  15.456  1.4792 -0.4829  0.0153
10862TIP3   OH254076   6.579   5.855   5.375  0.0812  0.1584 -0.0133
10862TIP3    H154077   6.590   5.944   5.341 -1.8863  0.1350 -0.8044
10862TIP3    H254078   6.558   5.867   5.468 -1.0422  0.5912 -0.3082
10863TIP3   OH254079   2.342   1.148  10.390  0.5430  0.4432  0.5404
10863TIP3    H154080   2.326   1.074  10.449 -0.8738 -2.1916 -2.8259
10863TIP3    H254081   2.436   1.142  10.370  0.6833  0.3125  1.2193
10864TIP3   OH254082   2.322   2.675   4.921 -0.2218 -0.0710 -0.1798
10864TIP3    H154083   2.310   2.684   4.826  0.6399 -0.3803 -0.3317
10864TIP3    H254084   2.414   2.696   4.935 -0.6083  1.1013  0.7459
10865TIP3   OH254085   2.779   3.708  16.152  0.2049 -0.0693  0.1843
10865TIP3    H154086   2.762   3.616  16.173  0.7866 -0.4904 -1.1268
10865TIP3    H254087   2.866   3.724  16.187 -0.5220  0.4744  1.8500
10866TIP3   OH254088   0.331   1.163   4.557 -0.0886  0.1751 -0.5055
10866TIP3    H154089   0.411   1.111   4.552 -0.4411 -0.7483  1.9924
10866TIP3    H254090   0.361   1.251   4.578  0.3164 -0.5056  2.1736
10867TIP3   OH254091   0.851   5.694   1.652 -0.4496 -0.2696 -0.4442
10867TIP3    H154092   0.883   5.716   1.565  0.4627 -0.9569 -0.2996
10867TIP3    H254093   0.809   5.774   1.683  1.4466  0.8262 -0.5062
10868TIP3   OH254094   4.256   5.205   5.920 -0.4257  0.0460  0.5261
10868TIP3    H154095   4.235   5.114   5.936 -0.7080 -0.3280 -1.6005
10868TIP3    H254096   4.173   5.244   5.893  0.2421  0.1269 -1.6211
10869TIP3   OH254097   6.692   3.403   6.769 -0.3069 -0.5862 -0.4586
10869TIP3    H154098   6.665   3.339   6.835  0.2995  0.0291  0.4092
10869TIP3    H254099   6.766   3.448   6.809 -0.6181  0.5451 -1.1221
10870TIP3   OH254100   2.615   4.945   5.658 -0.2999 -0.1521  0.5016
10870TIP3    H154101   2.655   4.994   5.729 -0.9555 -1.4086  1.8093
10870TIP3    H254102   2.522   4.942   5.681 -0.4935 -0.7339 -0.3128
10871TIP3   OH254103   0.230   6.286  12.679 -0.3473 -0.4463 -0.1941
10871TIP3    H154104   0.147   6.288  12.632 -0.3284  0.4780 -0.1995
10871TIP3    H254105   0.236   6.372  12.721  0.2649 -0.7709  0.3996
10872TIP3   OH254106   3.556   4.417  13.045 -0.3140  0.0887 -0.9672
10872TIP3    H154107   3.490   4.416  12.976  1.4231  0.7232 -2.7411
10872TIP3    H254108   3.631   4.372  13.007  0.7391  0.5748  0.4603
10873TIP3   OH254109   1.547   2.243   4.062  0.5054  0.0864  0.0552
10873TIP3    H154110   1.485   2.198   4.119  1.7416  0.3600  1.6505
10873TIP3    H254111   1.594   2.173   4.017 -1.8636 -0.1599 -2.3368
10874TIP3   OH254112   4.073   5.131   5.531  0.2619 -0.6819  0.0424
10874TIP3    H154113   4.156   5.167   5.499  0.2423 -2.5574 -2.3440
10874TIP3    H254114   4.007   5.163   5.469 -0.4048 -1.3431  0.3890
10875TIP3   OH254115   0.161   5.027   6.092  0.2239  0.1743  0.0186
10875TIP3    H154116   0.098   5.072   6.148  1.3012  1.0471  0.5683
10875TIP3    H254117   0.166   5.081   6.013  0.1593  0.0176 -0.0924
10876TIP3   OH254118   3.047   6.794   5.621 -0.2276  0.5417  0.5337
10876TIP3    H154119   2.992   6.858   5.666 -0.1303  1.4597 -0.6161
10876TIP3    H254120   2.997   6.770   5.543  0.3029  0.1800  0.3016
10877TIP3   OH254121   0.660   0.080   1.463 -0.1220  0.2549 -0.4007
10877TIP3    H154122   0.687   0.129   1.541  1.1228 -1.5773  0.3771
10877TIP3    H254123   0.727   0.013   1.452 -1.8429 -1.4122 -1.2882
10878TIP3   OH254124   4.528   6.206  12.636 -0.0428  0.5090  0.4655
10878TIP3    H154125   4.563   6.173  12.553 -0.2305 -0.3072  0.7048
10878TIP3    H254126   4.560   6.296  12.641 -2.0689  1.4759 -1.7125
10879TIP3   OH254127   6.478   0.215   1.778  0.6078  0.6797  0.4821
10879TIP3    H154128   6.529   0.134   1.782 -0.8332 -0.2585  0.4602
10879TIP3    H254129   6.534   0.277   1.731  0.9781 -0.8768 -1.2104
10880TIP3   OH254130   5.805   2.376  12.304 -0.0157 -0.1174 -0.3249
10880TIP3    H154131   5.821   2.339  12.217 -2.9951  1.2022 -1.5944
10880TIP3    H254132   5.764   2.305  12.353  0.8696 -0.6029 -0.2688
10881TIP3   OH254133   1.578   2.893   4.255 -0.7337 -0.3473  0.6884
10881TIP3    H154134   1.491   2.874   4.291 -1.0226  0.6565  0.5391
10881TIP3    H254135   1.568   2.880   4.161 -0.7679 -0.0642  0.6528
10882TIP3   OH254136   2.138   4.659   2.277 -0.1897 -0.1622 -0.1669
10882TIP3    H154137   2.109   4.653   2.186  1.4078  0.5311 -0.7570
10882TIP3    H254138   2.057   4.675   2.327 -1.7875 -4.5329 -0.8618
10883TIP3   OH254139   2.380   5.935   3.352 -0.0373  0.7605  0.0342
10883TIP3    H154140   2.378   6.030   3.368 -0.6056  0.5568  1.2899
10883TIP3    H254141   2.452   5.904   3.405 -0.5796  0.3412  0.5339
10884TIP3   OH254142   4.230   2.887   2.000  0.1311  0.3400 -0.1947
10884TIP3    H154143   4.246   2.946   1.926 -2.1782  0.4476 -0.6892
10884TIP3    H254144   4.177   2.939   2.061 -0.0478 -0.5185  0.4002
10885TIP3   OH254145   2.268   5.683   2.934  0.0406 -0.0120 -0.1502
10885TIP3    H154146   2.240   5.598   2.969 -1.1487  1.2008  2.0323
10885TIP3    H254147   2.339   5.711   2.992  1.4400 -0.1097 -1.7377
10886TIP3   OH254148   5.497   0.788   2.029  0.6984 -0.3662 -0.2862
10886TIP3    H154149   5.567   0.853   2.022  0.8446 -0.6097 -1.1996
10886TIP3    H254150   5.542   0.705   2.039  0.5165 -0.4069  0.2523
10887TIP3   OH254151   3.426   4.461  11.470 -0.3999 -0.1034  0.0858
10887TIP3    H154152   3.509   4.414  11.461 -0.2487  0.2034 -0.1506
10887TIP3    H254153   3.444   4.529  11.535 -1.0919 -1.4138  1.7146
10888TIP3   OH254154   6.649   6.499  12.542 -0.6929  0.5798 -0.1424
10888TIP3    H154155   6.635   6.453  12.459 -0.9277 -0.3154  0.3865
10888TIP3    H254156   6.571   6.481  12.594 -0.5015  1.0505  0.3212
10889TIP3   OH254157   1.305   2.466  13.949 -0.2958  0.4238  0.3849
10889TIP3    H154158   1.227   2.452  14.002  0.6055  1.3306  2.0250
10889TIP3    H254159   1.273   2.503  13.867 -1.5083  1.8270  1.4552
10890TIP3   OH254160   1.495   2.306  12.875 -0.0722  0.0213  0.3660
10890TIP3    H154161   1.446   2.224  12.871  0.1901 -0.1270  0.1136
10890TIP3    H254162   1.581   2.285  12.838 -0.1880  0.5381 -0.2277
10891TIP3   OH254163   3.899   2.408  13.282 -0.1794 -0.1209 -0.4248
10891TIP3    H154164   3.949   2.370  13.355 -0.7811  0.1736  0.1439
10891TIP3    H254165   3.896   2.502  13.302  0.5262  0.1161 -1.3626
10892TIP3   OH254166   2.239   2.165   1.905 -0.0553  0.4818  0.0592
10892TIP3    H154167   2.166   2.211   1.947  1.4464  1.8694  1.2670
10892TIP3    H254168   2.198   2.090   1.861 -2.3700  2.0779 -0.6411
10893TIP3   OH254169   4.130   4.954  15.113  0.5964  0.6321  0.5820
10893TIP3    H154170   4.111   5.045  15.091  0.5670  0.2452 -1.1664
10893TIP3    H254171   4.225   4.949  15.118  0.6808  0.4642 -0.8524
10894TIP3   OH254172   6.383   0.825  16.780  0.5390 -0.0661 -0.2670
10894TIP3    H154173   6.372   0.815  16.874  0.1335  0.5258 -0.2437
10894TIP3    H254174   6.297   0.807  16.743  0.7637 -0.5773 -0.5546
10895TIP3   OH254175   4.886   3.258  13.183 -0.7583  0.0051 -0.2645
10895TIP3    H154176   4.840   3.283  13.104 -2.1024 -0.5772  0.3103
10895TIP3    H254177   4.956   3.324  13.192 -0.6026  0.0929 -1.8810
10896TIP3   OH254178   6.788   1.033   5.340  0.3587 -0.0973  0.0904
10896TIP3    H154179   6.734   1.043   5.418  0.4227 -0.8767  0.2473
10896TIP3    H254180   6.785   0.939   5.321  0.5171  0.0554 -0.7167
10897TIP3   OH254181   5.563   4.213   1.414  0.3867  0.2491 -0.0199
10897TIP3    H154182   5.638   4.240   1.362 -1.0689  2.3725 -1.1762
10897TIP3    H254183   5.517   4.150   1.358  0.9327 -0.5294  0.4014
10898TIP3   OH254184   5.255   5.559   6.551  0.5119 -0.3884  0.2411
10898TIP3    H154185   5.200   5.581   6.626 -0.0870 -1.6921  0.2254
10898TIP3    H254186   5.195   5.554   6.477  0.2266 -3.5347  0.5275
10899TIP3   OH254187   1.893   2.282  13.741  0.5411 -0.0934  1.0791
10899TIP3    H154188   1.968   2.335  13.766  0.5146 -0.1667  1.3135
10899TIP3    H254189   1.817   2.328  13.778  0.1229  1.6240 -1.5967
10900TIP3   OH254190   4.939   1.690  13.153 -1.1587  0.5820  0.4062
10900TIP3    H154191   4.888   1.612  13.176 -0.8967  0.7205  1.5286
10900TIP3    H254192   4.892   1.763  13.193 -1.7788  1.1127 -1.2237
10901TIP3   OH254193   2.686   3.324   1.647  0.2758 -0.5005  0.4169
10901TIP3    H154194   2.729   3.292   1.567 -0.8205 -1.8442  0.3137
10901TIP3    H254195   2.679   3.246   1.703  0.3140  0.2546  1.4967
10902TIP3   OH254196   5.240   3.807  12.589  0.0889 -0.1182  0.7772
10902TIP3    H154197   5.220   3.845  12.503  2.5083  3.0260  1.4045
10902TIP3    H254198   5.186   3.857  12.650  0.4922 -0.3599  1.3377
10903TIP3   OH254199   4.785   2.353   0.934  0.3847 -0.6642  0.2514
10903TIP3    H154200   4.841   2.393   1.000  0.2228 -1.6111  0.9825
10903TIP3    H254201   4.843   2.337   0.860  0.7035 -0.1380  0.3830
10904TIP3   OH254202   3.749   1.859  16.251  0.0734 -0.1038  0.0159
10904TIP3    H154203   3.709   1.842  16.337 -1.7176  1.5706 -0.4331
10904TIP3    H254204   3.697   1.928  16.213  4.2536  3.4546 -0.0580
10905TIP3   OH254205   4.831   1.526  12.133 -0.6151  0.1741  0.4806
10905TIP3    H154206   4.851   1.447  12.183 -1.4531 -0.3866 -0.0336
10905TIP3    H254207   4.803   1.590  12.199 -0.4754 -0.1446  0.8531
10906TIP3   OH254208   6.347   1.382  12.028 -0.0802 -1.0007  0.3775
10906TIP3    H154209   6.420   1.350  11.975 -0.8182 -0.6134 -0.9068
10906TIP3    H254210   6.282   1.312  12.025 -0.2450 -0.8580  0.5446
10907TIP3   OH254211   6.770   5.006   4.938 -0.2001 -0.3977 -0.2758
10907TIP3    H154212   6.693   5.022   4.993 -0.5618  0.5877 -1.0257
10907TIP3    H254213   6.751   4.923   4.894 -0.7419 -0.2798 -0.2784
10908TIP3   OH254214   4.265   5.557  15.341  0.7784 -0.2710 -0.4556
10908TIP3    H154215   4.305   5.615  15.277 -0.8827 -0.7121 -1.9722
10908TIP3    H254216   4.323   5.561  15.417  1.9035  1.5829 -1.3476
10909TIP3   OH254217   0.947   4.576  11.920 -0.0345  0.3225 -0.2255
10909TIP3    H154218   1.027   4.538  11.885  0.1481 -0.9315  1.4344
10909TIP3    H254219   0.906   4.619  11.845  1.4425 -0.2855 -1.4295
10910TIP3   OH254220   4.144   1.223  12.285  0.4107  0.3246 -0.1128
10910TIP3    H154221   4.100   1.149  12.243 -2.3234  0.6380  1.9196
10910TIP3    H254222   4.223   1.186  12.323  0.6443 -0.8702 -1.6981
10911TIP3   OH254223   1.284   6.508   2.028 -0.0418 -0.3830 -0.0882
10911TIP3    H154224   1.263   6.420   2.060  0.9235 -1.3685 -2.0046
10911TIP3    H254225   1.252   6.509   1.938  0.4249  1.0469 -0.2569
10912TIP3   OH254226   5.066   4.636   5.884  0.2372  0.4565 -0.1322
10912TIP3    H154227   5.048   4.729   5.871 -1.1394  0.1431 -0.6067
10912TIP3    H254228   4.982   4.598   5.910  0.6139 -0.7737 -0.6078
10913TIP3   OH254229   4.648   1.367  12.477  0.1725 -0.0057  0.0781
10913TIP3    H154230   4.590   1.443  12.469  1.3600  0.8753 -0.5936
10913TIP3    H254231   4.631   1.315  12.399  0.8984  0.7090 -0.5679
10914TIP3   OH254232   0.776   3.185  14.215 -0.3387 -0.0561  0.4414
10914TIP3    H154233   0.865   3.175  14.249  0.6790 -0.1022 -2.0214
10914TIP3    H254234   0.746   3.269  14.252  1.5667  1.0328 -0.3313
10915TIP3   OH254235   4.086   1.067  16.122  0.7268  0.2551  0.2115
10915TIP3    H154236   4.128   1.055  16.036  1.3608  2.7574  0.1105
10915TIP3    H254237   3.998   1.030  16.111  0.6062  0.9992 -1.6871
10916TIP3   OH254238   6.548   5.795   4.977  0.6825 -0.6489  0.3150
10916TIP3    H154239   6.523   5.765   4.889  1.0601  0.8925 -0.3640
10916TIP3    H254240   6.544   5.717   5.031 -1.4879 -1.2777 -0.6381
10917TIP3   OH254241   3.498   3.606   2.782 -0.2379  0.0848 -0.2126
10917TIP3    H154242   3.459   3.689   2.807 -0.2109  0.4918 -1.4236
10917TIP3    H254243   3.466   3.543   2.846 -0.5402  0.9591  0.5126
10918TIP3   OH254244   1.827   1.482   0.874 -0.3012  0.0485  0.0246
10918TIP3    H154245   1.864   1.408   0.922  0.6017  1.7685  2.1907
10918TIP3    H254246   1.901   1.521   0.828 -0.0702  1.3431  1.3972
10919TIP3   OH254247   3.682   3.143  16.513  0.3733 -0.1991  0.0555
10919TIP3    H154248   3.691   3.150  16.608 -0.3395 -1.6910  0.2673
10919TIP3    H254249   3.622   3.214  16.489 -0.4168 -0.5595  0.9010
10920TIP3   OH254250   2.645   5.239  12.932 -0.1035  0.6076 -0.3200
10920TIP3    H154251   2.629   5.333  12.933 -0.8482  0.5040 -1.2306
10920TIP3    H254252   2.738   5.231  12.910 -0.0825  1.1193 -0.4294
10921TIP3   OH254253   6.415   5.604   2.388  0.4075 -0.4836  0.0954
10921TIP3    H154254   6.482   5.608   2.457  0.0670  0.9639  0.3645
10921TIP3    H254255   6.388   5.512   2.387  0.7623 -0.6294  1.5610
10922TIP3   OH254256   2.474   4.786   2.357  0.2000 -0.1770  0.0930
10922TIP3    H154257   2.379   4.781   2.360  0.1221  0.8713 -0.2151
10922TIP3    H254258   2.493   4.880   2.356  1.2859 -0.3367  1.5693
10923TIP3   OH254259   6.526   4.564  11.993 -0.4846  0.1173 -0.4807
10923TIP3    H154260   6.460   4.614  12.041 -0.9233  0.4690 -1.4304
10923TIP3    H254261   6.565   4.507  12.059 -0.5622  1.1031  0.4477
10924TIP3   OH254262   4.159   3.740   4.892 -0.1325  0.2371 -0.2031
10924TIP3    H154263   4.198   3.669   4.943 -1.4979 -0.4952 -0.1443
10924TIP3    H254264   4.182   3.819   4.940 -0.2545 -0.3293  0.8145
10925TIP3   OH254265   6.554   6.489   0.798 -0.2652 -0.1354  0.0746
10925TIP3    H154266   6.579   6.454   0.713 -0.6050 -1.3803  0.4687
10925TIP3    H254267   6.478   6.544   0.780  1.4824  2.2064 -0.8610
10926TIP3   OH254268   2.185   1.137   2.247  0.2009 -0.0353 -0.3431
10926TIP3    H154269   2.124   1.093   2.305 -0.5550  0.7748 -0.4962
10926TIP3    H254270   2.261   1.157   2.302 -0.8586  1.5109  0.6271
10927TIP3   OH254271   4.309   6.362  13.731  0.0619  0.2117  0.6185
10927TIP3    H154272   4.315   6.270  13.759 -1.2428  0.7023  2.7412
10927TIP3    H254273   4.215   6.376  13.719  0.2039  1.4061  0.8471
10928TIP3   OH254274   5.622   6.475  12.501  0.2931  0.6285 -0.1276
10928TIP3    H154275   5.710   6.439  12.492  0.9611  2.4879 -1.8000
10928TIP3    H254276   5.576   6.413  12.557  2.3478 -0.9399 -0.0721
10929TIP3   OH254277   4.737   4.650  16.907 -0.5473 -0.2045  0.8774
10929TIP3    H154278   4.767   4.580  16.849  3.2024  1.1255  0.9800
10929TIP3    H254279   4.644   4.659  16.887 -0.3639 -2.7124 -1.7610
10930TIP3   OH254280   6.164   0.794   5.721 -0.2601 -0.2537 -0.1160
10930TIP3    H154281   6.175   0.752   5.636  0.2916 -0.3197 -0.0176
10930TIP3    H254282   6.160   0.723   5.784  0.1014 -0.1834 -0.0093
10931TIP3   OH254283   6.703   1.125   0.781  0.0871 -0.4906 -0.0912
10931TIP3    H154284   6.788   1.096   0.750  0.7269 -2.0090  2.7137
10931TIP3    H254285   6.712   1.220   0.791  1.1575 -0.5257 -0.5776
10932TIP3   OH254286   3.234   6.072   1.765  0.7793 -0.8344  0.1918
10932TIP3    H154287   3.296   6.023   1.711 -1.0361 -1.2959 -1.5836
10932TIP3    H254288   3.201   6.007   1.828  1.8544 -0.6486  0.9786
10933TIP3   OH254289   0.370   1.455  12.615  0.0067  0.4512 -1.0780
10933TIP3    H154290   0.368   1.433  12.522  1.0345  0.2187 -1.0589
10933TIP3    H254291   0.301   1.402  12.654  0.0475  0.0132 -1.5956
10934TIP3   OH254292   6.733   6.377  11.270 -0.7472  0.3994 -0.7355
10934TIP3    H154293   6.800   6.373  11.201 -0.0395 -0.4693 -0.0249
10934TIP3    H254294   6.707   6.469  11.273  0.7681  0.8606 -0.7114
10935TIP3   OH254295   4.786   6.423  12.671  0.1173 -0.3147  0.1986
10935TIP3    H154296   4.745   6.472  12.600  0.8846  2.2885  1.4177
10935TIP3    H254297   4.871   6.465  12.684  1.2137 -2.5568  0.8214
10936TIP3   OH254298   5.967   6.822   5.134 -0.0756 -0.7804 -0.4570
10936TIP3    H154299   6.009   6.748   5.178  1.0304  0.2702  0.3161
10936TIP3    H254300   5.876   6.818   5.161  0.2994 -0.9703  0.8293
10937TIP3   OH254301   1.801   5.360   2.836  0.4115 -0.0573 -0.2402
10937TIP3    H154302   1.876   5.380   2.781 -0.0196 -0.3972 -0.9662
10937TIP3    H254303   1.725   5.383   2.782 -0.0307 -0.9627 -0.0314
10938TIP3   OH254304   5.291   0.484  12.605 -0.4909  0.3846  0.5902
10938TIP3    H154305   5.318   0.567  12.565 -0.1476  0.2638  0.5656
10938TIP3    H254306   5.196   0.492  12.614 -0.5014  0.6501  0.2902
10939TIP3   OH254307   1.725   2.605  15.495 -0.0169  0.4145  0.2913
10939TIP3    H154308   1.804   2.659  15.489  0.3067  0.3135  2.6535
10939TIP3    H254309   1.666   2.642  15.429  1.6947  0.9716 -0.9985
10940TIP3   OH254310   4.718   4.342  11.746 -0.3809 -0.0591  0.0613
10940TIP3    H154311   4.801   4.391  11.746 -0.6587  0.4795  1.6037
10940TIP3    H254312   4.702   4.322  11.654  1.1265  0.4012 -0.3331
10941TIP3   OH254313   3.463   0.849   1.818 -0.2085 -0.0270  0.0240
10941TIP3    H154314   3.417   0.796   1.753 -2.1568 -1.2518  2.2286
10941TIP3    H254315   3.439   0.810   1.902  2.0751  1.5483  1.5269
10942TIP3   OH254316   4.485   2.134  11.823  0.7039  0.0529 -0.3304
10942TIP3    H154317   4.492   2.167  11.912  0.2915 -1.8373  0.4370
10942TIP3    H254318   4.537   2.196  11.771  2.7506  0.0112  1.5204
10943TIP3   OH254319   3.559   1.452  11.998 -0.5340 -0.1057 -0.2574
10943TIP3    H154320   3.641   1.445  11.949  0.4591 -0.7683  1.3888
10943TIP3    H254321   3.495   1.483  11.935  0.2111 -2.6370 -2.4294
10944TIP3   OH254322   2.643   2.363   0.885  0.3965  0.2236  0.2091
10944TIP3    H154323   2.683   2.281   0.856 -1.4706 -0.1850 -1.5137
10944TIP3    H254324   2.659   2.424   0.813  1.4475  1.3080  1.3143
10945TIP3   OH254325   5.409   3.267  11.676  0.0794  0.3326  0.0085
10945TIP3    H154326   5.323   3.251  11.715  1.1077  0.3869  2.5255
10945TIP3    H254327   5.435   3.352  11.710  0.4756  1.0846 -2.0696
10946TIP3   OH254328   5.762   6.470  17.080 -0.2891 -0.1704  0.2574
10946TIP3    H154329   5.838   6.430  17.038 -0.1542  0.8992 -0.5546
10946TIP3    H254330   5.798   6.538  17.137 -0.5211 -1.1196  1.5866
10947TIP3   OH254331   1.166   4.257   4.004  0.5005 -0.4606  0.0977
10947TIP3    H154332   1.151   4.327   4.068  0.6322 -0.2429 -0.1070
10947TIP3    H254333   1.156   4.300   3.919 -0.5783 -0.9487 -0.0327
10948TIP3   OH254334   6.015   3.146   3.944  0.2953  0.1368  0.1144
10948TIP3    H154335   5.969   3.079   3.994  1.1416 -0.1682  0.5008
10948TIP3    H254336   6.027   3.107   3.857  0.3384 -0.0067  0.1850
10949TIP3   OH254337   0.551   1.882   5.287  0.1947 -0.3586 -0.0216
10949TIP3    H154338   0.553   1.976   5.267 -1.2362 -0.5239 -1.1179
10949TIP3    H254339   0.637   1.850   5.260  0.0858  0.3482 -1.2869
10950TIP3   OH254340   5.329   5.295   4.416  0.1139 -0.2580  0.1558
10950TIP3    H154341   5.364   5.337   4.338  0.6333  0.8188  0.9422
10950TIP3    H254342   5.350   5.202   4.405 -0.3533 -0.2117 -1.2482
10951TIP3   OH254343   1.097   5.189  15.064  0.2112  0.2567  0.0926
10951TIP3    H154344   1.111   5.113  15.122 -0.5974 -0.4741 -0.6374
10951TIP3    H254345   1.185   5.215  15.037  0.5991  0.5275  1.5267
10952TIP3   OH254346   4.571   0.588   4.829  0.2034 -0.2645  0.5373
10952TIP3    H154347   4.661   0.567   4.803 -0.5159 -0.8456 -1.6450
10952TIP3    H254348   4.572   0.683   4.841  0.9691 -0.1802 -0.0771
10953TIP3   OH254349   0.749   2.644  16.629  0.5460  0.0661  0.1504
10953TIP3    H154350   0.742   2.574  16.694  1.4375  0.1539  0.3528
10953TIP3    H254351   0.722   2.604  16.547  3.8397 -1.4081 -0.3403
10954TIP3   OH254352   1.402   4.346  11.799 -0.6522 -0.7983  0.1458
10954TIP3    H154353   1.342   4.275  11.818  0.8253 -2.3878 -0.8908
10954TIP3    H254354   1.463   4.311  11.735  2.1563  0.2824  2.0099
10955TIP3   OH254355   6.586   1.483  13.213  0.3573  0.2285  0.0567
10955TIP3    H154356   6.650   1.531  13.266  0.0731 -0.1919  0.7950
10955TIP3    H254357   6.597   1.392  13.239 -1.2838  0.2657  1.0150
10956TIP3   OH254358   2.777   2.973  15.957 -0.2227  0.6316 -0.4105
10956TIP3    H154359   2.703   2.971  15.897  0.3045 -0.6219 -1.0666
10956TIP3    H254360   2.849   2.935  15.907  0.0528 -1.1399  1.2130
10957TIP3   OH254361   1.265   0.492   4.295 -0.4886  0.2650  0.0427
10957TIP3    H154362   1.255   0.452   4.209 -0.6707 -0.4793  0.3993
10957TIP3    H254363   1.190   0.550   4.304 -1.3459 -0.8592  0.3318
10958TIP3   OH254364   3.386   6.054   3.122 -0.0432  0.3422 -0.1617
10958TIP3    H154365   3.476   6.088   3.122  1.3565 -3.0082  0.1588
10958TIP3    H254366   3.367   6.035   3.031 -0.9300  2.0184 -0.3749
10959TIP3   OH254367   2.442   4.376   5.587  0.3217  0.0758  0.5086
10959TIP3    H154368   2.515   4.338   5.537  0.2026  0.7768 -0.2241
10959TIP3    H254369   2.407   4.443   5.530  0.1065  0.8379  1.5139
10960TIP3   OH254370   1.007   3.451   6.456  0.7938 -0.2115  0.0760
10960TIP3    H154371   1.042   3.363   6.471 -3.4338 -2.2053 -0.3943
10960TIP3    H254372   0.980   3.482   6.542 -0.2311 -0.6218 -0.0839
10961TIP3   OH254373   2.602   2.607  12.456  0.5071  0.0241 -0.2617
10961TIP3    H154374   2.632   2.602  12.365 -0.1965 -2.5382 -0.4231
10961TIP3    H254375   2.508   2.591  12.451  0.1896  1.3575  0.8287
10962TIP3   OH254376   3.342   1.652   5.783 -0.3028  0.0419 -0.3686
10962TIP3    H154377   3.274   1.628   5.847 -0.6640 -0.4962 -0.9316
10962TIP3    H254378   3.322   1.597   5.706  1.7722 -1.4075  0.0321
10963TIP3   OH254379   5.879   2.584  15.346  0.1794  0.6801  0.0710
10963TIP3    H154380   5.956   2.531  15.324 -1.1781 -1.0218 -0.8570
10963TIP3    H254381   5.909   2.642  15.415  1.7798 -1.3595  1.2215
10964TIP3   OH254382   3.416   4.031  11.898 -0.0579  0.0674 -0.1431
10964TIP3    H154383   3.334   4.001  11.858 -0.6278  2.1311 -0.7029
10964TIP3    H254384   3.437   4.111  11.849  0.5084  1.3882  2.1282
10965TIP3   OH254385   1.834   5.618  14.537  0.0172  0.2712 -0.1723
10965TIP3    H154386   1.924   5.611  14.569  0.1505 -0.4946 -0.6851
10965TIP3    H254387   1.839   5.588  14.446 -0.6736  0.6946 -0.3524
10966TIP3   OH254388   2.419   1.019  13.003  0.3598 -0.2726 -0.1974
10966TIP3    H154389   2.408   1.109  13.034 -0.3598  0.0790 -1.4206
10966TIP3    H254390   2.463   1.028  12.919 -0.7194 -0.9925 -0.8548
10967TIP3   OH254391   1.704   1.521  12.153  0.1990 -0.7883  0.1681
10967TIP3    H154392   1.703   1.617  12.158  0.2205 -0.7858  0.1224
10967TIP3    H254393   1.744   1.494  12.236  1.4936 -0.7104 -0.4078
10968TIP3   OH254394   4.833   2.551  16.574 -0.0360 -0.2982  0.3621
10968TIP3    H154395   4.821   2.601  16.493 -1.5381  0.4200  0.9726
10968TIP3    H254396   4.775   2.475  16.564 -0.4208 -0.0780  0.8322
10969TIP3   OH254397   4.069   5.090   1.273 -0.3988  0.0718  0.6020
10969TIP3    H154398   4.028   5.050   1.350  0.0012 -2.5071 -0.4239
10969TIP3    H254399   4.154   5.122   1.305 -0.6006 -0.1791  1.4020
10970TIP3   OH254400   0.818   0.293   2.327  0.2002 -0.0630 -0.0238
10970TIP3    H154401   0.833   0.259   2.415 -0.8344 -1.8480 -0.4931
10970TIP3    H254402   0.737   0.344   2.333  0.5547  0.4788  0.2109
10971TIP3   OH254403   3.351   2.084   4.776 -0.2064 -0.0964 -0.1069
10971TIP3    H154404   3.355   2.179   4.782  0.4283 -0.2196  2.0468
10971TIP3    H254405   3.321   2.055   4.862  0.8460 -1.9041 -0.2978
10972TIP3   OH254406   4.255   2.407   3.246  0.2993  0.4724 -0.7122
10972TIP3    H154407   4.324   2.467   3.274  0.7373  0.2418 -1.2658
10972TIP3    H254408   4.174   2.448   3.274  0.7100  0.2702  0.8537
10973TIP3   OH254409   2.055   5.861   5.151 -0.4207  0.4247 -0.4752
10973TIP3    H154410   2.020   5.943   5.185  0.2617  0.8591 -0.8098
10973TIP3    H254411   2.120   5.887   5.086  1.6361 -0.3098  1.1732
10974TIP3   OH254412   4.195   2.614   5.356 -0.5090 -1.0412 -0.2463
10974TIP3    H154413   4.107   2.629   5.324 -0.5605 -1.0388 -0.1063
10974TIP3    H254414   4.236   2.557   5.291 -0.2726 -0.2022 -0.8397
10975TIP3   OH254415   2.035   5.866   6.303 -0.3748 -0.0675 -0.7183
10975TIP3    H154416   2.024   5.822   6.388 -0.3212  0.1795 -0.5839
10975TIP3    H254417   2.107   5.927   6.317  0.4565 -0.8809 -1.2802
10976TIP3   OH254418   0.556   6.684   5.261 -0.2460  0.7325  0.1102
10976TIP3    H154419   0.557   6.746   5.188  0.7442  1.3679  0.6302
10976TIP3    H254420   0.631   6.709   5.315  0.1443 -0.9000  0.3815
10977TIP3   OH254421   4.229   0.129   0.360  0.3940  0.2225  0.4191
10977TIP3    H154422   4.268   0.059   0.308  0.8791  0.4826  0.4262
10977TIP3    H254423   4.138   0.134   0.330  0.0505 -1.1401  1.1959
10978TIP3   OH254424   3.311   1.660  14.451 -0.6733 -0.1378 -0.4922
10978TIP3    H154425   3.330   1.746  14.490 -2.2207  0.3163 -0.6752
10978TIP3    H254426   3.236   1.675  14.394  2.6787 -0.2625 -5.5882
10979TIP3   OH254427   6.359   6.655   2.736  0.2438  0.6934 -0.4304
10979TIP3    H154428   6.416   6.632   2.663 -0.6558 -0.4011 -0.8266
10979TIP3    H254429   6.296   6.583   2.741  0.1237  0.8605  1.2645
10980TIP3   OH254430   4.886   6.576   6.565 -0.6072  0.0840  0.3413
10980TIP3    H154431   4.861   6.551   6.477  2.0342  0.1376 -0.5272
10980TIP3    H254432   4.860   6.668   6.573  1.5026  0.9321 -1.4857
10981TIP3   OH254433   3.924   6.815   5.935  0.1049  0.3346  0.3799
10981TIP3    H154434   3.846   6.855   5.975 -0.3707  0.8243 -0.9919
10981TIP3    H254435   3.998   6.855   5.980 -0.4105  1.2163  0.4635
10982TIP3   OH254436   4.513   5.362  16.398  0.7582  0.3329  0.1906
10982TIP3    H154437   4.553   5.398  16.319  0.7041  1.8359  0.8027
10982TIP3    H254438   4.572   5.292  16.425  2.8184  2.2076  0.8413
10983TIP3   OH254439   6.166   5.175   2.763 -0.2202  0.2203  0.1062
10983TIP3    H154440   6.204   5.110   2.822 -0.0626 -0.1330 -0.3858
10983TIP3    H254441   6.234   5.191   2.698  0.4452  2.1393  1.1549
10984TIP3   OH254442   4.532   6.755   3.173 -0.4817 -0.7403 -0.4226
10984TIP3    H154443   4.441   6.784   3.164 -0.5610 -0.9168 -0.2069
10984TIP3    H254444   4.575   6.826   3.221 -0.7896 -1.1794  0.5314
10985TIP3   OH254445   2.616   4.162  10.570 -0.1529  0.0034 -0.3344
10985TIP3    H154446   2.644   4.078  10.604 -0.5476  0.7222  1.9108
10985TIP3    H254447   2.697   4.210  10.551  0.1568  0.2813  1.5004
10986TIP3   OH254448   0.350   4.803  12.614  0.8350  0.0367  0.0034
10986TIP3    H154449   0.263   4.765  12.600  0.7436  0.5665 -0.9287
10986TIP3    H254450   0.364   4.796  12.709 -0.0559 -0.4015  0.1152
10987TIP3   OH254451   1.514   4.005  15.151  0.3562  0.5368  0.1615
10987TIP3    H154452   1.540   3.935  15.091 -2.7390  0.4291 -1.2315
10987TIP3    H254453   1.483   3.959  15.229 -1.2265  0.3356 -0.5641
10988TIP3   OH254454   6.548   5.284   4.268  0.1004  0.6597  0.0390
10988TIP3    H154455   6.579   5.319   4.351  2.3435  0.8009 -0.7818
10988TIP3    H254456   6.625   5.286   4.211 -1.0656 -0.5416 -1.6875
10989TIP3   OH254457   4.642   0.254   5.106  0.2609 -0.3847  0.2705
10989TIP3    H154458   4.604   0.166   5.095 -1.7407  0.6286 -1.4702
10989TIP3    H254459   4.672   0.278   5.019 -3.1607  2.3006 -0.3576
10990TIP3   OH254460   3.109   3.928   0.715 -0.3590  0.4340 -0.0246
10990TIP3    H154461   3.165   3.886   0.650  0.9391  0.0918  1.2558
10990TIP3    H254462   3.079   4.009   0.673  0.3385  0.1596 -1.0862
10991TIP3   OH254463   5.924   4.182   6.542  0.0325 -0.0497  0.4091
10991TIP3    H154464   5.968   4.237   6.607  1.6363 -1.2190  0.3672
10991TIP3    H254465   5.977   4.103   6.538 -2.5659 -1.9171  0.9305
10992TIP3   OH254466   0.449   0.659  16.136 -0.5897  0.0701  0.7714
10992TIP3    H154467   0.406   0.603  16.071 -0.4691  0.6041  0.2223
10992TIP3    H254468   0.384   0.724  16.159 -0.7790 -0.3743  1.5211
10993TIP3   OH254469   5.077   1.277  13.227  0.1919  0.6631 -0.0268
10993TIP3    H154470   5.099   1.360  13.268 -0.9749  1.0279 -0.1154
10993TIP3    H254471   5.002   1.244  13.276 -0.4964  0.5510 -1.1076
10994TIP3   OH254472   4.505   4.171   6.425  0.4757 -0.2520  0.3427
10994TIP3    H154473   4.585   4.155   6.375  0.0818 -0.2655 -0.2933
10994TIP3    H254474   4.464   4.245   6.380  0.3222  0.0082  0.9031
10995TIP3   OH254475   3.630   6.065  13.389 -0.0796  1.0899 -0.3036
10995TIP3    H154476   3.570   5.994  13.411  1.6404 -0.7152 -1.1118
10995TIP3    H254477   3.630   6.066  13.293  0.3175  1.8435 -0.2987
10996TIP3   OH254478   1.727   4.437   1.856 -0.3500  0.1055  0.2700
10996TIP3    H154479   1.814   4.431   1.895  1.2464  2.2975 -2.6018
10996TIP3    H254480   1.700   4.528   1.872 -1.2939 -0.0266 -0.4885
10997TIP3   OH254481   3.555   0.422  13.325  0.1750  0.0338 -0.6189
10997TIP3    H154482   3.489   0.436  13.393  1.0797  0.5127  0.1962
10997TIP3    H254483   3.591   0.510  13.308  1.5105 -0.3706 -0.0644
10998TIP3   OH254484   1.471   2.692  11.637  0.4976  0.0107 -0.1474
10998TIP3    H154485   1.457   2.614  11.583  1.0710  0.1873 -0.5698
10998TIP3    H254486   1.516   2.753  11.579  3.0684 -0.5657  1.1084
10999TIP3   OH254487   2.090   0.293   3.968 -0.5067 -0.2897 -0.2785
10999TIP3    H154488   2.104   0.292   3.874 -0.6991 -1.0110 -0.3009
10999TIP3    H254489   2.095   0.201   3.995 -1.5962 -0.2160  0.2384
11000TIP3   OH254490   4.728   1.095   0.617 -0.3194 -0.8783 -0.2719
11000TIP3    H154491   4.783   1.137   0.551  1.0731  0.4507  1.6294
11000TIP3    H254492   4.651   1.151   0.623  0.9771  0.8490  1.3762
11001TIP3   OH254493   0.727   3.795  16.590  0.3202 -0.1257 -0.0595
11001TIP3    H154494   0.670   3.725  16.624  0.6210 -0.9382 -1.1863
11001TIP3    H254495   0.681   3.826  16.512  0.2605  0.8621  0.3544
11002TIP3   OH254496   6.020   2.551  16.298 -0.3489 -0.7224 -0.2889
11002TIP3    H154497   5.942   2.566  16.244 -1.6837 -1.5795  1.2836
11002TIP3    H254498   5.990   2.568  16.388  1.3627 -0.8557  0.3439
11003TIP3   OH254499   1.637   6.139  13.636  0.2148 -0.0245 -0.0952
11003TIP3    H154500   1.697   6.064  13.643  1.5779  0.8940 -1.3828
11003TIP3    H254501   1.609   6.155  13.726  0.8389 -1.3304  0.3646
11004TIP3   OH254502   3.356   5.661   5.307 -0.7342  0.3846 -0.6226
11004TIP3    H154503   3.357   5.743   5.358 -2.3416  0.8534 -1.2883
11004TIP3    H254504   3.346   5.690   5.216  0.3280 -0.5126 -1.0410
11005TIP3   OH254505   1.297   4.432   2.298 -0.2387 -0.0441  0.3573
11005TIP3    H154506   1.391   4.442   2.308 -0.5038  1.7653  1.4635
11005TIP3    H254507   1.259   4.475   2.375 -1.9742 -1.0379  0.1298
11006TIP3   OH254508   0.880   2.352   2.602  0.4015  0.0814 -0.1276
11006TIP3    H154509   0.870   2.438   2.563  1.7182  0.6877  0.8125
11006TIP3    H254510   0.973   2.332   2.596  0.1374 -1.2449 -0.2485
11007TIP3   OH254511   6.619   3.834  11.859 -0.0880 -0.1438 -0.5371
11007TIP3    H154512   6.550   3.850  11.795  0.1638  0.5471 -0.6422
11007TIP3    H254513   6.700   3.858  11.814  0.1721 -0.4527 -0.2396
11008TIP3   OH254514   4.921   1.941  16.352 -0.0506 -0.5584 -0.9050
11008TIP3    H154515   4.981   1.909  16.420 -1.1408  2.5542  1.7549
11008TIP3    H254516   4.838   1.898  16.372 -0.4471  0.5789  0.0248
11009TIP3   OH254517   6.527   3.205  13.161 -1.1045 -0.1764  0.4424
11009TIP3    H154518   6.568   3.200  13.075 -1.4014 -0.9537  0.3380
11009TIP3    H254519   6.601   3.197  13.222 -1.1567 -3.1456  0.2692
11010TIP3   OH254520   1.453   2.153  11.636  0.1034 -0.5673  0.0697
11010TIP3    H154521   1.504   2.072  11.642 -1.0939 -1.2545  1.6050
11010TIP3    H254522   1.427   2.159  11.544  0.2243 -1.9168 -0.0635
11011TIP3   OH254523   5.268   0.245   1.508 -0.3081  0.1953 -0.3656
11011TIP3    H154524   5.261   0.169   1.451 -1.3813  0.3401 -0.4462
11011TIP3    H254525   5.282   0.209   1.596 -0.2248 -0.0739 -0.4907
11012TIP3   OH254526   6.770   2.459  16.497  0.0713  0.0776  0.3636
11012TIP3    H154527   6.791   2.539  16.545  1.7161  0.0189 -0.2092
11012TIP3    H254528   6.766   2.485  16.406  0.3518 -0.4290  0.1980
11013TIP3   OH254529   2.061   3.554  16.398 -0.6968  0.1871 -0.3020
11013TIP3    H154530   2.042   3.645  16.419 -0.0658  0.2986 -0.2035
11013TIP3    H254531   1.982   3.506  16.423 -1.0544  0.7136 -0.4213
11014TIP3   OH254532   6.081   2.182  16.930 -0.9571  0.1941 -0.0386
11014TIP3    H154533   6.031   2.105  16.902  0.4917 -0.4257 -1.0150
11014TIP3    H254534   6.038   2.256  16.887 -1.9119 -0.1330  0.3204
11015TIP3   OH254535   4.021   2.113   5.725 -0.5445  0.0982  0.1605
11015TIP3    H154536   3.929   2.139   5.720 -0.4105  0.3542 -1.4080
11015TIP3    H254537   4.023   2.047   5.794 -1.9021  0.0824  0.2139
11016TIP3   OH254538   5.087   0.297   5.997  0.5841 -0.1322  0.8243
11016TIP3    H154539   5.152   0.232   6.027 -0.2519 -1.1905  0.4189
11016TIP3    H254540   5.139   0.362   5.950  1.3845 -0.8771  0.6424
11017TIP3   OH254541   0.730   5.656   0.589  0.0747 -0.0114  0.6515
11017TIP3    H154542   0.814   5.611   0.583  0.2100  0.3156 -0.0178
11017TIP3    H254543   0.705   5.672   0.498  0.1208  1.4402  0.8739
11018TIP3   OH254544   5.617   4.047  12.155  0.3922 -0.6431 -0.0663
11018TIP3    H154545   5.652   3.969  12.197  0.3445 -0.2455  0.7224
11018TIP3    H254546   5.679   4.117  12.179 -0.9461  0.0863  1.4016
11019TIP3   OH254547   1.121   5.560   5.096 -0.0382 -0.1072 -0.3976
11019TIP3    H154548   1.165   5.644   5.103  1.9292 -1.1941  3.3072
11019TIP3    H254549   1.160   5.519   5.019  2.8430  0.4836  0.5992
11020TIP3   OH254550   4.073   6.341  14.888  0.1847 -0.2494 -0.5691
11020TIP3    H154551   4.072   6.426  14.932 -1.2298 -0.7007  0.3553
11020TIP3    H254552   4.109   6.281  14.953  0.1584 -0.5418 -0.8226
11021TIP3   OH254553   0.716   6.263   0.826  0.1422  0.3618 -0.5525
11021TIP3    H154554   0.656   6.284   0.754  1.0225  1.1255 -1.0745
11021TIP3    H254555   0.741   6.172   0.809 -1.8109 -0.4191  0.3791
11022TIP3   OH254556   2.093   3.458   4.623 -0.5550  0.1436  0.2133
11022TIP3    H154557   2.066   3.370   4.596 -0.3036  0.0798  0.1683
11022TIP3    H254558   2.131   3.497   4.544  1.3946 -0.5157  0.7764
11023TIP3   OH254559   5.246   5.588  10.404  0.5393  0.2395  0.1466
11023TIP3    H154560   5.218   5.671  10.365  1.1690  0.6416  0.5169
11023TIP3    H254561   5.313   5.614  10.468  1.0525 -0.5939 -0.0437
11024TIP3   OH254562   4.197   3.481   3.750 -0.2489 -0.5241 -0.0783
11024TIP3    H154563   4.159   3.568   3.744  0.0945 -0.4126 -0.7359
11024TIP3    H254564   4.255   3.474   3.673  0.7768 -0.8157  0.6927
11025TIP3   OH254565   3.098   1.815  14.647  0.0918 -0.3583 -0.6807
11025TIP3    H154566   3.084   1.791  14.739 -1.8096 -1.1465 -1.1302
11025TIP3    H254567   3.189   1.845  14.644  0.9024 -2.3372  1.0477
11026TIP3   OH254568   1.164   6.436   3.586 -0.3476  0.4691 -0.4009
11026TIP3    H154569   1.246   6.412   3.629  0.0227 -0.2219 -1.4329
11026TIP3    H254570   1.191   6.474   3.502 -1.0159  2.5446  0.2566
11027TIP3   OH254571   6.323   0.791   1.410 -0.0593  0.2454 -0.8672
11027TIP3    H154572   6.317   0.856   1.480  0.5352  0.1899 -0.7507
11027TIP3    H254573   6.386   0.828   1.348  1.0370 -0.6238 -0.3224
11028TIP3   OH254574   5.497   1.415   2.626 -1.1061 -0.0693  0.2386
11028TIP3    H154575   5.447   1.479   2.575 -0.3174 -1.1144 -1.9669
11028TIP3    H254576   5.574   1.397   2.573  0.2756 -0.5467  2.2786
11029TIP3   OH254577   0.762   2.554   5.005 -0.2652 -0.0593  0.2390
11029TIP3    H154578   0.716   2.637   5.018 -2.2897 -1.0459 -0.2380
11029TIP3    H254579   0.854   2.579   4.999 -0.9578  2.4203 -2.0142
11030TIP3   OH254580   5.979   3.520  12.687  0.2453 -0.1329 -0.1405
11030TIP3    H154581   5.902   3.481  12.646 -1.0211  1.7829  0.2939
11030TIP3    H254582   6.053   3.476  12.645 -1.0568 -2.3485 -0.2476
11031TIP3   OH254583   4.963   2.651   2.248 -0.0921  0.5855 -0.2088
11031TIP3    H154584   5.051   2.683   2.268  0.0546  0.2459 -0.3205
11031TIP3    H254585   4.910   2.731   2.239  0.5311  0.8578 -1.7319
11032TIP3   OH254586   1.332   3.187   4.675  1.1418  0.6758  0.0684
11032TIP3    H154587   1.333   3.267   4.622  0.6917 -0.0247 -1.0337
11032TIP3    H254588   1.393   3.128   4.631 -0.8753 -0.7294 -1.0396
11033TIP3   OH254589   4.844   0.309   5.862  0.0661 -0.1966  0.0143
11033TIP3    H154590   4.928   0.285   5.902 -0.1025  0.3464  0.7273
11033TIP3    H254591   4.866   0.382   5.803  0.0830  0.0042  0.2672
11034TIP3   OH254592   2.038   0.551  17.107 -0.6168  0.3815  0.3585
11034TIP3    H154593   2.031   0.476  17.165 -1.1843  0.5425  0.5074
11034TIP3    H254594   2.038   0.514  17.019  0.0634  0.1503  0.4496
11035TIP3   OH254595   2.171   2.245  11.289  0.5767  0.1601 -0.1457
11035TIP3    H154596   2.195   2.323  11.339 -0.0300  0.5239 -0.4056
11035TIP3    H254597   2.133   2.280  11.208 -0.0639 -0.3923 -0.0965
11036TIP3   OH254598   0.698   3.105  15.891 -0.1376 -0.4564  0.0267
11036TIP3    H154599   0.646   3.182  15.869  0.0808 -0.7244 -1.5369
11036TIP3    H254600   0.734   3.075  15.808  1.9673 -0.7000  0.9546
11037TIP3   OH254601   5.568   5.269  13.948 -0.0758  0.1796  0.2230
11037TIP3    H154602   5.590   5.224  13.867  0.6033 -3.7528  2.3611
11037TIP3    H254603   5.477   5.244  13.965  0.2149 -0.1912  1.3078
11038TIP3   OH254604   6.290   2.224   1.201 -0.2315  0.0103  0.4599
11038TIP3    H154605   6.369   2.226   1.254  0.3155 -0.4758 -0.3267
11038TIP3    H254606   6.321   2.233   1.111 -1.1799  1.2714  0.2282
11039TIP3   OH254607   6.406   0.434   0.200 -0.2339 -0.3617 -0.0040
11039TIP3    H154608   6.446   0.494   0.137 -0.9583 -0.9482 -1.0401
11039TIP3    H254609   6.430   0.471   0.285 -0.7355  1.4569 -0.5919
11040TIP3   OH254610   1.314   3.475   5.252 -0.2277  0.4384  0.1486
11040TIP3    H154611   1.289   3.560   5.288 -1.8688 -0.1557  0.5021
11040TIP3    H254612   1.279   3.411   5.315 -0.2994 -0.5292 -0.8431
11041TIP3   OH254613   3.429   2.126  12.459 -0.0983 -0.0984  0.7256
11041TIP3    H154614   3.430   2.033  12.439  3.1465  0.0682 -0.4998
11041TIP3    H254615   3.482   2.134  12.538  3.6064  0.9566 -1.6219
11042TIP3   OH254616   5.417   1.446   6.547  0.0087 -0.3675 -0.0650
11042TIP3    H154617   5.374   1.365   6.520  0.0396 -1.3461  2.5332
11042TIP3    H254618   5.437   1.492   6.465 -2.0670 -1.8960 -1.5091
11043TIP3   OH254619   0.958   1.921  16.271 -0.7317  0.4258 -1.2228
11043TIP3    H154620   0.899   1.847  16.287  0.9137 -0.6631  0.1781
11043TIP3    H254621   1.027   1.885  16.216 -0.6459  1.3262 -1.7261
11044TIP3   OH254622   0.412   1.389  15.484  0.2826 -0.5382 -0.1754
11044TIP3    H154623   0.363   1.380  15.565 -0.5161 -0.7450 -0.6706
11044TIP3    H254624   0.423   1.484  15.473  0.7861 -0.5272  0.3967
11045TIP3   OH254625   3.316   2.564  15.023 -0.0925  0.0900 -0.6275
11045TIP3    H154626   3.325   2.500  14.952 -0.6934  0.3933 -0.9864
11045TIP3    H254627   3.349   2.646  14.986  0.7240 -0.0157 -0.1507
11046TIP3   OH254628   2.357   6.529  15.603 -0.2402  0.4781 -0.3603
11046TIP3    H154629   2.396   6.605  15.558  0.9137 -0.8350 -1.7053
11046TIP3    H254630   2.407   6.521  15.684  1.6915 -0.5374 -1.5740
11047TIP3   OH254631   5.007   2.215  13.362 -0.0328 -0.1989  0.2404
11047TIP3    H154632   5.078   2.262  13.407 -0.5286 -0.2746  1.1276
11047TIP3    H254633   4.940   2.204  13.429  0.2506 -2.6036  0.2170
11048TIP3   OH254634   5.128   2.149   1.702  0.4921 -0.1025 -0.2064
11048TIP3    H154635   5.136   2.239   1.735 -0.3441  0.2190 -0.8356
11048TIP3    H254636   5.089   2.159   1.615  0.3666 -1.0778 -0.2730
11049TIP3   OH254637   3.257   5.131   2.294  0.2007  0.4364 -0.0116
11049TIP3    H154638   3.221   5.175   2.371  0.0895  0.9656 -0.3646
11049TIP3    H254639   3.288   5.046   2.328 -1.7248 -0.2233  0.2405
11050TIP3   OH254640   0.638   3.141  12.822 -0.6023  0.5174  0.3145
11050TIP3    H154641   0.725   3.106  12.842 -0.6102 -0.1548 -0.7632
11050TIP3    H254642   0.578   3.083  12.870 -0.5241  0.1498 -0.0298
11051TIP3   OH254643   2.717   1.497   0.185 -0.0756  0.6668  0.6382
11051TIP3    H154644   2.717   1.413   0.232 -1.0874  0.2131 -0.1346
11051TIP3    H254645   2.731   1.563   0.253 -1.8461  0.0556  1.6409
11052TIP3   OH254646   6.751   1.455   6.589 -0.2176 -0.1161 -0.2513
11052TIP3    H154647   6.759   1.372   6.542 -1.5251  0.2360 -1.1552
11052TIP3    H254648   6.753   1.431   6.681  1.1885 -0.9566 -0.4722
11053TIP3   OH254649   1.295   0.868   5.387  0.9156 -0.3143 -0.3046
11053TIP3    H154650   1.227   0.802   5.371  1.8909 -1.2926 -0.5398
11053TIP3    H254651   1.271   0.941   5.330  0.5739 -1.0306 -1.0994
11054TIP3   OH254652   2.989   2.505  17.131 -0.0815 -0.0475 -0.1705
11054TIP3    H154653   2.956   2.472  17.215 -0.9159  0.8204 -0.1352
11054TIP3    H254654   2.945   2.453  17.065  0.3533 -0.5349 -0.0833
11055TIP3   OH254655   0.576   0.956  12.792 -0.1243  0.6563  0.6279
11055TIP3    H154656   0.615   0.889  12.736 -0.6192  1.4679 -0.7441
11055TIP3    H254657   0.643   0.976  12.857  0.0162 -1.1722  1.0937
11056TIP3   OH254658   1.879   2.824  15.904 -0.1997 -0.0147 -0.2673
11056TIP3    H154659   1.847   2.795  15.989  2.0849  1.8325  1.3821
11056TIP3    H254660   1.950   2.885  15.925  0.5558  0.4291 -3.5236
11057TIP3   OH254661   4.358   2.465   5.159 -0.6055  0.1250 -0.3710
11057TIP3    H154662   4.424   2.399   5.138  1.1354  1.9209 -0.9539
11057TIP3    H254663   4.398   2.548   5.132 -2.3607  1.5130  0.9942
11058TIP3   OH254664   2.325   4.294  12.398  0.4045  0.2282 -0.7849
11058TIP3    H154665   2.328   4.205  12.432 -1.8399  1.0275  1.9539
11058TIP3    H254666   2.250   4.294  12.338  0.6612  0.1761 -1.1047
11059TIP3   OH254667   0.304   4.060   3.266  0.6205 -0.5564 -0.1815
11059TIP3    H154668   0.260   4.143   3.284  1.3232 -0.2509  0.1898
11059TIP3    H254669   0.251   4.019   3.198 -0.6816 -0.5773  0.7987
11060TIP3   OH254670   6.345   1.535  15.982 -0.1091 -0.3311 -0.2872
11060TIP3    H154671   6.399   1.568  16.054 -0.2672 -1.9385  0.6091
11060TIP3    H254672   6.391   1.457  15.951 -1.0651 -0.7757 -0.6174
11061TIP3   OH254673   1.361   3.013   3.166 -0.1102  0.9238  0.4614
11061TIP3    H154674   1.286   2.955   3.180  0.5221 -0.4034 -1.3158
11061TIP3    H254675   1.376   3.053   3.252 -1.3245 -0.6230  1.4621
11062TIP3   OH254676   5.826   4.393   0.496  0.5013  0.3147 -0.3230
11062TIP3    H154677   5.752   4.447   0.525 -0.0664 -0.6846  0.1210
11062TIP3    H254678   5.810   4.379   0.403  0.3187  0.4068 -0.3062
11063TIP3   OH254679   0.779   5.728  11.425  0.4184  0.2218  0.5494
11063TIP3    H154680   0.818   5.657  11.477  0.6503 -0.3031 -0.3169
11063TIP3    H254681   0.691   5.738  11.460  0.5537 -0.1488  1.0117
11064TIP3   OH254682   1.477   4.043  17.044  0.2056  0.9969 -0.1712
11064TIP3    H154683   1.501   3.985  17.116  2.3717  1.8842 -0.0906
11064TIP3    H254684   1.458   4.127  17.085 -1.6265  0.7260 -0.3993
11065TIP3   OH254685   3.133   0.222  15.725 -1.1383 -0.1036 -0.3624
11065TIP3    H154686   3.089   0.201  15.642 -1.2076  1.2593 -0.6907
11065TIP3    H254687   3.134   0.318  15.728  0.7669 -0.1064  0.2002
11066TIP3   OH254688   5.911   2.769   0.932  0.5894  0.2895 -0.1114
11066TIP3    H154689   5.929   2.716   1.010 -0.7474 -0.5433 -0.3200
11066TIP3    H254690   5.860   2.843   0.965 -0.1761 -0.1830 -0.1910
11067TIP3   OH254691   0.422   3.355   0.716  0.0027 -0.4071 -0.6499
11067TIP3    H154692   0.420   3.338   0.810 -1.0697  0.7887 -0.4429
11067TIP3    H254693   0.466   3.440   0.708  0.6429 -0.7800 -1.2958
11068TIP3   OH254694   3.430   5.642   2.001 -0.4788  0.6139  0.2300
11068TIP3    H154695   3.395   5.553   2.002 -0.2263  0.4845  2.4370
11068TIP3    H254696   3.523   5.631   2.021 -0.2381  1.3283 -0.4358
11069TIP3   OH254697   2.982   5.792  13.731 -0.0402  0.5197 -0.0219
11069TIP3    H154698   2.929   5.864  13.765 -2.5273 -1.8164  1.5193
11069TIP3    H254699   2.922   5.744  13.673  0.2130 -2.2627  1.8068
11070TIP3   OH254700   1.581   3.875  14.898 -0.3951  0.0050  0.0269
11070TIP3    H154701   1.608   3.788  14.870  0.3503  0.6769 -1.4850
11070TIP3    H254702   1.639   3.934  14.849 -0.3096  1.3310  1.6384
11071TIP3   OH254703   6.577   6.417   4.548  0.6298  0.3280 -0.4738
11071TIP3    H154704   6.494   6.370   4.560  0.7229  0.6169  1.7258
11071TIP3    H254705   6.554   6.509   4.560  1.2855  0.3923  0.3774
11072TIP3   OH254706   0.615   6.839   3.113  0.1780  0.2038  0.5946
11072TIP3    H154707   0.568   6.798   3.185  1.8248 -2.0452  0.4844
11072TIP3    H254708   0.694   6.786   3.102  1.9052  2.7444 -0.3610
11073TIP3   OH254709   6.722   5.473  13.281 -0.0881  0.0767 -0.0835
11073TIP3    H154710   6.748   5.556  13.322 -1.8515  0.5426  0.1839
11073TIP3    H254711   6.680   5.499  13.199 -1.4911 -0.4463  0.4293
11074TIP3   OH254712   2.878   3.812   5.760 -0.0092  0.0040 -0.6201
11074TIP3    H154713   2.801   3.761   5.785 -0.3524  0.1940 -1.2491
11074TIP3    H254714   2.911   3.849   5.841  0.3001 -1.2910 -0.1314
11075TIP3   OH254715   1.553   5.460  15.581 -0.0272  0.5213  0.3126
11075TIP3    H154716   1.544   5.412  15.663 -2.8359  1.1057  0.4535
11075TIP3    H254717   1.630   5.515  15.593  0.9329 -1.0388  1.6439
11076TIP3   OH254718   4.806   5.407   2.508 -0.1654  0.4016  0.3221
11076TIP3    H154719   4.798   5.313   2.524 -1.9579  0.1454 -1.5694
11076TIP3    H254720   4.717   5.441   2.519  0.0187  1.4741 -1.0913
11077TIP3   OH254721   6.705   0.289  15.420 -0.5082 -0.4832  0.4778
11077TIP3    H154722   6.639   0.339  15.469 -2.7982 -0.8535 -2.0021
11077TIP3    H254723   6.774   0.352  15.402 -0.3780  0.0932  2.6251
11078TIP3   OH254724   4.951   6.386   0.210  0.1317 -0.0751  0.1245
11078TIP3    H154725   4.975   6.308   0.260  1.1399 -0.4074 -0.8397
11078TIP3    H254726   4.869   6.416   0.250 -0.3091 -1.6548  0.4652
11079TIP3   OH254727   4.905   0.675  11.862  0.2564 -0.1556 -0.0841
11079TIP3    H154728   4.979   0.735  11.863  0.8415 -0.7173 -2.8063
11079TIP3    H254729   4.834   0.723  11.819 -0.1019 -0.5227  0.0843
11080TIP3   OH254730   4.083   0.396   1.644 -0.8607 -0.0250  0.5663
11080TIP3    H154731   4.158   0.426   1.695  0.2657  3.6419 -2.7402
11080TIP3    H254732   4.011   0.453   1.671 -1.0834 -0.1666  0.2797
11081TIP3   OH254733   2.936   0.461   1.400 -0.0507  0.5599  0.0023
11081TIP3    H154734   2.962   0.448   1.491 -0.9949 -0.9541  0.0822
11081TIP3    H254735   2.946   0.555   1.386  0.6515  0.7375  1.4945
11082TIP3   OH254736   4.967   3.081   3.357  0.3218  0.4125  0.0185
11082TIP3    H154737   5.037   3.127   3.404  0.6255 -0.4187  0.4010
11082TIP3    H254738   4.994   2.990   3.358 -0.2860  0.2170 -0.7111
11083TIP3   OH254739   5.430   2.046   2.368  0.0620  0.1720 -0.2208
11083TIP3    H154740   5.420   1.958   2.332  1.3861  0.6731 -1.9613
11083TIP3    H254741   5.383   2.103   2.307  0.1117  0.7830  0.2981
11084TIP3   OH254742   1.935   3.333   0.459 -1.2449 -0.6871 -0.3854
11084TIP3    H154743   2.025   3.311   0.484 -0.5353  0.3948 -1.8260
11084TIP3    H254744   1.909   3.402   0.520 -1.5483 -1.7847  0.7674
11085TIP3   OH254745   1.854   3.246   0.829 -0.4853 -0.1508 -0.4366
11085TIP3    H154746   1.935   3.223   0.784  1.2487 -1.1411  2.8361
11085TIP3    H254747   1.786   3.196   0.785  1.0395 -1.0225 -1.9067
11086TIP3   OH254748   0.348   4.160   2.858 -0.2570 -0.1141  0.0954
11086TIP3    H154749   0.256   4.179   2.874 -0.0040  0.0925  1.3921
11086TIP3    H254750   0.348   4.075   2.813 -1.0964  0.1513 -0.4209
11087TIP3   OH254751   0.449   4.462  13.878  0.3027  0.0659  0.5367
11087TIP3    H154752   0.434   4.445  13.971 -1.1755  0.9428  0.4807
11087TIP3    H254753   0.545   4.462  13.869  0.4663 -2.8237  1.4848
11088TIP3   OH254754   0.238   5.554   4.664 -0.1970 -0.0786  0.0353
11088TIP3    H154755   0.324   5.521   4.689  0.0781  0.6970  0.1253
11088TIP3    H254756   0.185   5.544   4.743  1.0079  3.5729  1.5041
11089TIP3   OH254757   1.920   5.874  14.015  0.1301  0.2377  0.0916
11089TIP3    H154758   1.923   5.970  14.010  1.9558  0.1776 -1.3210
11089TIP3    H254759   1.965   5.845  13.935 -0.4031 -1.7988  0.4833
11090TIP3   OH254760   0.559   5.631  12.609 -0.0585 -0.4473  0.3586
11090TIP3    H154761   0.611   5.552  12.593  0.7175 -0.1437  1.3006
11090TIP3    H254762   0.610   5.701  12.569 -1.7150 -0.6177 -2.2905
11091TIP3   OH254763   6.365   0.196   5.574 -0.5958  0.4300  0.0956
11091TIP3    H154764   6.325   0.131   5.631 -0.6410  2.0017  1.9747
11091TIP3    H254765   6.294   0.223   5.515 -1.0172 -0.0452  0.3764
11092TIP3   OH254766   2.911   3.960   0.023  0.1860  0.2716 -0.6543
11092TIP3    H154767   2.962   3.985  -0.054 -1.5935  1.1870 -1.5912
11092TIP3    H254768   2.823   3.945  -0.011 -0.6352  0.6467  1.2096
11093TIP3   OH254769   1.470   4.595   0.857  0.0581  0.0469 -0.6584
11093TIP3    H154770   1.544   4.541   0.830  0.0048 -0.5891  0.3938
11093TIP3    H254771   1.440   4.555   0.939 -2.5002 -0.7356 -1.8503
11094TIP3   OH254772   2.959   1.802   4.326 -0.2009 -0.5795  0.0378
11094TIP3    H154773   2.994   1.892   4.325 -2.0997  0.2086 -1.2005
11094TIP3    H254774   2.979   1.770   4.414 -1.7529  2.0311  1.4933
11095TIP3   OH254775   0.518   4.315  16.977  0.2027 -0.0552  0.1284
11095TIP3    H154776   0.516   4.370  17.055 -0.8969 -0.7421  0.6208
11095TIP3    H254777   0.518   4.376  16.904  0.7264  0.5976  0.6628
11096TIP3   OH254778   0.620   0.132  16.087  0.0890 -0.1511  0.5190
11096TIP3    H154779   0.650   0.222  16.078 -2.1409  0.5454 -0.6491
11096TIP3    H254780   0.677   0.082  16.029  2.7762  0.0335  2.7671
11097TIP3   OH254781   0.186   0.928  13.112  0.7101  0.4800  0.0565
11097TIP3    H154782   0.202   0.931  13.018  0.2908  0.6125 -0.0140
11097TIP3    H254783   0.198   0.836  13.136 -2.8728 -0.3584 -0.8190
11098TIP3   OH254784   4.423   0.107  16.508 -0.5500  0.3898  0.5314
11098TIP3    H154785   4.470   0.128  16.589 -1.1236 -0.2472  1.0494
11098TIP3    H254786   4.482   0.051  16.459 -0.3370  0.4830  0.6800
11099TIP3   OH254787   5.157   0.791   5.475  0.0038 -0.1087  0.4503
11099TIP3    H154788   5.210   0.858   5.518  0.7376 -0.6146  0.3622
11099TIP3    H254789   5.202   0.709   5.495 -0.9431 -0.5930  0.6499
11100TIP3   OH254790   5.102   1.810  11.837  0.0457  0.2747 -0.5113
11100TIP3    H154791   5.132   1.723  11.812 -2.1475  0.1114 -3.0230
11100TIP3    H254792   5.174   1.868  11.814  0.8495 -0.6899 -0.4859
11101TIP3   OH254793   4.009   4.415  13.486  0.1963  0.7369 -0.4023
11101TIP3    H154794   3.969   4.492  13.526 -0.2471  0.2460  0.1236
11101TIP3    H254795   4.103   4.433  13.488  0.2961  0.2952  1.8758
11102TIP3   OH254796   4.112   6.797  14.950 -0.0759 -0.5751 -0.2841
11102TIP3    H154797   4.168   6.844  15.012 -0.5645 -0.6479  0.2173
11102TIP3    H254798   4.088   6.863  14.885 -0.6522 -0.1496  0.3441
11103TIP3   OH254799   5.812   0.316  11.109 -0.7580  0.0059 -0.1687
11103TIP3    H154800   5.732   0.364  11.131 -0.3738 -0.1933  1.8584
11103TIP3    H254801   5.830   0.339  11.017 -1.4620  2.4616  0.2373
11104TIP3   OH254802   3.083   3.412   0.541 -0.4682 -0.1004 -0.1839
11104TIP3    H154803   3.118   3.355   0.473 -0.6255 -0.2365 -0.1513
11104TIP3    H254804   3.036   3.353   0.600  1.1622 -0.2397  1.0496
11105TIP3   OH254805   3.562   3.450   1.545  0.4328  0.5085 -0.3058
11105TIP3    H154806   3.599   3.538   1.543  1.1308  0.2309 -0.0204
11105TIP3    H254807   3.505   3.446   1.468  0.4890  1.1659 -0.3860
11106TIP3   OH254808   1.545   4.208  16.416  0.5047  0.6002  0.4817
11106TIP3    H154809   1.592   4.126  16.424 -0.9682 -0.1438  2.1278
11106TIP3    H254810   1.454   4.186  16.433 -0.0580  2.4269  0.1030
11107TIP3   OH254811   1.895   1.454  14.437 -0.6824  0.6796 -0.0786
11107TIP3    H154812   1.850   1.529  14.398  0.7905  2.3080  1.2082
11107TIP3    H254813   1.825   1.391  14.456 -2.2001  2.3950  0.2954
11108TIP3   OH254814   0.918   5.264   0.201  0.1732  0.5724  0.3743
11108TIP3    H154815   0.997   5.215   0.178  1.0867  1.9315  0.5165
11108TIP3    H254816   0.890   5.226   0.284 -0.0355 -0.7263 -0.2682
11109TIP3   OH254817   2.288   3.427  16.328  0.6879 -0.3704 -0.3649
11109TIP3    H154818   2.353   3.487  16.362  1.6090 -1.1672 -0.6708
11109TIP3    H254819   2.205   3.475  16.334  1.3928  0.9221 -0.6388
11110TIP3   OH254820   2.580   1.739   3.278  0.4123  0.4561  0.2318
11110TIP3    H154821   2.510   1.718   3.340  0.2746  1.2640  0.3660
11110TIP3    H254822   2.570   1.674   3.208  1.5802 -1.4899  1.7898
11111TIP3   OH254823   4.308   1.742   2.227  0.0039  0.1066 -0.0652
11111TIP3    H154824   4.287   1.809   2.161 -0.3195 -0.5407 -0.6386
11111TIP3    H254825   4.274   1.661   2.189 -0.4614 -0.2325  1.0424
11112TIP3   OH254826   1.337   3.349   1.201 -0.3378  0.1891  0.1998
11112TIP3    H154827   1.385   3.270   1.177  1.2565  1.9150 -2.9985
11112TIP3    H254828   1.343   3.353   1.296  0.4664 -2.8950  0.3900
11113TIP3   OH254829   4.143   3.858  12.880 -0.0091  0.0574  0.3357
11113TIP3    H154830   4.124   3.905  12.962 -1.8051  1.6914 -0.9046
11113TIP3    H254831   4.066   3.875  12.825  1.0721 -1.1102 -1.6512
11114TIP3   OH254832   0.855   5.997   1.648  0.0038 -0.3451 -0.3983
11114TIP3    H154833   0.891   5.965   1.565  1.5229  0.8306 -0.2366
11114TIP3    H254834   0.762   6.010   1.631  0.4864  0.9725 -2.3038
11115TIP3   OH254835   4.396   1.507  10.858 -0.4556 -0.6055  0.9224
11115TIP3    H154836   4.341   1.505  10.779 -0.8093 -1.2363  1.1766
11115TIP3    H254837   4.422   1.598  10.867 -0.1219 -0.5837 -0.1247
11116TIP3   OH254838   6.410   6.739   5.018 -0.9134 -0.2676  0.4105
11116TIP3    H154839   6.479   6.766   4.957 -0.8413 -1.7003 -0.1733
11116TIP3    H254840   6.419   6.644   5.024 -2.0759 -0.3419  1.2706
11117TIP3   OH254841   2.355   0.006   0.132  0.4194  0.2461  0.0359
11117TIP3    H154842   2.413  -0.035   0.196 -1.2575  0.5065  1.8109
11117TIP3    H254843   2.346  -0.060   0.064  0.7406 -0.8335  0.9984
11118TIP3   OH254844   5.310   0.593   2.760 -0.0711  0.1033 -0.6577
11118TIP3    H154845   5.363   0.648   2.703 -0.8462 -0.0772 -1.5785
11118TIP3    H254846   5.291   0.515   2.708 -0.2651 -0.3594  0.0800
11119TIP3   OH254847   2.495   1.252   1.347  0.2326 -0.0965  0.5571
11119TIP3    H154848   2.581   1.294   1.358 -0.0830  0.5255  0.7085
11119TIP3    H254849   2.487   1.195   1.423  0.7121 -0.5195  0.2967
11120TIP3   OH254850   0.031   4.421  13.243 -0.1589 -0.4678  0.4170
11120TIP3    H154851   0.087   4.344  13.245  0.0682 -0.2998  0.6788
11120TIP3    H254852   0.076   4.485  13.299 -0.4626 -0.2291  0.3932
11121TIP3   OH254853   0.600   0.177   6.199 -0.2590 -0.1562 -0.5890
11121TIP3    H154854   0.551   0.134   6.269 -1.1893 -1.0945 -1.7567
11121TIP3    H254855   0.607   0.268   6.226 -3.4840  0.2511 -0.7413
11122TIP3   OH254856   6.517   6.477   4.007 -0.6720 -0.5755  0.2911
11122TIP3    H154857   6.606   6.466   3.974 -0.9436  0.3736 -0.8208
11122TIP3    H254858   6.482   6.389   4.013  0.7281 -1.0764  1.9222
11123TIP3   OH254859   4.229   2.479   0.015 -0.5704  0.6688 -0.6137
11123TIP3    H154860   4.241   2.392  -0.023 -3.2743  0.3687 -0.9769
11123TIP3    H254861   4.149   2.472   0.067  0.5316  2.3171  1.4288
11124TIP3   OH254862   5.376   3.999  11.532  0.1353 -0.2411  0.2359
11124TIP3    H154863   5.418   4.085  11.531  0.3682 -0.3378  1.2537
11124TIP3    H254864   5.417   3.952  11.604 -1.1257 -0.6282  0.7361
11125TIP3   OH254865   6.552   3.820  10.617  0.0788 -0.1631  0.0535
11125TIP3    H154866   6.533   3.899  10.567  0.8686 -0.3211 -0.5282
11125TIP3    H254867   6.470   3.771  10.618  0.3878 -0.8723 -2.4178
11126TIP3   OH254868   4.581   1.213  12.003  0.6351 -0.0066 -0.3176
11126TIP3    H154869   4.536   1.238  12.084 -1.1224 -2.5014 -0.4108
11126TIP3    H254870   4.622   1.129  12.023 -0.1094 -0.8426 -2.0677
11127TIP3   OH254871   2.566   1.142   3.898  0.3645  0.1650  0.0173
11127TIP3    H154872   2.527   1.083   3.963 -3.7175  2.1166 -0.3292
11127TIP3    H254873   2.636   1.187   3.946  0.1426 -1.2658  1.8281
11128TIP3   OH254874   6.360   6.771  13.718  0.0977 -0.3918  0.3568
11128TIP3    H154875   6.268   6.759  13.697 -0.1699  1.0836  0.6238
11128TIP3    H254876   6.361   6.825  13.797  1.1780 -1.5927  1.2291
11129TIP3   OH254877   4.150   5.281   1.944  0.8322 -0.1084 -0.2833
11129TIP3    H154878   4.240   5.277   1.912  0.8833 -1.2335 -0.0363
11129TIP3    H254879   4.143   5.207   2.004 -0.5298 -0.5627 -0.9732
11130TIP3   OH254880   6.289   6.524   1.014  0.2071 -0.2910  0.1070
11130TIP3    H154881   6.239   6.601   0.987  0.0907  0.1219  1.4086
11130TIP3    H254882   6.239   6.450   0.982 -1.8758  0.0580  2.2165
11131TIP3   OH254883   4.528   1.701  12.292  0.1898  0.4938 -0.5871
11131TIP3    H154884   4.475   1.666  12.364 -0.3434  0.0207 -1.1967
11131TIP3    H254885   4.494   1.657  12.214  0.4384  1.3592 -1.1968
11132TIP3   OH254886   6.124   3.026   0.931  0.6631  0.2863 -0.0173
11132TIP3    H154887   6.031   3.045   0.918  0.3126 -0.7966  0.8350
11132TIP3    H254888   6.143   2.957   0.868  0.2016 -1.3842  1.5881
11133TIP3   OH254889   1.445   6.196   2.475 -0.4479 -0.1182  0.3248
11133TIP3    H154890   1.467   6.103   2.464 -0.1889 -0.3578  2.5800
11133TIP3    H254891   1.528   6.239   2.491 -0.8691 -0.0464  2.5687
11134TIP3   OH254892   3.360   3.556  13.388 -0.2695  0.4069 -0.3009
11134TIP3    H154893   3.413   3.619  13.436 -0.6897  0.3899  0.1970
11134TIP3    H254894   3.303   3.518  13.455  0.2781 -0.8182 -0.5154
11135TIP3   OH254895   5.127   2.596   4.770  0.4248  0.1164  0.7922
11135TIP3    H154896   5.074   2.564   4.844 -0.3905 -1.1118 -0.2838
11135TIP3    H254897   5.086   2.679   4.746 -1.4745 -1.1007 -0.4113
11136TIP3   OH254898   3.060   0.615  11.447 -0.3091 -0.1336 -0.0810
11136TIP3    H154899   3.032   0.565  11.524  0.2672  0.4689  0.5294
11136TIP3    H254900   2.984   0.667  11.423 -0.5754 -0.5188 -0.0904
11137TIP3   OH254901   2.483   1.887  16.809  1.5263 -0.2878 -0.3044
11137TIP3    H154902   2.475   1.902  16.715  0.8943  0.1864 -0.1811
11137TIP3    H254903   2.503   1.794  16.817 -1.0390 -0.9304 -0.7870
11138TIP3   OH254904   1.858   3.332  13.861  0.2328 -0.4066 -0.5888
11138TIP3    H154905   1.772   3.310  13.897  0.6267 -1.3016 -0.1849
11138TIP3    H254906   1.844   3.418  13.820 -0.3824  0.4141  1.1941
11139TIP3   OH254907   3.304   5.268   5.484  0.0118 -0.9922  0.4923
11139TIP3    H154908   3.244   5.337   5.456 -1.0943 -1.5966  1.2892
11139TIP3    H254909   3.391   5.302   5.466 -0.5732 -0.2749 -1.1416
11140TIP3   OH254910   5.079   5.818   4.520 -0.0443 -0.3694 -1.0575
11140TIP3    H154911   5.059   5.904   4.484  0.3383  0.7515  1.1863
11140TIP3    H254912   5.011   5.803   4.586  2.5125  0.5495  2.0550
11141TIP3   OH254913   1.863   2.060   4.129 -0.3994  0.0871 -0.5331
11141TIP3    H154914   1.863   1.966   4.147 -0.3323  0.3267  0.8783
11141TIP3    H254915   1.805   2.098   4.195  0.4761  1.1467 -0.3241
11142TIP3   OH254916   5.039   1.780   0.012  0.2296 -0.3066  0.3043
11142TIP3    H154917   4.970   1.846   0.007  0.5702  0.1094  0.8466
11142TIP3    H254918   4.993   1.696   0.017 -0.2171 -0.0790  0.0035
11143TIP3   OH254919   3.592   5.144   0.711 -0.0481  0.6614  0.5067
11143TIP3    H154920   3.529   5.166   0.643  1.5835 -1.1674 -1.8073
11143TIP3    H254921   3.667   5.201   0.694  0.5144 -0.0587  0.4714
11144TIP3   OH254922   6.541   1.997   4.895  0.4405 -0.6988  0.5754
11144TIP3    H154923   6.544   1.933   4.966 -0.2364  0.8699  2.0676
11144TIP3    H254924   6.615   2.055   4.910  0.7979 -0.8496 -0.5133
11145TIP3   OH254925   2.457   4.102   4.332  0.5559 -0.7345 -0.1296
11145TIP3    H154926   2.542   4.069   4.303 -0.3377 -2.1654 -1.2578
11145TIP3    H254927   2.396   4.075   4.263 -0.6780  1.0540  0.2099
11146TIP3   OH254928   4.920   6.409   4.257 -0.0336 -0.2530 -0.2473
11146TIP3    H154929   4.994   6.383   4.203 -0.0405 -1.3211  0.2293
11146TIP3    H254930   4.952   6.402   4.347 -0.1678  1.0441 -0.0694
11147TIP3   OH254931   5.546   0.285   3.661 -0.2999 -0.2620 -0.6481
11147TIP3    H154932   5.485   0.273   3.588 -1.7843 -1.2989  0.6987
11147TIP3    H254933   5.521   0.218   3.724  1.3195  0.2381  0.5852
11148TIP3   OH254934   1.621   2.206   0.160  0.7920 -0.1784  0.4322
11148TIP3    H154935   1.585   2.117   0.159  0.2471  0.0065  1.7273
11148TIP3    H254936   1.595   2.243   0.075 -0.2212 -0.7750  0.4645
11149TIP3   OH254937   0.220   3.148  16.876  0.2864 -0.2397 -0.1768
11149TIP3    H154938   0.313   3.133  16.858  0.1358 -1.5648  0.0839
11149TIP3    H254939   0.174   3.082  16.824 -0.5506  0.6802 -0.6403
11150TIP3   OH254940   2.960   3.037  13.834  0.2644  0.2097 -0.2190
11150TIP3    H154941   2.889   2.977  13.856  1.3244 -0.9249  0.2560
11150TIP3    H254942   3.002   3.057  13.917  0.0660  1.4697 -0.4001
11151TIP3   OH254943   4.194   3.745  17.007  0.0497  0.0163  0.0096
11151TIP3    H154944   4.257   3.678  17.034 -0.5784 -1.0312 -1.0675
11151TIP3    H254945   4.122   3.697  16.969 -1.0274  1.2598  0.4083
11152TIP3   OH254946   2.178   4.311  11.926 -0.3117  0.5808 -0.0585
11152TIP3    H154947   2.092   4.311  11.884  0.3098  0.0836 -1.3889
11152TIP3    H254948   2.211   4.400  11.912 -0.2189  0.4954 -0.3985
11153TIP3   OH254949   4.060   6.645  15.955  0.0492 -0.0227 -0.2348
11153TIP3    H154950   4.028   6.622  16.042  1.7980  0.4482  0.5691
11153TIP3    H254951   4.056   6.740  15.953  0.5017 -0.0106 -0.4813
11154TIP3   OH254952   5.508   4.047  13.008 -0.0296  0.4121 -0.1591
11154TIP3    H154953   5.539   3.973  12.957 -0.5643  0.6933 -0.9108
11154TIP3    H254954   5.413   4.039  13.008 -0.0202 -0.0282  1.4902
11155TIP3   OH254955   0.525   1.787  13.318 -0.0896  0.4373  0.1556
11155TIP3    H154956   0.605   1.788  13.369  0.5339 -0.8346 -0.7413
11155TIP3    H254957   0.466   1.730  13.366  0.3879 -0.5114 -0.3628
11156TIP3   OH254958   3.239   2.845   2.013 -0.5667  0.4633  0.3917
11156TIP3    H154959   3.168   2.788   2.042  0.7403 -1.4810 -0.0196
11156TIP3    H254960   3.315   2.816   2.063  0.3928  1.0970 -0.6444
11157TIP3   OH254961   6.463   2.715   5.625  0.1729 -0.1628 -0.2466
11157TIP3    H154962   6.488   2.705   5.717 -1.7694 -0.3356  0.2970
11157TIP3    H254963   6.432   2.629   5.599  0.5883 -0.0833 -1.0425
11158TIP3   OH254964   2.830   1.280   0.560  0.1828 -0.1254 -0.2849
11158TIP3    H154965   2.761   1.279   0.626  1.7493  1.4619  1.4998
11158TIP3    H254966   2.905   1.238   0.603  1.3021  1.1311 -0.9404
11159TIP3   OH254967   5.127   2.578  16.561 -0.0045  0.0388 -0.2783
11159TIP3    H154968   5.140   2.539  16.647  0.6192 -1.7809 -1.1315
11159TIP3    H254969   5.035   2.563  16.542 -0.2934  1.0091  0.3151
11160TIP3   OH254970   5.508   4.643  12.434  0.1771 -0.5819 -0.0635
11160TIP3    H154971   5.550   4.684  12.358  1.5562 -2.1646 -0.2077
11160TIP3    H254972   5.496   4.551  12.408 -2.0777 -0.5220  0.5506
11161TIP3   OH254973   2.584   6.296  11.066  0.3790  0.2060 -0.0822
11161TIP3    H154974   2.629   6.324  10.987  0.9318  2.8947  1.0507
11161TIP3    H254975   2.652   6.254  11.119 -0.1464 -2.2464 -1.2334
11162TIP3   OH254976   2.016   2.394  16.568 -0.2872 -0.7756 -0.0486
11162TIP3    H154977   1.997   2.486  16.584 -0.9278 -0.8312 -0.4562
11162TIP3    H254978   1.956   2.369  16.498  0.1871 -1.3888 -0.2441
11163TIP3   OH254979   0.977   4.479   5.599  0.5414  0.3324 -0.6872
11163TIP3    H154980   1.058   4.458   5.646  0.9533  0.0287 -1.5043
11163TIP3    H254981   0.983   4.427   5.518 -1.2549 -0.9869 -0.0253
11164TIP3   OH254982   3.860   4.462  13.779  0.2831  0.3181  0.3198
11164TIP3    H154983   3.783   4.480  13.725 -1.4466 -0.3900  2.3944
11164TIP3    H254984   3.880   4.546  13.820 -0.6561  0.0844  1.2899
11165TIP3   OH254985   1.903   2.818   6.135  0.1320 -0.0798 -0.1512
11165TIP3    H154986   1.830   2.871   6.168  0.9411  0.8733  0.1553
11165TIP3    H254987   1.943   2.781   6.214  2.3174  2.5188  0.0790
11166TIP3   OH254988   6.666   0.753   5.336  0.0490 -0.0090  0.1608
11166TIP3    H154989   6.591   0.794   5.293  0.6578  1.0162  0.0609
11166TIP3    H254990   6.626   0.691   5.397 -0.8834  0.4744  0.0686
11167TIP3   OH254991   2.240   3.207  12.881  1.0433  0.0870 -0.3456
11167TIP3    H154992   2.252   3.163  12.965  2.1630 -1.1202 -1.1023
11167TIP3    H254993   2.218   3.136  12.820  0.5495  0.8986 -1.1368
11168TIP3   OH254994   5.428   2.571  12.208  0.2519 -0.2691  0.0686
11168TIP3    H154995   5.423   2.634  12.279 -2.4281 -1.1019  0.7234
11168TIP3    H254996   5.521   2.571  12.182  1.2957  0.2776  3.3370
11169TIP3   OH254997   5.617   1.925   4.119 -0.4766 -0.2595 -0.6446
11169TIP3    H154998   5.551   1.934   4.049 -0.6714  0.6854 -0.3442
11169TIP3    H254999   5.671   2.004   4.112 -1.6610  0.8175  1.4695
11170TIP3   OH255000   3.862   3.359  14.240 -0.8839 -0.4776  0.6409
11170TIP3    H155001   3.776   3.319  14.230 -1.8607  1.5875  0.2224
11170TIP3    H255002   3.854   3.417  14.315 -0.1797  0.4694  0.0239
11171TIP3   OH255003   1.516   4.245  15.002  0.3728 -0.4090 -0.0559
11171TIP3    H155004   1.508   4.159  15.041  0.8805 -1.7184 -2.6275
11171TIP3    H255005   1.597   4.242  14.952  0.3133  1.5058 -0.3472
11172TIP3   OH255006   4.043   6.156   0.500  0.2453 -0.3001 -0.0079
11172TIP3    H155007   3.950   6.170   0.519  0.0038 -0.8556 -0.7287
11172TIP3    H255008   4.089   6.190   0.577 -0.6018 -0.9199  0.7872
11173TIP3   OH255009   2.311   0.842   2.342 -0.0502  0.7025  0.1211
11173TIP3    H155010   2.370   0.883   2.279 -0.1448 -0.6074 -0.8519
11173TIP3    H255011   2.227   0.837   2.297  0.3779 -2.1774 -0.5494
11174TIP3   OH255012   6.449   4.613  15.550 -0.6072 -0.4578 -0.4996
11174TIP3    H155013   6.398   4.536  15.575 -1.1440 -0.1741 -0.6979
11174TIP3    H255014   6.407   4.685  15.596  0.7713 -0.4615  0.8374
11175TIP3   OH255015   5.835   0.381  14.372 -0.3819 -0.8931 -0.1494
11175TIP3    H155016   5.777   0.452  14.401  0.9340  0.0164  0.3409
11175TIP3    H255017   5.903   0.377  14.439  0.1441 -1.9143 -0.7283
11176TIP3   OH255018   5.543   4.139   3.174  0.5294 -0.1383  0.6243
11176TIP3    H155019   5.507   4.208   3.117  0.1852  0.5189  1.6164
11176TIP3    H255020   5.507   4.158   3.260  0.1964 -1.7369  0.8712
11177TIP3   OH255021   5.240   2.907  14.611  0.7342  0.4263 -1.0129
11177TIP3    H155022   5.280   2.916  14.524  2.3470  1.1332 -0.2407
11177TIP3    H255023   5.312   2.878  14.667 -0.1684  0.4786  0.1995
11178TIP3   OH255024   4.392   2.675   2.017 -0.2022  0.6963  0.5342
11178TIP3    H155025   4.481   2.708   2.020 -0.1133  0.7657 -1.6040
11178TIP3    H255026   4.338   2.751   1.998 -0.2976  0.1702 -1.5857
11179TIP3   OH255027   0.850   0.791  13.902  0.4215  0.6718  0.0549
11179TIP3    H155028   0.815   0.709  13.937 -0.8478  1.4695  0.7181
11179TIP3    H255029   0.775   0.833  13.860  1.5863  0.4197 -2.4180
11180TIP3   OH255030   0.920   5.285  12.780 -0.0638 -0.1959 -0.1667
11180TIP3    H155031   0.977   5.226  12.729  2.6623  0.9524  1.3282
11180TIP3    H255032   0.901   5.236  12.860  2.5867  0.9609  1.2839
11181TIP3   OH255033   6.589   2.247   3.493 -0.8392 -0.1988 -0.4502
11181TIP3    H155034   6.618   2.156   3.502  0.5863  0.2733  0.0697
11181TIP3    H255035   6.603   2.284   3.580 -2.4955  0.2427 -0.3454
11182TIP3   OH255036   6.061   6.673  13.063  0.7101  0.3570  0.2999
11182TIP3    H155037   5.983   6.621  13.083  0.5499  0.1635 -0.7747
11182TIP3    H255038   6.027   6.753  13.022  1.0660  0.3734  0.0283
11183TIP3   OH255039   6.784   5.274   0.452  0.0368  0.1102  0.0625
11183TIP3    H155040   6.799   5.348   0.511  0.5469  0.3758 -0.3872
11183TIP3    H255041   6.809   5.197   0.503  0.6742  0.3557  0.1309
11184TIP3   OH255042   2.469   6.639   4.892  0.0602  0.1100 -0.2526
11184TIP3    H155043   2.533   6.573   4.920 -0.5440 -0.6510 -0.6111
11184TIP3    H255044   2.410   6.648   4.967  0.0589  0.1393 -0.2572
11185TIP3   OH255045   0.340   0.130   2.912  0.3012 -0.1407  0.0627
11185TIP3    H155046   0.338   0.129   2.816  3.0482  0.3621 -0.0666
11185TIP3    H255047   0.268   0.188   2.936 -0.3583 -0.1594 -1.6901
11186TIP3   OH255048   1.287   4.943  11.978  0.4149  0.4187  0.6141
11186TIP3    H155049   1.196   4.960  12.001  0.3007 -0.1902  0.6250
11186TIP3    H255050   1.302   4.994  11.899  0.0992  0.6031  0.6711
11187TIP3   OH255051   4.863   1.693   1.585  0.0355  0.3107  0.3648
11187TIP3    H155052   4.799   1.731   1.646  1.3837  3.5524  0.0089
11187TIP3    H255053   4.941   1.748   1.596  1.2326 -0.6646 -2.3576
11188TIP3   OH255054   1.653   4.618  15.143 -0.1616  0.0217 -0.8997
11188TIP3    H155055   1.582   4.678  15.163  1.6848  1.6582  1.3935
11188TIP3    H255056   1.637   4.542  15.199 -0.3850  0.1794 -0.7486
11189TIP3   OH255057   2.823   4.262   4.471 -0.6179 -0.4830 -0.3199
11189TIP3    H155058   2.768   4.213   4.409  0.8454 -0.0240 -2.0571
11189TIP3    H255059   2.888   4.198   4.500  0.3581 -0.0244 -1.4098
11190TIP3   OH255060   6.636   0.974   3.239  0.0322 -0.5326  0.1558
11190TIP3    H155061   6.693   0.996   3.166  1.4803 -2.4707  0.6201
11190TIP3    H255062   6.593   1.057   3.262  1.5188  0.6727 -1.1815
11191TIP3   OH255063   5.902   2.095  11.706  0.2776  0.2558  0.0940
11191TIP3    H155064   5.812   2.071  11.726  0.1887  0.0639 -0.5300
11191TIP3    H255065   5.906   2.097  11.611  0.6201  1.4777  0.1280
11192TIP3   OH255066   0.668   4.428   2.708 -0.3379 -0.2492  0.2365
11192TIP3    H155067   0.720   4.507   2.697  0.6309 -0.6074  1.9011
11192TIP3    H255068   0.581   4.452   2.675  0.0887  1.3187  0.1609
11193TIP3   OH255069   1.664   4.296   2.737 -0.7349  0.2553 -0.1394
11193TIP3    H155070   1.662   4.244   2.817 -0.1691  0.1105 -0.2200
11193TIP3    H255071   1.721   4.248   2.678 -0.7543  0.6159 -0.4558
11194TIP3   OH255072   5.805   2.422   2.078 -0.0068 -0.3180  0.3017
11194TIP3    H155073   5.889   2.464   2.060  1.9359 -2.6410  3.0288
11194TIP3    H255074   5.804   2.345   2.022 -0.1657 -0.4587  0.4966
11195TIP3   OH255075   1.069   0.548  15.707  0.1260  0.5261  0.0715
11195TIP3    H155076   1.026   0.535  15.791  1.4973 -0.5986  0.6363
11195TIP3    H255077   1.017   0.616  15.664 -0.8564  0.8189  1.6340
11196TIP3   OH255078   5.228   4.061   4.520  0.3474  0.2184 -0.5077
11196TIP3    H155079   5.164   4.131   4.531 -1.0456 -1.1599  0.5634
11196TIP3    H255080   5.187   4.000   4.459  0.2946 -1.0121  0.7058
11197TIP3   OH255081   6.354   2.488  15.633  0.1675  0.2642  0.1752
11197TIP3    H155082   6.412   2.549  15.679  0.3135 -0.8427  1.5510
11197TIP3    H255083   6.361   2.512  15.541  1.6347  1.1378  0.4791
11198TIP3   OH255084   2.242   0.511  16.728 -0.0850  0.2452 -0.2022
11198TIP3    H155085   2.301   0.581  16.754  1.5147 -0.2887 -2.1139
11198TIP3    H255086   2.168   0.556  16.687  0.3271  0.8654 -0.2784
11199TIP3   OH255087   3.074   0.951  16.707  0.5822  0.2701 -0.2854
11199TIP3    H155088   3.027   0.986  16.782  0.2799  1.0486 -0.8225
11199TIP3    H255089   3.083   1.026  16.647  0.0100 -0.5189 -1.4117
11200TIP3   OH255090   3.371   6.769  12.051  0.5982  0.2482 -0.6596
11200TIP3    H155091   3.370   6.687  12.099 -2.3796  1.2308  1.2665
11200TIP3    H255092   3.373   6.744  11.959  3.5498 -1.7827 -0.1517
11201TIP3   OH255093   1.531   3.200  14.452  0.6245  0.4356  0.5653
11201TIP3    H155094   1.582   3.139  14.399  1.0254 -1.0639  2.5482
11201TIP3    H255095   1.533   3.282  14.403  1.6043 -0.6461 -1.3154
11202TIP3   OH255096   2.483   1.125   0.097  0.5340  0.0081 -0.0613
11202TIP3    H155097   2.462   1.067   0.171  0.0494  0.3953  0.1096
11202TIP3    H255098   2.467   1.213   0.131 -1.3658  0.1375 -1.1166
11203TIP3   OH255099   6.377   3.578  17.017 -0.2107 -0.6371 -0.1601
11203TIP3    H155100   6.322   3.602  17.091  2.0599  0.7213  1.2230
11203TIP3    H255101   6.453   3.536  17.056  0.4789 -1.0545 -1.8344
11204TIP3   OH255102   5.601   0.511   2.315  0.1531 -0.2957 -0.1260
11204TIP3    H155103   5.614   0.545   2.227 -0.1888  3.5515  1.0946
11204TIP3    H255104   5.687   0.519   2.357 -0.1627  0.0036  0.4879
11205TIP3   OH255105   3.946   6.272  10.255 -0.3414 -0.5607 -0.3318
11205TIP3    H155106   3.949   6.269  10.350 -0.8330 -4.4438 -0.2704
11205TIP3    H255107   4.038   6.274  10.228 -0.0950  4.2850 -0.0299
11206TIP3   OH255108   4.027   1.838   6.280 -0.0450 -0.3756 -0.4429
11206TIP3    H155109   4.068   1.843   6.194  1.7462  2.2797  0.4445
11206TIP3    H255110   4.061   1.758   6.318  2.0014  0.2012 -0.9163
11207TIP3   OH255111   2.543   0.137   4.925  0.2459 -0.0349 -0.0223
11207TIP3    H155112   2.638   0.145   4.926  0.3252 -0.9322  1.1169
11207TIP3    H255113   2.524   0.065   4.985 -1.0879 -0.6121 -1.0743
11208TIP3   OH255114   6.193   3.371   6.346 -0.1589 -0.4260 -0.0516
11208TIP3    H155115   6.123   3.436   6.339 -0.7721 -1.2181 -1.5833
11208TIP3    H255116   6.273   3.421   6.330 -0.3916  0.3736  1.1122
11209TIP3   OH255117   1.473   2.756   0.445 -0.2589 -0.0866 -0.8028
11209TIP3    H155118   1.378   2.744   0.445 -0.3473  0.5452 -1.2833
11209TIP3    H255119   1.492   2.796   0.360  0.3127  0.6632 -0.3383
11210TIP3   OH255120   1.577   2.245   2.716 -0.2138 -0.6521  0.1939
11210TIP3    H155121   1.565   2.237   2.811  0.4585 -0.6647  0.2842
11210TIP3    H255122   1.492   2.222   2.679  0.0249 -2.5225  0.7108
11211TIP3   OH255123   2.882   4.338  14.270 -0.2559 -0.3924 -0.7449
11211TIP3    H155124   2.835   4.360  14.190 -0.5095 -0.5209 -0.6349
11211TIP3    H255125   2.829   4.378  14.340 -0.5470 -1.0645 -0.5695
11212TIP3   OH255126   5.118   0.032   3.464 -0.1881 -0.0170 -0.3825
11212TIP3    H155127   5.052  -0.032   3.491  0.8075 -0.1635  1.9410
11212TIP3    H255128   5.201  -0.014   3.472  0.4063  1.0145 -0.4649
11213TIP3   OH255129   5.206   4.891  11.473  0.5765 -0.0810  0.3613
11213TIP3    H155130   5.169   4.966  11.519 -0.2572  1.3625 -2.4351
11213TIP3    H255131   5.268   4.929  11.410  1.0835 -1.8527 -0.2736
11214TIP3   OH255132   0.589   1.668   2.092  0.9468  0.7495  0.6081
11214TIP3    H155133   0.663   1.704   2.044 -0.4295  2.6057 -0.2378
11214TIP3    H255134   0.599   1.703   2.181  2.6167 -1.3924  1.3472
11215TIP3   OH255135   0.031   5.677  11.652 -0.0047 -0.0842  0.1402
11215TIP3    H155136   0.001   5.670  11.561  0.3599  1.5610 -0.1224
11215TIP3    H255137   0.121   5.645  11.650  0.7754  1.9981 -0.5508
11216TIP3   OH255138   5.706   6.046   1.627 -0.6544 -0.2523  0.6222
11216TIP3    H155139   5.713   6.127   1.678  0.4205  1.0990 -1.5018
11216TIP3    H255140   5.762   6.062   1.550 -1.8984 -2.2953 -0.7974
11217TIP3   OH255141   4.123   1.502  11.338  0.8433 -0.0816  0.2056
11217TIP3    H155142   4.140   1.412  11.310 -1.1680  0.6975 -4.3497
11217TIP3    H255143   4.189   1.553  11.292  0.0638  1.0046  0.2707
11218TIP3   OH255144   5.304   0.812   3.580  0.5428  0.3336 -0.6326
11218TIP3    H155145   5.302   0.890   3.524  0.6558 -1.4227 -3.2489
11218TIP3    H255146   5.394   0.808   3.612  0.0979  2.2013  1.0538
11219TIP3   OH255147   4.753   3.334   0.802 -0.0080  0.3632  0.1805
11219TIP3    H155148   4.767   3.349   0.709  0.9462 -1.5234 -0.0238
11219TIP3    H255149   4.658   3.340   0.814 -0.0090  2.4005 -0.5341
11220TIP3   OH255150   6.488   5.030   2.848 -0.0968  0.0187  0.3094
11220TIP3    H155151   6.475   4.985   2.764 -1.1802 -0.5455  0.7663
11220TIP3    H255152   6.583   5.038   2.856  0.0223  0.3585 -1.1154
11221TIP3   OH255153   0.643   3.254  13.516 -0.5983 -0.1827  0.4089
11221TIP3    H155154   0.704   3.216  13.580 -0.9706  0.9687  1.4689
11221TIP3    H255155   0.627   3.182  13.454 -0.9388 -1.6284  2.0964
11222TIP3   OH255156   1.268   2.968  10.663  0.1767 -0.1628  0.0540
11222TIP3    H155157   1.308   2.883  10.645  0.3079 -0.1354  0.2070
11222TIP3    H255158   1.174   2.952  10.660  0.1970 -0.2341 -0.2855
11223TIP3   OH255159   5.964   4.287  12.943  0.1472 -0.0643  0.0513
11223TIP3    H155160   5.975   4.266  12.850  0.9721 -1.6383  0.4571
11223TIP3    H255161   5.883   4.243  12.968  0.4373 -0.4762  0.2837
11224TIP3   OH255162   5.385   5.164  15.946 -0.4002  0.7396 -0.5482
11224TIP3    H155163   5.355   5.115  16.022  1.6853  0.6379  0.2748
11224TIP3    H255164   5.479   5.172  15.958  0.4467 -1.2501 -4.2530
11225TIP3   OH255165   2.888   5.823  15.179  0.3619 -0.3350 -0.3345
11225TIP3    H155166   2.852   5.797  15.095  2.8159  0.7843 -1.8387
11225TIP3    H255167   2.965   5.768  15.191  0.3386 -0.1296  0.9707
11226TIP3   OH255168   1.351   3.508  15.688 -0.0911 -0.4410  0.1180
11226TIP3    H155169   1.366   3.413  15.694  0.5912 -0.3254  0.2314
11226TIP3    H255170   1.256   3.515  15.672 -0.1448 -1.1415  0.0632
11227TIP3   OH255171   1.969   6.203   4.513  0.1857 -0.3916  0.5248
11227TIP3    H155172   1.975   6.297   4.530  0.1722 -0.0240 -1.3397
11227TIP3    H255173   1.944   6.166   4.598  1.0436  1.1650  1.5162
11228TIP3   OH255174   1.260   1.130  16.472  0.5199 -0.6351  0.6399
11228TIP3    H155175   1.207   1.208  16.457  1.6891  0.3903  1.5893
11228TIP3    H255176   1.255   1.080  16.391 -0.1213  0.5188 -0.0417
11229TIP3   OH255177   1.427   4.461  12.039 -0.2503 -0.3440  0.3826
11229TIP3    H155178   1.432   4.420  11.953 -1.1166 -1.2466  0.7423
11229TIP3    H255179   1.334   4.461  12.061 -0.1821  1.0389  0.7878
11230TIP3   OH255180   2.059   0.119  16.910 -0.1291  0.1548  0.5848
11230TIP3    H155181   2.096   0.111  16.998 -2.1010  0.7661  1.5116
11230TIP3    H255182   2.075   0.033  16.870  0.8838 -0.0958  1.4710
11231TIP3   OH255183   6.271   2.288  14.151  0.0175  0.0782 -0.1842
11231TIP3    H155184   6.196   2.260  14.099  0.0045 -0.5863  0.1850
11231TIP3    H255185   6.322   2.344  14.092 -1.7863  2.2192  0.1552
11232TIP3   OH255186   4.062   2.302  13.527  0.4293  0.4923 -0.2268
11232TIP3    H155187   4.148   2.342  13.543  0.4462 -0.1188  1.4083
11232TIP3    H255188   4.078   2.237  13.459  1.4118 -0.0778  0.5309
11233TIP3   OH255189   1.597   2.360  15.516  0.6111  0.2864 -0.3171
11233TIP3    H155190   1.504   2.378  15.527  0.6494 -0.1336  0.7636
11233TIP3    H255191   1.639   2.446  15.521  0.5414  0.2355  2.1469
11234TIP3   OH255192   0.221   0.912   5.477  0.4938  0.5995 -0.5674
11234TIP3    H155193   0.234   0.948   5.389 -0.1266  1.5416 -0.2877
11234TIP3    H255194   0.127   0.902   5.486  0.4698  1.4186  0.3181
11235TIP3   OH255195   1.143   0.426  11.078  0.1481  0.0676 -0.4113
11235TIP3    H155196   1.100   0.340  11.080  1.4917 -0.6385  0.1995
11235TIP3    H255197   1.137   0.454  10.987 -0.3728 -0.6421 -0.6047
11236TIP3   OH255198   0.054   6.614   1.242  0.2806  0.1767 -0.4562
11236TIP3    H155199   0.146   6.589   1.238  0.8476  1.1064  3.2778
11236TIP3    H255200   0.007   6.533   1.261  0.6467  0.1038  0.1372
11237TIP3   OH255201   0.335   3.428  11.939  0.0232 -0.8039  0.1543
11237TIP3    H155202   0.357   3.377  12.017 -0.4015 -1.7207 -0.3023
11237TIP3    H255203   0.418   3.466  11.910 -0.1861  1.6683  2.4717
11238TIP3   OH255204   6.446   3.871  11.668  0.0043  0.4763 -0.6499
11238TIP3    H155205   6.394   3.950  11.682  1.6046  1.3382  0.9584
11238TIP3    H255206   6.504   3.893  11.595 -0.6816  0.1311 -1.3186
11239TIP3   OH255207   5.995   2.381   1.497  0.3062  0.2956  0.1848
11239TIP3    H155208   6.031   2.455   1.547 -1.2279  0.2933  1.3572
11239TIP3    H255209   5.965   2.420   1.415  0.5159  0.7653  0.3282
11240TIP3   OH255210   2.018   6.164   1.201  0.5528 -0.3063  0.4696
11240TIP3    H155211   2.107   6.138   1.175 -0.2490  0.8624 -4.3529
11240TIP3    H255212   2.022   6.259   1.207 -0.5827 -0.0892 -1.3674
11241TIP3   OH255213   1.092   3.227  15.062  0.0673 -0.1009  0.3033
11241TIP3    H155214   1.053   3.200  15.145  0.2360  0.1487  0.4683
11241TIP3    H255215   1.029   3.202  14.995  0.0610 -0.5722  0.4818
11242TIP3   OH255216   3.076   0.393  13.950  0.3082 -0.1086 -0.0840
11242TIP3    H155217   3.154   0.436  13.984 -0.4117  2.1393 -1.0547
11242TIP3    H255218   3.105   0.351  13.869  0.6462  0.2057 -0.1303
11243TIP3   OH255219   0.738   3.293   0.696 -0.3936 -0.1810  0.4870
11243TIP3    H155220   0.653   3.334   0.711  0.0983  1.4065 -0.7357
11243TIP3    H255221   0.802   3.356   0.731  0.3305 -0.5902 -0.0652
11244TIP3   OH255222   3.493   3.140   5.201  0.0754  0.1155 -0.0325
11244TIP3    H155223   3.427   3.134   5.131  0.2887  0.3005 -0.2531
11244TIP3    H255224   3.466   3.217   5.252  0.9944  1.1548 -1.0551
11245TIP3   OH255225   2.598   0.198  17.043 -0.2554 -0.8685 -0.0637
11245TIP3    H155226   2.513   0.199  16.998 -0.1450  0.7787 -0.3048
11245TIP3    H255227   2.631   0.287  17.033  1.4802 -1.4532  0.0989
11246TIP3   OH255228   2.664   3.852  13.956 -0.7741  0.5404  0.3439
11246TIP3    H155229   2.668   3.867  14.051  0.8489  0.6846  0.2720
11246TIP3    H255230   2.735   3.791  13.938 -1.9011 -0.5430 -0.6118
11247TIP3   OH255231   4.235   1.717  12.461  0.3830  0.0035  0.1442
11247TIP3    H155232   4.141   1.723  12.482 -0.3195 -1.1340 -2.3121
11247TIP3    H255233   4.276   1.784  12.516 -1.7695  0.1326  1.7330
11248TIP3   OH255234   2.498   4.939   1.508 -0.3200  0.2583  0.5085
11248TIP3    H155235   2.534   4.857   1.541  0.0536  0.1115 -0.2330
11248TIP3    H255236   2.433   4.966   1.574  1.1234  0.5359  1.8602
11249TIP3   OH255237   2.903   5.183   0.154  0.1752  0.6605  1.0294
11249TIP3    H155238   2.925   5.260   0.100 -0.0063  2.0488  2.8398
11249TIP3    H255239   2.919   5.212   0.244  0.1210 -1.4662  1.7623
11250TIP3   OH255240   4.915   5.160  11.240  0.3887 -0.0576 -0.0540
11250TIP3    H155241   4.899   5.164  11.146 -1.1745 -0.4606  0.1660
11250TIP3    H255242   4.922   5.067  11.260 -0.9026 -0.0695  0.4445
11251TIP3   OH255243   2.206   4.267  11.211 -0.4215  0.2083 -0.3793
11251TIP3    H155244   2.294   4.232  11.203 -0.7387 -0.6014 -0.4271
11251TIP3    H255245   2.189   4.310  11.127 -1.2837 -2.5282 -1.7169
11252TIP3   OH255246   1.937   3.421   3.731 -0.5515 -0.3398  0.2153
11252TIP3    H155247   1.855   3.459   3.699 -0.0292  0.7297  0.1080
11252TIP3    H255248   1.927   3.419   3.826 -0.6786 -0.1462  0.2066
11253TIP3   OH255249   3.097   2.713   1.078  0.3649 -0.2666 -0.1006
11253TIP3    H155250   3.120   2.704   1.171  1.7008  0.8970 -0.2890
11253TIP3    H255251   3.150   2.786   1.047 -1.1162  0.3000 -1.4470
11254TIP3   OH255252   1.208   4.740  14.995  0.0933  0.4951 -0.3285
11254TIP3    H155253   1.260   4.663  14.973  1.6267  0.8937  1.6235
11254TIP3    H255254   1.254   4.813  14.955  1.0677  0.8365  1.3105
11255TIP3   OH255255   4.334   5.801  10.942 -0.6614 -0.5686  0.3693
11255TIP3    H155256   4.373   5.815  10.856 -0.1400 -1.3730  0.4688
11255TIP3    H255257   4.253   5.853  10.940 -0.3453 -0.0878 -0.3735
11256TIP3   OH255258   3.468   3.917  15.212 -0.1914 -0.0827  0.2418
11256TIP3    H155259   3.406   3.874  15.270  1.3447 -1.4579  0.9515
11256TIP3    H255260   3.513   3.846  15.168 -1.4053  0.9150 -2.8512
11257TIP3   OH255261   2.887   1.885   0.310  0.0786  0.0367  0.4735
11257TIP3    H155262   2.822   1.920   0.249  1.5927  1.2822 -0.5025
11257TIP3    H255263   2.871   1.791   0.311 -1.8749  0.3165  0.4704
11258TIP3   OH255264   5.303   4.830  15.303  0.1267  0.2956  0.0201
11258TIP3    H155265   5.366   4.817  15.232 -0.5781  0.7380 -0.7027
11258TIP3    H255266   5.218   4.818  15.262 -0.2734 -0.3928  1.0081
11259TIP3   OH255267   4.633   1.490   3.800 -0.2198  0.3157  0.0957
11259TIP3    H155268   4.719   1.448   3.805 -0.7213 -0.7475  0.0409
11259TIP3    H255269   4.632   1.552   3.873  0.7745  0.6916 -0.2003
11260TIP3   OH255270   4.530   3.609  11.674 -0.3443 -0.2097 -0.2370
11260TIP3    H155271   4.529   3.535  11.735 -1.2036 -0.8446 -0.9938
11260TIP3    H255272   4.522   3.569  11.588 -1.8947  0.8062 -0.6087
11261TIP3   OH255273   2.138   1.059   5.043  0.0676 -0.1461  0.0270
11261TIP3    H155274   2.225   1.101   5.044  0.7593 -1.4379 -1.5800
11261TIP3    H255275   2.102   1.082   4.958 -0.3103 -1.2991 -0.1319
11262TIP3   OH255276   2.520   6.417  14.288  0.3846  0.0014 -0.4915
11262TIP3    H155277   2.535   6.463  14.205 -1.8980  1.0369 -0.4105
11262TIP3    H255278   2.567   6.468  14.353  1.7674 -0.5261 -1.0330
11263TIP3   OH255279   2.613   3.600   1.507  0.1502  0.1708 -0.1963
11263TIP3    H155280   2.706   3.619   1.495  0.0019  0.9652 -0.1678
11263TIP3    H255281   2.602   3.509   1.478  0.5805  0.6681 -2.0715
11264TIP3   OH255282   4.385   1.725   3.227 -0.6240  0.5194  0.1680
11264TIP3    H155283   4.294   1.701   3.244 -0.7618  1.6150  1.0647
11264TIP3    H255284   4.384   1.759   3.138 -0.9672 -0.0525 -0.0528
11265TIP3   OH255285   2.713   5.456  14.184  0.1856 -0.6012  0.4105
11265TIP3    H155286   2.762   5.461  14.266 -1.1814  0.6253  1.1767
11265TIP3    H255287   2.768   5.501  14.120  2.3576 -3.5198  0.0061
11266TIP3   OH255288   1.949   1.376  13.395 -0.1028  0.1407 -0.3179
11266TIP3    H155289   1.932   1.294  13.443  2.5032 -0.0953  0.3671
11266TIP3    H255290   1.905   1.443  13.447 -1.8005 -0.7011 -0.5741
11267TIP3   OH255291   2.085   0.496   1.862 -0.5275  0.1598  0.3704
11267TIP3    H155292   2.117   0.454   1.781 -2.9129 -2.5239  0.6401
11267TIP3    H255293   2.117   0.586   1.856  3.0996 -1.0253 -1.3985
11268TIP3   OH255294   6.510   4.995   4.324 -0.2251 -0.3985  0.1747
11268TIP3    H155295   6.605   4.983   4.313 -0.2788  0.7356 -2.3440
11268TIP3    H255296   6.498   5.090   4.320 -1.3933 -0.4495  1.6734
11269TIP3   OH255297   4.307   0.892  14.090  0.1787  0.2454  0.6413
11269TIP3    H155298   4.239   0.824  14.091 -1.1624  1.5054 -0.5439
11269TIP3    H255299   4.269   0.965  14.139 -0.3308  1.8093 -1.9166
11270TIP3   OH255300   1.914   2.612   5.041 -0.0034 -0.1481  0.7515
11270TIP3    H155301   1.830   2.658   5.049  0.4702  0.5015  2.3554
11270TIP3    H255302   1.911   2.574   4.954 -0.9837  1.8466 -0.1667
11271TIP3   OH255303   2.929   0.197  17.080 -0.1762  0.4853 -0.2693
11271TIP3    H155304   2.842   0.231  17.100 -0.6593 -0.0001 -1.4814
11271TIP3    H255305   2.962   0.253  17.010  0.2778  0.3456 -0.1692
11272TIP3   OH255306   4.903   4.789   0.366 -0.1877  0.1916  0.5762
11272TIP3    H155307   4.885   4.798   0.272  0.2870  0.2210  0.4881
11272TIP3    H255308   4.992   4.823   0.377  0.5162 -1.6017  0.7148
11273TIP3   OH255309   1.442   0.688  13.734 -0.3221 -0.0675 -0.6408
11273TIP3    H155310   1.459   0.595  13.721 -1.3943 -0.2834 -0.6062
11273TIP3    H255311   1.521   0.722  13.776  1.2179 -0.3910 -3.0928
11274TIP3   OH255312   5.563   5.082  11.988 -0.1833 -0.3052  0.0135
11274TIP3    H155313   5.607   5.120  12.064 -1.2436 -0.0424  0.5075
11274TIP3    H255314   5.587   4.990  11.989 -1.9626 -0.8113  1.9866
11275TIP3   OH255315   2.605   5.621  16.064  0.7357  0.3455  0.0908
11275TIP3    H155316   2.695   5.591  16.076  0.3052 -0.6264  1.1161
11275TIP3    H255317   2.554   5.541  16.050  0.0032  0.8695 -0.3601
11276TIP3   OH255318   6.473   2.886  16.164  0.6522 -0.0593  0.0636
11276TIP3    H155319   6.397   2.829  16.177  1.1627 -1.0506 -1.0596
11276TIP3    H255320   6.453   2.965  16.214 -1.5873  0.1282 -0.9748
11277TIP3   OH255321   0.541   6.553  16.592 -0.1215 -0.0383 -0.4007
11277TIP3    H155322   0.486   6.496  16.539  0.5806 -0.6645 -0.4716
11277TIP3    H255323   0.611   6.581  16.533 -0.2381  0.5876 -0.2551
11278TIP3   OH255324   0.188   1.287  13.219 -0.1893  0.5028 -0.1792
11278TIP3    H155325   0.126   1.274  13.147  0.0661 -0.9456 -0.1586
11278TIP3    H255326   0.256   1.222  13.204  2.5298  3.4031 -1.3939
11279TIP3   OH255327   6.593   6.783   3.234  0.2139 -0.0442 -0.1833
11279TIP3    H155328   6.532   6.820   3.298  1.0775 -1.0768  1.3101
11279TIP3    H255329   6.677   6.824   3.255  0.3791  0.1187 -1.1251
11280TIP3   OH255330   0.429   6.340  11.460 -0.2673 -0.1654  0.0236
11280TIP3    H155331   0.365   6.298  11.519  1.0996 -0.6031  1.2446
11280TIP3    H255332   0.376   6.373  11.388 -1.7372 -1.6138  0.3707
11281TIP3   OH255333   3.438   3.402   2.960 -0.2355 -0.1993 -0.2693
11281TIP3    H155334   3.365   3.413   3.020  1.2541 -0.8306  1.7569
11281TIP3    H255335   3.408   3.336   2.898 -0.7833 -1.8001  1.6043
11282TIP3   OH255336   2.475   1.597   2.712 -0.0069  0.1136  0.0856
11282TIP3    H155337   2.417   1.663   2.750 -1.2044  0.9221 -2.9145
11282TIP3    H255338   2.563   1.623   2.741 -0.6198  1.9830  0.3993
11283TIP3   OH255339   1.084   4.711   1.947  0.2314  0.0213 -0.6232
11283TIP3    H155340   1.078   4.785   1.887  0.0006 -1.1659 -2.1328
11283TIP3    H255341   1.174   4.680   1.938  0.3780  0.1996  0.1291
11284TIP3   OH255342   5.251   4.673  10.484  0.3160 -0.3531  0.0150
11284TIP3    H155343   5.236   4.616  10.560  0.6652 -0.5399 -0.0563
11284TIP3    H255344   5.173   4.728  10.480  0.1254 -0.6025  0.2830
11285TIP3   OH255345   6.788   4.040   3.634 -0.2105 -0.0472 -0.0487
11285TIP3    H155346   6.754   3.961   3.676  1.3632 -1.2282 -0.9288
11285TIP3    H255347   6.879   4.020   3.613  0.2080  1.9661 -0.4034
11286TIP3   OH255348   3.557   5.105   2.264  0.5639  0.2299 -0.1050
11286TIP3    H155349   3.474   5.061   2.246  0.2821  0.8852 -0.4103
11286TIP3    H255350   3.586   5.067   2.347  0.8953 -1.3723 -0.9136
11287TIP3   OH255351   3.404   2.335  14.548  0.0440  0.1022 -0.1031
11287TIP3    H155352   3.366   2.338  14.460  1.0125  1.0375 -0.5073
11287TIP3    H255353   3.493   2.302  14.535  0.9776  2.3274  0.2111
11288TIP3   OH255354   1.677   0.411  14.387  0.3084 -0.5626 -0.1405
11288TIP3    H155355   1.587   0.402  14.419 -0.7746  2.0106 -2.1850
11288TIP3    H255356   1.714   0.482  14.439  0.4565 -0.2193 -0.7077
11289TIP3   OH255357   4.752   4.990   4.887 -0.0672  0.1225 -0.0990
11289TIP3    H155358   4.687   4.921   4.874  1.4257 -1.9049  2.3691
11289TIP3    H255359   4.824   4.966   4.829 -0.3028  0.7895 -0.6988
11290TIP3   OH255360   1.670   5.342  10.565 -0.3199  0.2676  0.3468
11290TIP3    H155361   1.642   5.396  10.491  1.4307 -0.7837 -1.1523
11290TIP3    H255362   1.636   5.255  10.546 -0.6010  0.1601  1.2550
11291TIP3   OH255363   5.398   0.006   1.032 -0.3282 -0.0935 -0.3132
11291TIP3    H155364   5.313  -0.020   0.996 -0.5829 -3.1676  2.1690
11291TIP3    H255365   5.459  -0.063   1.004  0.5843  0.2108  0.8333
11292TIP3   OH255366   5.177   5.667  15.271  0.0958  0.9179 -0.4770
11292TIP3    H155367   5.133   5.703  15.194  0.7067  0.3010 -1.1274
11292TIP3    H255368   5.108   5.663  15.338  0.0375  3.4429 -0.2939
11293TIP3   OH255369   6.537   0.619   4.934 -0.4903  0.5556  0.1120
11293TIP3    H155370   6.559   0.574   4.852 -1.2757 -0.0799  0.2414
11293TIP3    H255371   6.456   0.578   4.963  1.2863 -1.3929  2.8106
11294TIP3   OH255372   5.683   3.210   2.945 -0.0420  0.1615 -0.1144
11294TIP3    H155373   5.605   3.155   2.954 -0.0210  0.2844  0.9969
11294TIP3    H255374   5.656   3.280   2.885 -0.2277 -0.7489 -1.1295
11295TIP3   OH255375   4.430   3.100   4.611  0.4802  0.3171 -1.2704
11295TIP3    H155376   4.342   3.134   4.597 -0.0835 -1.3210 -1.8868
11295TIP3    H255377   4.488   3.163   4.567 -0.4703  0.7174 -1.9667
11296TIP3   OH255378   3.655   1.248   3.914 -0.1081 -0.0760  0.1843
11296TIP3    H155379   3.716   1.175   3.903  0.2055  0.0598  0.9630
11296TIP3    H255380   3.678   1.286   3.999 -1.0043  0.2394  0.2911
11297TIP3   OH255381   2.875   4.081  14.659  0.5810  0.2492 -0.5063
11297TIP3    H155382   2.960   4.120  14.678  0.7821 -1.4213  2.6183
11297TIP3    H255383   2.881   4.054  14.567  2.5959  2.0209 -0.9790
11298TIP3   OH255384   3.120   3.348  15.936  0.0723  0.3459  0.0924
11298TIP3    H155385   3.213   3.355  15.953  0.0107  2.2930 -0.1004
11298TIP3    H255386   3.078   3.373  16.018 -0.2805  0.4537 -0.1186
11299TIP3   OH255387   2.357   4.480   1.900 -0.3297 -0.2986 -0.2389
11299TIP3    H155388   2.379   4.506   1.989  1.2375 -2.2982  0.0277
11299TIP3    H255389   2.297   4.549   1.869  1.6809  2.2725  1.1506
11300TIP3   OH255390   1.742   5.132   3.008 -0.5546 -0.3222  0.2969
11300TIP3    H155391   1.648   5.116   2.996 -1.0854  0.7170  2.5149
11300TIP3    H255392   1.766   5.189   2.935 -1.3063 -1.7224 -1.0820
11301TIP3   OH255393   1.797   3.237   5.988  0.2161 -0.1784 -0.5340
11301TIP3    H155394   1.780   3.331   5.980 -0.5062 -0.4023 -1.8107
11301TIP3    H255395   1.715   3.195   5.964 -0.2693 -1.1340  2.4312
11302TIP3   OH255396   4.847   4.143   6.446 -0.4674 -0.3534  0.0847
11302TIP3    H155397   4.939   4.151   6.421 -0.1853 -0.1829  1.1390
11302TIP3    H255398   4.826   4.052   6.426  0.0795 -0.5360  0.3017
11303TIP3   OH255399   2.668   2.448  11.531  0.0047 -0.5030 -0.0278
11303TIP3    H155400   2.580   2.484  11.523 -0.3128 -1.0918  0.6701
11303TIP3    H255401   2.668   2.370  11.475  0.1279 -0.4308 -0.1307
11304TIP3   OH255402   4.966   5.170  16.665 -0.1084  0.4436 -0.1477
11304TIP3    H155403   5.008   5.152  16.749  0.1663 -1.2085 -0.6114
11304TIP3    H255404   4.945   5.084  16.629  2.1577  0.9398 -2.9886
11305TIP3   OH255405   1.718   3.086   4.393  0.1385  0.1066 -0.3085
11305TIP3    H155406   1.722   3.158   4.330 -0.8333  0.0448 -0.4600
11305TIP3    H255407   1.665   3.019   4.349  0.8195 -0.5983 -0.0657
11306TIP3   OH255408   5.619   0.934   4.073  0.2887 -0.2820  0.3772
11306TIP3    H155409   5.586   0.889   4.151 -0.0704 -1.7256 -0.5744
11306TIP3    H255410   5.541   0.965   4.028  0.4986  0.5902  0.5763
11307TIP3   OH255411   0.611   1.956  15.140 -0.5005  0.3251 -0.3926
11307TIP3    H155412   0.701   1.923  15.131 -0.1303  1.6963 -2.6917
11307TIP3    H255413   0.619   2.050  15.124 -2.1102  0.8192  1.4333
11308TIP3   OH255414   6.334   5.253  15.461  0.4265  0.3329 -0.2035
11308TIP3    H155415   6.311   5.335  15.505 -1.0051  0.1941 -0.6617
11308TIP3    H255416   6.292   5.259  15.376  0.8067 -0.6325 -0.4665
11309TIP3   OH255417   2.976   1.965  15.035 -0.0397  0.4757 -0.4408
11309TIP3    H155418   2.970   1.912  15.114  1.4450  1.4108  0.3564
11309TIP3    H255419   3.067   1.953  15.006 -0.8916 -1.0053 -2.8952
11310TIP3   OH255420   6.378   2.404  15.309  0.0402  0.0686  0.3225
11310TIP3    H155421   6.432   2.348  15.365 -0.3757  2.1480  2.9632
11310TIP3    H255422   6.432   2.418  15.231  1.3133 -1.6162  0.8303
11311TIP3   OH255423   1.481   3.958   0.513  0.0721  0.2746  1.0782
11311TIP3    H155424   1.575   3.962   0.499 -0.1628  0.1805 -0.7704
11311TIP3    H255425   1.459   3.866   0.502 -0.3085  0.3728  0.9994
11312TIP3   OH255426   2.987   2.917  16.909 -0.5474  0.1139 -0.0702
11312TIP3    H155427   2.894   2.909  16.931 -0.6076 -0.9874 -0.6649
11312TIP3    H255428   3.031   2.860  16.972 -0.0891  1.7808  1.2023
11313TIP3   OH255429   6.554   5.609  11.803  0.2007  0.2845  0.1920
11313TIP3    H155430   6.575   5.702  11.794  1.2904  0.0786  0.4451
11313TIP3    H255431   6.532   5.580  11.714  0.3142  0.6752  0.0376
11314TIP3   OH255432   5.489   1.486  12.054 -0.2626  0.3504 -0.1551
11314TIP3    H155433   5.436   1.409  12.076  1.3345 -1.2177 -1.4551
11314TIP3    H255434   5.452   1.517  11.971  0.1575 -0.0818 -0.5089
11315TIP3   OH255435   5.639   3.133  11.815 -0.1527  0.3006  0.1490
11315TIP3    H155436   5.598   3.162  11.897 -1.1917 -1.6220  0.3708
11315TIP3    H255437   5.568   3.137  11.750  1.0734  3.5388 -1.2084
11316TIP3   OH255438   2.302   2.992  13.059  0.4398  0.3784  0.1697
11316TIP3    H155439   2.283   3.055  13.129  0.6718  1.8533 -1.0438
11316TIP3    H255440   2.222   2.939  13.053 -0.6069  1.9219 -0.1558
11317TIP3   OH255441   1.860   4.136   2.117  0.2966 -0.4638 -0.0124
11317TIP3    H155442   1.778   4.091   2.137 -0.5965  1.6502  1.4623
11317TIP3    H255443   1.928   4.077   2.151 -0.6918 -1.5108  0.2224
11318TIP3   OH255444   1.191   3.226   4.987  0.1513  0.5454  0.7892
11318TIP3    H155445   1.278   3.187   4.988  0.1755  0.5234 -0.4427
11318TIP3    H255446   1.205   3.317   4.958 -0.3227  0.2261 -0.5303
11319TIP3   OH255447   1.597   3.703  15.315 -0.0349  0.1646 -0.3080
11319TIP3    H155448   1.602   3.650  15.395 -0.3862  0.3481 -0.1615
11319TIP3    H255449   1.532   3.658  15.260  0.2090  0.0364 -0.4956
11320TIP3   OH255450   5.341   2.173  14.049 -0.0023  0.1444 -0.5153
11320TIP3    H155451   5.368   2.103  13.989 -2.2121  0.2510 -1.7411
11320TIP3    H255452   5.268   2.137  14.098  0.0918  0.9484  0.2437
11321TIP3   OH255453   1.438   4.554  11.595  0.7107 -0.3695 -0.0336
11321TIP3    H155454   1.473   4.640  11.571 -0.4631  0.8573  2.3785
11321TIP3    H255455   1.500   4.520  11.659 -0.7466  0.4262  1.8788
11322TIP3   OH255456   2.196   0.341   2.430 -0.0825 -0.2429 -0.2128
11322TIP3    H155457   2.114   0.388   2.414  0.4429  0.8777  0.2436
11322TIP3    H255458   2.180   0.253   2.396 -1.5770 -0.1481  0.1547
11323TIP3   OH255459   2.105   2.914  10.406  0.3794  0.1194 -0.2337
11323TIP3    H155460   2.064   2.829  10.424  1.4193 -0.0085  1.7829
11323TIP3    H255461   2.040   2.978  10.434  0.7795 -0.0726  1.2422
11324TIP3   OH255462   5.457   0.969   4.635  0.7903 -0.3165  0.3638
11324TIP3    H155463   5.495   1.010   4.558 -0.5404 -2.6147 -1.6885
11324TIP3    H255464   5.523   0.979   4.703  3.3489 -0.7047 -1.8857
11325TIP3   OH255465   5.417   2.826  10.647  0.0206 -0.1956  0.0634
11325TIP3    H155466   5.371   2.901  10.610 -2.0240 -0.4020  1.9434
11325TIP3    H255467   5.510   2.848  10.640 -0.2575  0.3888 -3.5955
11326TIP3   OH255468   0.049   2.543   6.426 -0.0138 -0.1140  0.1124
11326TIP3    H155469  -0.033   2.502   6.401  0.5468 -1.4659  0.4351
11326TIP3    H255470   0.072   2.599   6.351 -1.1818  0.2550  0.0057
11327TIP3   OH255471   4.007   3.201  15.174  0.0310  0.2410 -0.3431
11327TIP3    H155472   4.018   3.189  15.080  2.1290 -0.8145 -0.0289
11327TIP3    H255473   3.947   3.130  15.200  1.6961 -1.3142 -0.5182
11328TIP3   OH255474   4.637   5.847  12.193  0.0103  0.1847 -0.1015
11328TIP3    H155475   4.632   5.942  12.186  1.4467  0.3354  0.5549
11328TIP3    H255476   4.546   5.818  12.190 -0.4985  1.6321  0.3479
11329TIP3   OH255477   1.105   3.164   0.733  0.1174 -0.3914 -0.0254
11329TIP3    H155478   1.172   3.110   0.774 -1.2489 -1.1769  1.2911
11329TIP3    H255479   1.063   3.209   0.806  0.1784  1.2531 -0.9627
11330TIP3   OH255480   4.036   2.254  15.317  0.0737  0.4309  0.1312
11330TIP3    H155481   4.125   2.221  15.300  0.4578  1.4104  0.1674
11330TIP3    H255482   4.013   2.216  15.402  1.0996  1.3934  0.8829
11331TIP3   OH255483   6.138   5.197   0.272 -0.1300  0.4870 -0.6313
11331TIP3    H155484   6.189   5.261   0.321  1.3072  1.0961 -2.7950
11331TIP3    H255485   6.095   5.247   0.203  0.9118 -0.7819 -2.2852
11332TIP3   OH255486   3.763   2.015  11.818 -0.2677 -0.2337 -0.1632
11332TIP3    H155487   3.691   2.075  11.837 -0.1980 -0.5070  1.0539
11332TIP3    H255488   3.720   1.937  11.781 -0.4948  0.0179 -0.4312
11333TIP3   OH255489   5.898   3.764  13.094  0.2981 -0.2202 -0.1070
11333TIP3    H155490   5.856   3.789  13.176  0.0283 -0.3778 -0.1976
11333TIP3    H255491   5.896   3.668  13.094 -0.7538 -0.2099 -0.8362
11334TIP3   OH255492   0.678   0.465  10.668  0.5081 -0.7910 -0.1447
11334TIP3    H155493   0.718   0.462  10.755  2.7494 -0.6241 -1.0961
11334TIP3    H255494   0.705   0.383  10.626  3.1907  0.9026 -2.1021
11335TIP3   OH255495   3.550   6.787   4.125 -0.2269 -0.2809 -0.0597
11335TIP3    H155496   3.458   6.767   4.138 -0.4936 -0.1974 -1.6381
11335TIP3    H255497   3.575   6.737   4.047  0.8070  0.4251 -0.1992
11336TIP3   OH255498   4.251   4.374  17.027 -0.0963 -0.6760 -0.1236
11336TIP3    H155499   4.257   4.426  17.107 -0.5561 -0.4759 -0.2156
11336TIP3    H255500   4.169   4.324  17.036  1.1191 -2.6433  0.7119
11337TIP3   OH255501   6.760   4.838  10.673  0.3093  0.1834 -0.8126
11337TIP3    H155502   6.718   4.778  10.612  0.8917 -0.1395 -0.9027
11337TIP3    H255503   6.820   4.783  10.723  0.2381  0.5422 -0.3206
11338TIP3   OH255504   6.429   4.085  11.319 -0.3946 -0.1176  0.3771
11338TIP3    H155505   6.429   4.132  11.235  0.3000  0.1349  0.5095
11338TIP3    H255506   6.426   4.154  11.385  2.3668 -0.1048  0.6169
11339TIP3   OH255507   0.526   4.636  10.127 -0.2987  0.2248 -0.0042
11339TIP3    H155508   0.587   4.583  10.180  1.1174  0.6028 -1.1883
11339TIP3    H255509   0.453   4.577  10.110 -0.0006 -0.4574  0.9428
11340TIP3   OH255510   4.381   6.645  14.699 -0.2417 -0.2365  0.1969
11340TIP3    H155511   4.388   6.688  14.784  1.3660 -0.0235 -0.0104
11340TIP3    H255512   4.336   6.708  14.643  1.5761  0.9878  0.0514
11341TIP3   OH255513   1.747   5.943   5.033 -0.0213 -0.0192 -0.0112
11341TIP3    H155514   1.711   5.855   5.040 -1.2964  0.4492 -0.4251
11341TIP3    H255515   1.818   5.934   4.969  1.1501 -1.0960  1.3630
11342TIP3   OH255516   5.661   3.907  15.538 -0.4786  0.2989 -0.8439
11342TIP3    H155517   5.711   3.988  15.553  2.0566 -1.2137 -0.5924
11342TIP3    H255518   5.677   3.885  15.446 -0.9779 -0.0295 -0.8547
11343TIP3   OH255519   0.316   6.509   1.253  0.4714  0.1363 -0.0848
11343TIP3    H155520   0.410   6.521   1.267  0.6696 -1.3581  0.0442
11343TIP3    H255521   0.300   6.417   1.274 -0.9790  0.2911 -0.3745
11344TIP3   OH255522   2.933   0.188   4.142  0.3883 -0.5606 -0.4685
11344TIP3    H155523   2.878   0.144   4.077  1.7070 -0.9829 -1.3285
11344TIP3    H255524   3.016   0.202   4.098  0.3247  1.9990  0.0917
11345TIP3   OH255525   0.187   0.129  13.327 -0.0956 -0.1881 -0.1463
11345TIP3    H155526   0.093   0.127  13.311 -0.0906 -0.1329 -0.1828
11345TIP3    H255527   0.195   0.134  13.422 -0.1248 -0.7463 -0.1093
11346TIP3   OH255528   6.189   5.636   1.807 -0.6565  0.0106  0.1740
11346TIP3    H155529   6.167   5.590   1.887  0.9897 -0.9871  0.0953
11346TIP3    H255530   6.217   5.723   1.836 -1.3850  0.1325  0.5352
11347TIP3   OH255531   2.655   2.135  16.931 -0.3382 -0.1831  0.2867
11347TIP3    H155532   2.621   2.065  16.987 -2.4520  0.4719 -0.0961
11347TIP3    H255533   2.612   2.214  16.963 -1.5672  0.2307 -2.1763
11348TIP3   OH255534   0.074   2.247  11.159  0.2869 -0.5844  0.5498
11348TIP3    H155535   0.113   2.200  11.086 -0.1689  0.5590 -0.4748
11348TIP3    H255536   0.145   2.255  11.224  1.5212  0.6572 -0.8768
11349TIP3   OH255537   1.839   6.780   5.005  0.0183  0.0495 -0.1215
11349TIP3    H155538   1.843   6.849   5.071  0.7472  0.7103 -0.8385
11349TIP3    H255539   1.756   6.796   4.960 -0.2974 -0.1705  0.3688
11350TIP3   OH255540   0.929   4.723  13.449  0.0605 -0.0050 -0.0775
11350TIP3    H155541   1.005   4.671  13.423  0.2458 -0.4781  1.3493
11350TIP3    H255542   0.960   4.814  13.446  0.6565 -0.1881  0.3597
11351TIP3   OH255543   5.142   3.883  17.102 -0.2325 -0.5339 -0.5906
11351TIP3    H155544   5.138   3.974  17.071 -1.5073 -0.5050 -0.3962
11351TIP3    H255545   5.076   3.837  17.050 -1.2815 -0.8293  0.9195
11352TIP3   OH255546   0.139   6.060   6.022  0.0840  0.1519 -0.1926
11352TIP3    H155547   0.142   6.124   6.093  1.8151 -0.3603  0.2572
11352TIP3    H255548   0.204   6.092   5.959 -1.3510  0.5394 -1.5387
11353TIP3   OH255549   1.366   2.038  14.539  0.3285  0.0638 -0.3104
11353TIP3    H155550   1.393   2.018  14.629  1.0327  0.3171 -0.4587
11353TIP3    H255551   1.284   2.086  14.549  0.2318 -0.1996  0.1830
11354TIP3   OH255552   1.647   2.585   6.458 -0.2189  0.3931 -0.2543
11354TIP3    H155553   1.602   2.500   6.462  1.6404 -0.6720 -0.6507
11354TIP3    H255554   1.727   2.567   6.410 -0.2068  2.6172 -1.1911
11355TIP3   OH255555   2.739   3.538  14.479 -0.2529 -0.6293 -0.4976
11355TIP3    H155556   2.693   3.567  14.400 -2.2352 -1.1236  0.4126
11355TIP3    H255557   2.810   3.601  14.490  0.6318 -1.0301 -3.1054
11356TIP3   OH255558   0.019   3.211  17.065 -0.1815  0.6542 -0.1331
11356TIP3    H155559  -0.036   3.144  17.025 -0.5802  0.1510  1.1956
11356TIP3    H255560   0.098   3.213  17.011 -0.8003  0.1910 -1.0708
11357TIP3   OH255561   0.405   4.833   1.926  0.0650 -0.1907  0.2971
11357TIP3    H155562   0.480   4.884   1.956 -0.3208 -0.0230  1.0107
11357TIP3    H255563   0.329   4.881   1.959 -0.3633 -0.3145 -0.4816
11358TIP3   OH255564   3.560   2.734  10.489  0.0651  0.1228 -0.2676
11358TIP3    H155565   3.528   2.726  10.400 -0.5055  1.4116 -0.2080
11358TIP3    H255566   3.483   2.717  10.544  0.0301  0.8749 -0.0692
11359TIP3   OH255567   1.325   5.424  13.786 -0.0664  0.2716 -0.1861
11359TIP3    H155568   1.360   5.513  13.788  0.9370 -0.1185  0.0626
11359TIP3    H255569   1.330   5.394  13.877 -0.0761 -0.1706 -0.3286
11360TIP3   OH255570   5.516   1.424  16.913 -0.7935 -0.4894 -0.5315
11360TIP3    H155571   5.434   1.444  16.868 -0.1829 -0.7105 -1.7945
11360TIP3    H255572   5.514   1.329  16.926 -0.1835 -0.6846 -1.7419
11361TIP3   OH255573   0.467   5.406   4.128 -0.2506  0.3923  0.0432
11361TIP3    H155574   0.529   5.386   4.058  0.7684 -0.7453  1.2224
11361TIP3    H255575   0.388   5.357   4.106 -0.2432  0.7008 -0.7137
11362TIP3   OH255576   0.965   1.402   3.451 -0.4453  0.3389 -0.0077
11362TIP3    H155577   0.994   1.337   3.515 -1.1903 -2.1136 -1.9832
11362TIP3    H255578   0.914   1.465   3.502  2.2168  0.7887  2.3721
11363TIP3   OH255579   3.161   3.897   3.789  0.5214 -0.2402 -0.2428
11363TIP3    H155580   3.079   3.926   3.831  0.4036 -1.6688  0.5766
11363TIP3    H255581   3.217   3.871   3.861  1.4071 -0.0580 -0.8509
11364TIP3   OH255582   0.799   1.100  13.606 -0.2717  0.4119  0.2739
11364TIP3    H155583   0.815   1.195  13.609 -0.8382  0.4837  1.4090
11364TIP3    H255584   0.793   1.074  13.697  0.2054 -0.7961 -0.0203
11365TIP3   OH255585   3.171   2.801   4.664  0.0582  0.8130  0.1627
11365TIP3    H155586   3.146   2.822   4.574  1.8821 -0.1606 -0.6246
11365TIP3    H255587   3.142   2.711   4.677  1.5078  0.2752 -0.1642
11366TIP3   OH255588   2.535   3.413  15.555  0.5001  0.2184 -0.1027
11366TIP3    H155589   2.508   3.331  15.597  3.5299 -0.3668  0.9431
11366TIP3    H255590   2.565   3.387  15.468 -1.1881  0.7208 -0.8854
11367TIP3   OH255591   0.463   2.877   0.893  0.5202 -0.2679 -0.0646
11367TIP3    H155592   0.555   2.895   0.915  1.5947 -3.4584 -1.3705
11367TIP3    H255593   0.450   2.923   0.809  1.9005 -1.9727 -1.3032
11368TIP3   OH255594   2.115   4.896   3.709  0.0286  0.5764 -0.1925
11368TIP3    H155595   2.095   4.910   3.801  1.5988  0.4413  0.2011
11368TIP3    H255596   2.138   4.983   3.676  1.9768  0.2651  0.2279
11369TIP3   OH255597   4.755   4.892   2.843  0.3355 -0.1242  0.3638
11369TIP3    H155598   4.742   4.953   2.916 -1.1214  2.5257 -1.9252
11369TIP3    H255599   4.667   4.864   2.818  0.8158 -1.1348 -0.2778
11370TIP3   OH255600   5.007   2.141   1.464  0.1625  0.2564 -0.4044
11370TIP3    H155601   4.927   2.089   1.465  0.2691  0.0880 -0.4607
11370TIP3    H255602   5.024   2.157   1.371  0.4386 -0.0946 -0.4192
11371TIP3   OH255603   1.119   0.437   2.903 -0.0509  0.1881  0.4205
11371TIP3    H155604   1.208   0.446   2.936  0.2197  0.1276 -0.2649
11371TIP3    H255605   1.085   0.359   2.946 -0.0563  0.6566  1.2858
11372TIP3   OH255606   0.722   0.103  14.709  0.9771 -0.0404  0.4187
11372TIP3    H155607   0.805   0.148  14.695  1.3677 -0.4570  1.3526
11372TIP3    H255608   0.663   0.143  14.645  1.8909  0.2470 -0.2667
11373TIP3   OH255609   1.576   2.763   6.146 -0.2394  0.9916 -0.5720
11373TIP3    H155610   1.607   2.792   6.060  2.3745  1.1430  0.3188
11373TIP3    H255611   1.588   2.668   6.146 -1.1119  0.8767 -0.6813
11374TIP3   OH255612   6.102   4.332  15.199 -0.2207 -0.0740 -0.1530
11374TIP3    H155613   6.039   4.325  15.127  0.1980 -0.8952 -0.4633
11374TIP3    H255614   6.049   4.339  15.278 -0.6878  0.8511 -0.5340
11375TIP3   OH255615   3.164   5.891  11.852 -0.0548  0.4912  0.1985
11375TIP3    H155616   3.212   5.885  11.935 -0.3988 -1.0524  0.3332
11375TIP3    H255617   3.079   5.850  11.871  0.5795 -1.7540 -1.3826
11376TIP3   OH255618   1.452   4.255   5.627  0.4556 -0.1706 -0.1403
11376TIP3    H155619   1.368   4.301   5.630  1.6813  2.2720 -0.3001
11376TIP3    H255620   1.430   4.163   5.643 -2.3119  0.2454 -1.0247
11377TIP3   OH255621   0.971   6.623  11.787 -0.2210 -0.4687  0.0444
11377TIP3    H155622   0.895   6.628  11.730  0.0972 -0.8348 -0.4190
11377TIP3    H255623   1.032   6.565  11.741  0.4202 -0.0156  0.3101
11378TIP3   OH255624   6.122   5.599  11.576 -0.0564 -0.3990  0.1202
11378TIP3    H155625   6.175   5.632  11.504  1.3213 -1.8302  0.4127
11378TIP3    H255626   6.032   5.602  11.543  0.2367  1.4584 -0.6455
11379TIP3   OH255627   3.288   6.287   0.907 -0.6032 -0.3866 -0.2859
11379TIP3    H155628   3.224   6.358   0.900 -1.2391 -0.9086  0.0828
11379TIP3    H255629   3.238   6.208   0.886 -0.4465 -0.9751  1.3858
11380TIP3   OH255630   0.522   6.181   5.858 -0.4912 -0.0252 -0.4380
11380TIP3    H155631   0.582   6.242   5.815  0.0145 -0.1281  0.1148
11380TIP3    H255632   0.525   6.103   5.803 -1.5692  0.6273 -1.4631
11381TIP3   OH255633   5.622   1.081   2.104  0.5675  0.4069  0.4972
11381TIP3    H155634   5.678   1.036   2.167  0.6647  0.1594  0.2337
11381TIP3    H255635   5.680   1.104   2.032  0.0723 -1.0351 -0.3916
11382TIP3   OH255636   1.225   3.703   0.962 -0.0456  0.4124  0.2731
11382TIP3    H155637   1.152   3.642   0.958  0.4787 -0.3282  1.3379
11382TIP3    H255638   1.185   3.789   0.976 -0.7586  0.2053 -0.4710
11383TIP3   OH255639   1.227   5.341  12.698  0.2802 -0.1411  0.1573
11383TIP3    H155640   1.265   5.270  12.750  0.9119 -0.2187 -0.3968
11383TIP3    H255641   1.294   5.409  12.698 -1.1153  1.3736  2.4440
11384TIP3   OH255642   1.744   2.723  13.480  0.2203 -0.1452 -0.1522
11384TIP3    H155643   1.680   2.789  13.454  1.5867  0.8046 -1.1749
11384TIP3    H255644   1.797   2.708  13.402  0.4316 -1.9214  0.2699
11385TIP3   OH255645   0.477   1.536  14.988 -0.1969 -0.2692  0.1509
11385TIP3    H155646   0.469   1.444  14.962 -0.6217 -0.1648 -0.0995
11385TIP3    H255647   0.497   1.582  14.906 -1.4713  0.0527 -0.0016
11386TIP3   OH255648   5.699   5.163   1.172  0.0817  0.5488 -0.8022
11386TIP3    H155649   5.778   5.124   1.210  0.2372  1.3170 -0.3046
11386TIP3    H255650   5.634   5.159   1.243 -0.6615 -0.9867 -1.5181
11387TIP3   OH255651   3.973   3.134   5.278  0.6403 -0.2414 -0.4167
11387TIP3    H155652   4.034   3.073   5.237  0.2245 -0.6554 -0.4358
11387TIP3    H255653   3.899   3.138   5.218  0.6373  0.2384 -0.3850
11388TIP3   OH255654   6.825   0.685   3.960 -0.3255 -0.2727  0.1384
11388TIP3    H155655   6.813   0.728   3.875  0.1174 -0.1619  0.1298
11388TIP3    H255656   6.759   0.725   4.017 -0.8847 -0.6222 -0.2509
11389TIP3   OH255657   2.383   0.345  12.279 -0.2864 -0.3451  0.5295
11389TIP3    H155658   2.347   0.418  12.228 -1.4800 -1.5224 -0.3956
11389TIP3    H255659   2.316   0.328  12.345 -0.8439 -1.6604 -0.3306
11390TIP3   OH255660   0.543   2.143   0.708  0.2485 -0.2084  0.2889
11390TIP3    H155661   0.489   2.143   0.629 -0.0156  0.9966  0.4433
11390TIP3    H255662   0.543   2.235   0.737  0.5655 -0.5803  1.5326
11391TIP3   OH255663   5.372   1.863  11.723 -0.0566  0.0098 -0.0353
11391TIP3    H155664   5.420   1.798  11.672  1.1768  0.8679  0.0011
11391TIP3    H255665   5.328   1.917  11.657 -0.1681 -0.1742 -0.1118
11392TIP3   OH255666   2.955   1.141  15.203 -0.7131 -0.1791  0.3429
11392TIP3    H155667   2.923   1.074  15.142  2.7510 -2.3332  0.6059
11392TIP3    H255668   2.877   1.191  15.227 -2.7733 -1.3173 -3.2537
11393TIP3   OH255669   3.362   0.060  15.497  0.3384 -0.3025 -0.1715
11393TIP3    H155670   3.346   0.152  15.473 -0.0311 -0.1797  0.5080
11393TIP3    H255671   3.350   0.058  15.592  0.0872 -1.1073 -0.2124
11394TIP3   OH255672   1.830   4.542   4.756 -0.4127 -0.2697 -0.6883
11394TIP3    H155673   1.914   4.496   4.748  0.3957  1.1554 -0.7501
11394TIP3    H255674   1.810   4.540   4.849 -0.9973 -1.7347 -0.8137
11395TIP3   OH255675   6.298   0.627  14.633  0.7160  0.3067  0.0056
11395TIP3    H155676   6.306   0.716  14.600  1.0330 -0.2819 -1.6405
11395TIP3    H255677   6.337   0.573  14.564 -0.0775 -1.1599  0.6557
11396TIP3   OH255678   6.610   5.353   4.523  0.3116 -0.3762 -0.0981
11396TIP3    H155679   6.646   5.431   4.565  0.7373 -0.1501 -0.8770
11396TIP3    H255680   6.644   5.280   4.575  1.7167 -0.1575 -0.6749
11397TIP3   OH255681   0.790   6.601   0.191  0.7451  0.1592  0.0241
11397TIP3    H155682   0.701   6.592   0.226 -0.4825 -1.2208 -3.0840
11397TIP3    H255683   0.845   6.558   0.256 -0.9314  0.3100  1.6430
11398TIP3   OH255684   5.431   1.952   0.023 -0.0948  0.1133 -0.2975
11398TIP3    H155685   5.452   1.862   0.048 -0.3550 -0.4099 -1.8321
11398TIP3    H255686   5.348   1.970   0.067  0.3449 -0.1080  0.6401
11399TIP3   OH255687   2.106   2.696   1.911  0.2266 -0.3535 -0.0727
11399TIP3    H155688   2.184   2.701   1.965 -1.1342 -2.5681  2.3213
11399TIP3    H255689   2.134   2.645   1.834  1.5340  0.4493 -0.1587
11400TIP3   OH255690   6.163   6.652  11.703 -0.1095 -0.1313  0.0388
11400TIP3    H155691   6.086   6.598  11.684  0.0473  0.4900 -2.7874
11400TIP3    H255692   6.227   6.591  11.740 -0.0020 -1.9569 -2.8702
11401TIP3   OH255693   6.840   5.257  11.713  0.2408  0.2841 -0.1413
11401TIP3    H155694   6.846   5.238  11.619 -1.0504 -0.3162 -0.1226
11401TIP3    H255695   6.802   5.178  11.751 -1.3427  1.3275  0.5413
11402TIP3   OH255696   2.526   0.925   0.778  0.2306 -1.1014 -0.2518
11402TIP3    H155697   2.522   1.001   0.719  0.9140 -1.0472 -0.2335
11402TIP3    H255698   2.550   0.963   0.863  0.4759 -1.3230 -0.2218
11403TIP3   OH255699   0.130   6.796   2.870  0.0786 -0.4983  0.1032
11403TIP3    H155700   0.178   6.755   2.942  0.6263 -0.2575 -0.1202
11403TIP3    H255701   0.121   6.888   2.895 -0.5891 -0.6079  0.3070
11404TIP3   OH255702   2.305   5.397  12.330  0.3745  0.2868 -0.0215
11404TIP3    H155703   2.327   5.309  12.300 -1.7038 -0.1389 -0.4494
11404TIP3    H255704   2.308   5.451  12.251 -0.1689  0.2105 -0.0958
11405TIP3   OH255705   6.652   1.610   2.513 -0.7103  0.4302 -0.0318
11405TIP3    H155706   6.716   1.644   2.450  1.6364 -0.7588  1.5841
11405TIP3    H255707   6.582   1.575   2.458  0.9567 -0.0244 -1.9959
11406TIP3   OH255708   2.538   4.071  15.479  0.1076 -0.4310  0.2617
11406TIP3    H155709   2.545   3.988  15.431  0.0654 -0.8855  1.0271
11406TIP3    H255710   2.615   4.072  15.536 -0.8459 -0.8569  1.6278
11407TIP3   OH255711   5.385   5.278  14.344 -0.2819  0.2250  0.3513
11407TIP3    H155712   5.316   5.265  14.279  0.1851  0.7241 -0.2440
11407TIP3    H255713   5.448   5.209  14.327 -0.7169 -0.3579  1.0274
11408TIP3   OH255714   1.856   5.126   0.248 -0.1954 -0.1907 -0.1600
11408TIP3    H155715   1.905   5.198   0.208 -1.2773  0.7253  0.1150
11408TIP3    H255716   1.888   5.123   0.338 -1.5588  1.3493  0.4470
11409TIP3   OH255717   2.914   2.759  11.382  0.1682 -0.3070 -0.1397
11409TIP3    H155718   2.988   2.707  11.351 -0.8573 -1.2785 -1.0803
11409TIP3    H255719   2.887   2.717  11.463 -0.7825 -1.4487 -0.9973
11410TIP3   OH255720   2.300   4.213   0.965  0.3547 -0.6106  0.4616
11410TIP3    H155721   2.305   4.205   0.869 -2.2829  0.3177  0.1519
11410TIP3    H255722   2.352   4.290   0.986 -1.5443  1.0724 -0.6788
11411TIP3   OH255723   3.332   6.287  13.227  0.1884  0.0679  0.5152
11411TIP3    H155724   3.242   6.301  13.198 -0.0892 -1.1205  0.7494
11411TIP3    H255725   3.325   6.224  13.299  1.3726 -1.9041 -0.9890
11412TIP3   OH255726   0.945   4.520   4.257 -0.2702 -0.1489  0.4411
11412TIP3    H155727   1.000   4.546   4.183 -0.5396  0.1396  0.3435
11412TIP3    H255728   0.998   4.541   4.334  0.7260 -1.9991  0.3239
11413TIP3   OH255729   4.135   1.400   0.679  0.3539  0.0218  0.2865
11413TIP3    H155730   4.116   1.425   0.588  2.6698 -1.7431 -0.8066
11413TIP3    H255731   4.084   1.320   0.693  0.3822  0.0150  0.3492
11414TIP3   OH255732   2.973   2.232   1.854 -0.6851 -0.4936  0.2414
11414TIP3    H155733   2.909   2.165   1.878  0.1319 -1.7841 -1.0522
11414TIP3    H255734   3.023   2.194   1.782  0.1591  1.3137 -0.1963
11415TIP3   OH255735   3.517   6.483   0.278  0.0855 -0.1105 -0.5991
11415TIP3    H155736   3.471   6.422   0.335 -0.8034  0.0837 -1.0938
11415TIP3    H255737   3.452   6.509   0.213  0.0548  2.3007  0.2868
11416TIP3   OH255738   4.167   5.271   2.759  0.1520 -0.2135 -0.2477
11416TIP3    H155739   4.093   5.218   2.789 -1.0162  1.2111 -0.5273
11416TIP3    H255740   4.235   5.256   2.825 -0.4852 -1.2845  0.2006
11417TIP3   OH255741   0.874   4.305  16.499 -0.0752  0.3402 -0.1301
11417TIP3    H155742   0.857   4.252  16.578 -0.7631 -0.3770 -0.7420
11417TIP3    H255743   0.851   4.394  16.525  0.2845  0.2138  0.6634
11418TIP3   OH255744   3.716   3.394  11.586 -0.1162  0.3275 -0.0417
11418TIP3    H155745   3.685   3.447  11.659  0.1356 -1.1682  1.1980
11418TIP3    H255746   3.666   3.312  11.593 -0.5124  0.3618 -1.9032
11419TIP3   OH255747   0.824   3.967   2.327 -0.5642 -0.7096 -0.6148
11419TIP3    H155748   0.823   4.052   2.371  0.0321 -0.6532 -0.6955
11419TIP3    H255749   0.823   3.903   2.397 -1.6611 -0.6507 -0.5630
11420TIP3   OH255750   4.271   2.681   1.686 -0.5506 -0.2648 -0.6328
11420TIP3    H155751   4.192   2.731   1.668 -0.2000 -0.0839 -1.7460
11420TIP3    H255752   4.343   2.738   1.660 -0.0285 -0.3518  0.5408
11421TIP3   OH255753   2.404   1.164   3.302  0.0499  0.6550 -0.0197
11421TIP3    H155754   2.465   1.164   3.376  1.2531 -1.6536 -0.9106
11421TIP3    H255755   2.409   1.075   3.267 -3.6355  0.4142 -0.3382
11422TIP3   OH255756   3.729   6.625  12.215  0.2079 -0.0563 -0.3168
11422TIP3    H155757   3.689   6.554  12.265  0.1877  0.4338  0.3754
11422TIP3    H255758   3.739   6.590  12.126  4.0046 -2.5160  0.8260
11423TIP3   OH255759   1.763   0.739  14.868  0.1086 -0.1462  0.4884
11423TIP3    H155760   1.697   0.767  14.805  0.3162  0.5063  0.5458
11423TIP3    H255761   1.841   0.723  14.816  0.9489  2.5675  0.7678
11424TIP3   OH255762   6.803   5.309  16.882  0.5851 -0.4566  0.4544
11424TIP3    H155763   6.810   5.376  16.815  2.1852 -0.5723  0.4596
11424TIP3    H255764   6.741   5.345  16.945  0.2857  0.3584 -0.2855
11425TIP3   OH255765   2.426   0.088   1.241 -0.0783 -0.2953 -0.1356
11425TIP3    H155766   2.478   0.061   1.316  0.4450 -0.4903 -0.5571
11425TIP3    H255767   2.453   0.178   1.224  1.1458 -0.8132 -1.1709
11426TIP3   OH255768   4.986   0.294  14.596 -0.0937  0.2465 -0.2468
11426TIP3    H155769   5.049   0.366  14.591 -1.1410  1.1834 -0.3806
11426TIP3    H255770   4.945   0.304  14.682 -0.3726 -0.0675 -0.3396
11427TIP3   OH255771   3.120   1.434   3.223 -0.1084  0.0542 -0.7543
11427TIP3    H155772   3.198   1.410   3.273 -0.5794 -1.1453 -0.5527
11427TIP3    H255773   3.152   1.488   3.152  1.0825 -1.3798 -1.3617
11428TIP3   OH255774   4.753   2.625   3.838 -0.2260 -0.3640 -0.4532
11428TIP3    H155775   4.764   2.540   3.882 -1.5709  0.0145  0.7264
11428TIP3    H255776   4.732   2.603   3.748 -0.1721 -1.2769 -0.2548
11429TIP3   OH255777   3.256   5.927   0.191  0.3672  0.3133  0.5899
11429TIP3    H155778   3.301   5.893   0.114  0.0032 -0.1256  0.5749
11429TIP3    H255779   3.214   6.007   0.161 -1.0531 -0.6528 -0.0561
11430TIP3   OH255780   1.434   0.114   3.294  0.0982 -0.1085 -0.6460
11430TIP3    H155781   1.435   0.207   3.315  2.0186 -0.3159  0.4971
11430TIP3    H255782   1.427   0.070   3.379  1.7570 -0.9829 -0.9138
11431TIP3   OH255783   6.309   6.431   3.412  0.0441  0.7273  0.0669
11431TIP3    H155784   6.277   6.490   3.480 -0.4545  0.2804  0.2273
11431TIP3    H255785   6.322   6.487   3.336  0.4736  1.2082  0.4824
11432TIP3   OH255786   6.014   4.990  12.853 -0.0300 -0.2649 -0.5535
11432TIP3    H155787   6.072   5.012  12.780 -1.2766  0.5895 -1.3336
11432TIP3    H255788   6.005   4.895  12.848  0.3723 -0.2797 -1.1548
11433TIP3   OH255789   5.891   6.575   1.678  0.7006  0.2178 -0.4169
11433TIP3    H155790   5.885   6.487   1.717 -1.4946  0.6341  0.3414
11433TIP3    H255791   5.953   6.622   1.733 -1.4937  0.4446  2.0146
11434TIP3   OH255792   4.171   3.676  11.513  0.4291  0.2925  0.8838
11434TIP3    H155793   4.106   3.624  11.560 -0.4625  2.2489  1.9428
11434TIP3    H255794   4.227   3.712  11.581  0.3704  1.5383  0.3038
11435TIP3   OH255795   3.019   0.483  12.005  0.2398 -0.0110  0.3177
11435TIP3    H155796   3.069   0.440  12.075 -0.2373  0.3153  0.8680
11435TIP3    H255797   2.938   0.511  12.048 -0.8796 -1.4180 -0.7847
11436TIP3   OH255798   4.926   2.280   3.765 -0.3402 -0.3140  0.9179
11436TIP3    H155799   5.016   2.250   3.779  0.5915  0.5027 -2.5798
11436TIP3    H255800   4.879   2.200   3.740  0.4942 -0.1361 -1.4501
11437TIP3   OH255801   1.840   4.674   3.744 -0.2852  0.1981 -0.1840
11437TIP3    H155802   1.930   4.653   3.718  0.0580  2.9374 -1.4831
11437TIP3    H255803   1.849   4.726   3.823 -0.9427 -1.7363  1.2293
11438TIP3   OH255804   0.598   5.675   5.564  0.2475 -0.6067 -0.5708
11438TIP3    H155805   0.640   5.752   5.527 -0.4543 -0.7718 -1.7794
11438TIP3    H255806   0.545   5.640   5.492 -2.5079 -0.0209  1.0131
11439TIP3   OH255807   4.117   4.035   2.037  0.5907  0.2492 -0.2811
11439TIP3    H155808   4.110   3.986   2.118  1.1990 -0.5364 -0.6871
11439TIP3    H255809   4.187   3.992   1.989  2.2460  2.4743  0.0003
11440TIP3   OH255810   1.230   2.691   3.719 -0.3060 -0.1015  0.0447
11440TIP3    H155811   1.165   2.627   3.692  1.5189 -1.9927 -0.1902
11440TIP3    H255812   1.249   2.668   3.810  1.1164 -0.6428 -0.3565
11441TIP3   OH255813   6.718   1.959  11.719  0.4496 -0.0980 -0.2223
11441TIP3    H155814   6.749   1.965  11.629  1.5676 -1.2172  0.0562
11441TIP3    H255815   6.676   1.873  11.725 -3.4754  1.5983 -0.7544
11442TIP3   OH255816   4.439   3.144   6.326  0.9142 -0.2399 -0.4416
11442TIP3    H155817   4.476   3.107   6.407  1.6107 -1.8675 -1.4541
11442TIP3    H255818   4.374   3.080   6.299 -0.3566  1.0128 -0.4322
11443TIP3   OH255819   0.149   5.698  15.728 -0.2406  0.1320 -0.2131
11443TIP3    H155820   0.229   5.646  15.738  0.6938  1.6588  0.7781
11443TIP3    H255821   0.129   5.728  15.817 -0.6665  1.5485 -0.7584
11444TIP3   OH255822   4.956   0.889  10.667  0.3782  0.0659  0.2000
11444TIP3    H155823   4.956   0.821  10.735  0.1644 -0.2438 -0.1083
11444TIP3    H255824   4.942   0.841  10.585 -0.4488  0.5381  0.0499
11445TIP3   OH255825   0.176   3.004   3.731  0.1091 -0.3686  0.4541
11445TIP3    H155826   0.259   3.041   3.700  0.7262 -1.1542  1.0916
11445TIP3    H255827   0.115   3.078   3.731  0.9991  0.3966  0.6327
11446TIP3   OH255828   6.153   2.139   4.260 -0.2811 -0.1540 -0.1815
11446TIP3    H155829   6.226   2.138   4.322  0.1994  0.8312 -0.7048
11446TIP3    H255830   6.095   2.207   4.293 -0.2877  0.0046 -0.5199
11447TIP3   OH255831   3.829   0.171   3.851 -0.5868  1.0912 -0.5655
11447TIP3    H155832   3.850   0.233   3.781 -0.6340  0.9057 -0.7416
11447TIP3    H255833   3.748   0.205   3.889 -0.4839  1.2727 -0.5044
11448TIP3   OH255834   1.883   1.851  12.430 -0.3722  0.1515 -0.5747
11448TIP3    H155835   1.810   1.789  12.433 -0.6332  0.4573  2.5404
11448TIP3    H255836   1.961   1.797  12.437 -0.6240  0.0327  3.1358
11449TIP3   OH255837   6.415   3.503   3.368  0.6203 -0.5325  0.2275
11449TIP3    H155838   6.500   3.545   3.359  0.8089  0.1912  3.8629
11449TIP3    H255839   6.359   3.547   3.305  2.6081 -0.1938 -1.3885
11450TIP3   OH255840   1.667   0.020   3.780  0.6274  0.5693  0.5921
11450TIP3    H155841   1.645  -0.063   3.737  1.1321  1.5440 -1.7127
11450TIP3    H255842   1.608   0.025   3.855 -4.5110  1.2188 -2.9364
11451TIP3   OH255843   5.184   2.167   3.999 -0.1789 -0.5642 -0.1053
11451TIP3    H155844   5.111   2.129   3.951 -1.1801  1.3962 -0.2332
11451TIP3    H255845   5.168   2.144   4.090  0.2521 -1.9727 -0.3588
11452TIP3   OH255846   2.866   6.015   5.487  0.0377 -0.6143  0.0301
11452TIP3    H155847   2.915   5.982   5.563  0.4661 -1.0905 -0.4500
11452TIP3    H255848   2.827   6.097   5.518 -2.2171 -2.1879  1.7275
11453TIP3   OH255849   6.153   3.160  16.090 -0.7423 -0.4861 -0.0370
11453TIP3    H155850   6.107   3.096  16.035 -0.4373 -0.7847  0.0469
11453TIP3    H255851   6.185   3.226  16.029  0.6187 -1.4311 -0.3917
11454TIP3   OH255852   4.546   2.950   0.411  0.0426  0.1115  0.1309
11454TIP3    H155853   4.612   3.017   0.395  0.2661 -0.1550 -0.0937
11454TIP3    H255854   4.584   2.894   0.479  2.0873 -2.6313 -2.9087
11455TIP3   OH255855   0.741   3.110   3.036  0.4004 -0.1472  0.0043
11455TIP3    H155856   0.778   3.073   2.955  0.4439  0.9438 -0.4846
11455TIP3    H255857   0.817   3.146   3.083  0.0702  1.6607 -0.7718
11456TIP3   OH255858   5.041   6.261   1.889 -0.5990 -0.3563 -0.1449
11456TIP3    H155859   4.996   6.341   1.917  1.3242  0.8755 -0.3642
11456TIP3    H255860   5.049   6.270   1.794 -0.5996 -0.9348 -0.2010
11457TIP3   OH255861   2.977   5.683  16.820 -0.3930  0.1083 -0.1032
11457TIP3    H155862   2.979   5.695  16.915 -0.9040  1.3053 -0.2220
11457TIP3    H255863   2.886   5.659  16.801 -0.0995 -0.9452 -0.2146
11458TIP3   OH255864   3.406   4.854   5.022 -0.2213 -0.3017  0.5123
11458TIP3    H155865   3.481   4.903   4.989 -0.7839 -0.1383 -0.5539
11458TIP3    H255866   3.330   4.903   4.991 -0.8263 -2.0739 -0.9993
11459TIP3   OH255867   0.071   5.892  12.424  0.2079 -0.1990  0.3843
11459TIP3    H155868   0.148   5.835  12.415  0.3635  0.0477  0.1425
11459TIP3    H255869  -0.004   5.832  12.413  0.3608 -0.0241 -2.2902
11460TIP3   OH255870   0.075   6.380  12.485 -0.1495 -0.3428 -0.5029
11460TIP3    H155871   0.024   6.320  12.431  0.2818  0.0393 -1.3478
11460TIP3    H255872   0.010   6.443  12.518 -0.4896 -0.8577 -0.1660
11461TIP3   OH255873   0.945   0.609  16.680 -0.5744 -0.1814  0.0792
11461TIP3    H155874   1.026   0.624  16.632 -0.3984 -0.1214  0.3883
11461TIP3    H255875   0.891   0.556  16.621  0.1153 -1.1405  0.2862
11462TIP3   OH255876   0.053   4.904  12.037 -0.3093  0.2295  0.2447
11462TIP3    H155877   0.133   4.911  12.088 -0.5313  0.6813  0.5460
11462TIP3    H255878   0.074   4.846  11.964  0.9784  2.1135 -0.9872
11463TIP3   OH255879   1.091   4.390   5.859  0.1152 -0.5289  0.3555
11463TIP3    H155880   1.162   4.326   5.854 -0.3304 -0.9620 -0.5935
11463TIP3    H255881   1.136   4.474   5.867  0.7084 -0.9271  1.3020
11464TIP3   OH255882   0.097   4.712  11.851 -0.3753 -0.0018  0.9731
11464TIP3    H155883   0.009   4.692  11.819 -0.4244  0.0633  1.0673
11464TIP3    H255884   0.121   4.636  11.904 -0.0912 -0.3414  0.3694
11465TIP3   OH255885   3.609   0.038  12.282  0.1944  0.2217 -0.7003
11465TIP3    H155886   3.662   0.061  12.358  0.0700  1.3634 -0.9441
11465TIP3    H255887   3.647  -0.044  12.250  2.1248  1.2110 -1.1268
11466TIP3   OH255888   1.974   6.470  13.621 -0.1600  0.0042 -0.1285
11466TIP3    H155889   1.942   6.484  13.710 -1.4451 -3.0090  0.0145
11466TIP3    H255890   1.899   6.433  13.574  1.2793 -1.0822 -1.6987
11467TIP3   OH255891   4.503   4.886  15.131  0.0492  0.3233  0.2128
11467TIP3    H155892   4.514   4.853  15.042  0.9051  0.5417  0.2274
11467TIP3    H255893   4.506   4.807  15.186  0.4181  0.2661  0.1145
11468TIP3   OH255894   1.556   0.808   6.196  0.3613  0.4983  0.0631
11468TIP3    H155895   1.540   0.902   6.200 -0.0084  0.5087 -1.1175
11468TIP3    H255896   1.468   0.769   6.195  0.5045  0.1743 -0.0096
11469TIP3   OH255897   4.995   1.649  13.736 -0.0785 -0.6336  0.3445
11469TIP3    H155898   5.082   1.657  13.698  0.0172 -1.2289  0.4195
11469TIP3    H255899   5.010   1.626  13.827 -0.3108 -0.7633  0.3526
11470TIP3   OH255900   6.466   0.591  15.118  0.3719 -0.1116 -0.2461
11470TIP3    H155901   6.463   0.582  15.023  1.9122  1.3246 -0.4787
11470TIP3    H255902   6.460   0.502  15.151 -1.3240 -0.5638 -1.6212
11471TIP3   OH255903   0.114   2.397  12.313 -0.0069 -0.5430  0.4567
11471TIP3    H155904   0.192   2.368  12.360  1.3398  0.9445 -0.7216
11471TIP3    H255905   0.133   2.377  12.221 -0.5681  0.7321  0.0417
11472TIP3   OH255906   3.858   0.568  14.798 -0.3932  0.5085  0.0801
11472TIP3    H155907   3.810   0.621  14.734 -0.0145 -0.5451 -1.1296
11472TIP3    H255908   3.905   0.503  14.745 -0.8633 -1.0606  1.4839
11473TIP3   OH255909   3.908   5.138   2.363  0.1574 -0.1531 -0.1751
11473TIP3    H155910   3.868   5.139   2.276  0.5533  2.7078 -0.4093
11473TIP3    H255911   3.842   5.095   2.419 -0.6478 -0.8696 -1.6153
11474TIP3   OH255912   2.795   0.225  11.069 -0.2776  0.1281  0.2652
11474TIP3    H155913   2.865   0.278  11.107 -1.4532  0.4415  2.0992
11474TIP3    H255914   2.730   0.216  11.139 -0.5886 -2.9290 -0.2504
11475TIP3   OH255915   0.028   0.210   2.341 -0.2712 -0.2114 -0.8175
11475TIP3    H155916  -0.030   0.190   2.268 -1.8923  0.0802  0.3456
11475TIP3    H255917  -0.022   0.269   2.397  0.6953 -0.8655  0.8274
11476TIP3   OH255918   4.932   0.744   6.315 -0.7388 -0.0168  0.2362
11476TIP3    H155919   4.982   0.734   6.235  0.0878  1.9137  0.4635
11476TIP3    H255920   4.844   0.769   6.286 -0.3487  1.0346 -0.1032
11477TIP3   OH255921   4.779   1.684  10.885 -0.8067  0.7059  0.0143
11477TIP3    H155922   4.811   1.603  10.923  0.3136  0.9084 -0.4602
11477TIP3    H255923   4.853   1.744  10.888 -1.3829  1.4671 -0.3519
11478TIP3   OH255924   0.398   3.875   0.754 -0.5324 -0.3959  0.5122
11478TIP3    H155925   0.365   3.945   0.698  1.1648  0.7131  0.8298
11478TIP3    H255926   0.484   3.905   0.782 -0.8560 -1.3915  2.8415
11479TIP3   OH255927   6.481   4.726   3.022  0.2365 -0.0532  0.2075
11479TIP3    H155928   6.469   4.687   3.109  2.1583  0.3209  0.6939
11479TIP3    H255929   6.568   4.767   3.026  0.1074  0.5055 -1.6982
11480TIP3   OH255930   1.520   5.910   1.294 -0.5197 -0.0140  0.1110
11480TIP3    H155931   1.543   6.000   1.317  1.3553 -0.4278  0.0350
11480TIP3    H255932   1.574   5.890   1.218 -1.2592 -1.0581 -0.1584
11481TIP3   OH255933   2.412   2.731  11.217  0.1072  0.1276 -0.8752
11481TIP3    H155934   2.403   2.666  11.286 -0.2482 -0.7550 -1.7270
11481TIP3    H255935   2.505   2.726  11.192  0.6669  1.7008  0.6982
11482TIP3   OH255936   5.757   1.866  16.795 -0.2009  0.0812  0.3373
11482TIP3    H155937   5.725   1.911  16.716 -0.1562 -0.3665  0.0603
11482TIP3    H255938   5.731   1.923  16.867 -2.9398 -0.9452  0.2741
11483TIP3   OH255939   3.449   6.184   6.107  0.2189  0.0177 -0.1575
11483TIP3    H155940   3.488   6.101   6.081  0.0373 -0.0295 -0.2813
11483TIP3    H255941   3.468   6.244   6.035 -0.9384 -0.3114 -0.7656
11484TIP3   OH255942   3.386   5.066   3.045 -0.4040  0.1602 -0.5263
11484TIP3    H155943   3.464   5.039   2.996  0.2266  1.5793 -0.3496
11484TIP3    H255944   3.334   5.116   2.983 -0.0023  1.2524 -0.0087
11485TIP3   OH255945   3.034   1.385  14.895  0.5080  0.0990  0.5252
11485TIP3    H155946   3.043   1.351  14.806 -0.3260  2.3468 -0.5112
11485TIP3    H255947   2.951   1.348  14.926  0.5726 -0.3313  0.2012
11486TIP3   OH255948   6.071   6.129   4.706  0.0216 -0.0639 -0.3150
11486TIP3    H155949   5.998   6.181   4.671 -1.1374 -1.2551  0.2895
11486TIP3    H255950   6.071   6.147   4.800 -0.7544 -1.5555 -0.0059
11487TIP3   OH255951   0.759   0.932  13.040 -0.6179 -0.0853 -0.1359
11487TIP3    H155952   0.811   0.900  13.114  0.3054  0.3578 -0.5810
11487TIP3    H255953   0.793   0.884  12.965 -0.0387  1.0334 -0.6180
11488TIP3   OH255954   1.626   3.444   1.551  0.5900  0.0461 -0.1100
11488TIP3    H155955   1.588   3.531   1.562  2.0487  0.6193  0.6017
11488TIP3    H255956   1.708   3.459   1.505  0.9532 -0.9327  0.1920
11489TIP3   OH255957   2.012   1.738  13.675 -0.7950 -0.2561  0.5902
11489TIP3    H155958   1.980   1.823  13.644  0.2188 -0.3295 -0.7227
11489TIP3    H255959   2.089   1.759  13.728  1.3416 -0.4414 -2.2172
11490TIP3   OH255960   2.230   0.290   0.560  0.1954  0.5751  0.3320
11490TIP3    H155961   2.142   0.309   0.594  0.4916  1.9359  0.3956
11490TIP3    H255962   2.252   0.205   0.597 -0.7123  0.6553  1.0988
11491TIP3   OH255963   4.498   1.315  12.702  0.0408  0.2640 -0.4337
11491TIP3    H155964   4.567   1.361  12.653  1.5938 -0.4862  0.9381
11491TIP3    H255965   4.497   1.227  12.665  0.1819  0.1234 -0.1016
11492TIP3   OH255966   1.414   4.608   1.670 -0.6402  0.3298 -0.2858
11492TIP3    H155967   1.348   4.676   1.657 -2.1039 -1.1689 -1.0304
11492TIP3    H255968   1.452   4.629   1.755 -2.0850  1.2465  0.1815
11493TIP3   OH255969   0.664   6.551  15.420 -0.0450 -0.6138 -0.1340
11493TIP3    H155970   0.739   6.596  15.459 -0.0953 -1.2951  0.7753
11493TIP3    H255971   0.640   6.605  15.345  0.3213  0.5065  0.5381
11494TIP3   OH255972   5.673   2.350   1.248 -0.1393 -0.6546 -0.3717
11494TIP3    H155973   5.747   2.352   1.188  0.2624 -0.8317  0.1132
11494TIP3    H255974   5.597   2.371   1.193  0.3936  0.5568 -0.6918
11495TIP3   OH255975   6.341   0.441   5.129 -0.3888  0.3939 -0.3053
11495TIP3    H155976   6.392   0.382   5.074  1.3884  1.8986 -0.3582
11495TIP3    H255977   6.384   0.437   5.215 -1.0361  0.6644  0.0378
11496TIP3   OH255978   1.649   6.445  14.060  0.4012 -0.2005 -0.0014
11496TIP3    H155979   1.657   6.406  14.147 -1.4007  0.2188  0.3965
11496TIP3    H255980   1.648   6.540  14.076 -0.2169 -0.1265 -0.4469
11497TIP3   OH255981   3.956   1.904   1.504 -0.3512  0.0813  0.2400
11497TIP3    H155982   3.893   1.842   1.468  0.0216 -0.2142  0.0885
11497TIP3    H255983   3.913   1.939   1.582  0.6547 -2.7135  2.1984
11498TIP3   OH255984   5.826   0.460   3.362 -0.5434 -0.1243 -0.0139
11498TIP3    H155985   5.903   0.404   3.372 -1.3086 -1.1560  0.2667
11498TIP3    H255986   5.859   0.539   3.320  1.2035  0.7351  2.7748
11499TIP3   OH255987   0.209   5.606   4.114 -0.1072  0.6480 -0.3839
11499TIP3    H155988   0.174   5.651   4.037  3.1582  2.1586 -1.1718
11499TIP3    H255989   0.204   5.513   4.092  1.5216  1.0477 -2.9351
11500TIP3   OH255990   1.648   0.947  12.544  0.4525  0.4992  0.3222
11500TIP3    H155991   1.670   0.999  12.467  0.0832 -0.1002 -0.1945
11500TIP3    H255992   1.727   0.947  12.598  0.9070  0.3985 -0.3484
11501TIP3   OH255993   4.229   5.683   0.988  0.2201 -0.4235 -0.8022
11501TIP3    H155994   4.239   5.747   0.917 -2.0926  2.3784  1.1655
11501TIP3    H255995   4.313   5.686   1.035  0.9208 -0.5636 -1.9929
11502TIP3   OH255996   1.216   2.917  11.641 -0.6187  0.1220  0.5812
11502TIP3    H155997   1.309   2.943  11.645 -0.3125 -0.6663 -0.9547
11502TIP3    H255998   1.179   2.953  11.722  0.7298  1.5672  0.6184
11503TIP3   OH255999   3.205   2.881  11.595  0.4977 -0.2873 -0.4209
11503TIP3    H156000   3.292   2.859  11.629 -0.1796 -2.6172 -0.0285
11503TIP3    H256001   3.145   2.847  11.662 -0.7386  0.8230 -0.9395
11504TIP3   OH256002   3.775   6.183   0.554  0.2889  0.4239 -0.5899
11504TIP3    H156003   3.705   6.240   0.521 -0.3817 -0.2703 -0.4134
11504TIP3    H256004   3.730   6.102   0.577  0.9727  0.3617  0.6072
11505TIP3   OH256005   2.486   4.824   2.032 -0.3177 -0.4736  0.2222
11505TIP3    H156006   2.420   4.822   1.962 -0.2901 -0.8817  0.2033
11505TIP3    H256007   2.465   4.903   2.083 -1.4683 -1.1498  0.8390
11506TIP3   OH256008   6.141   2.893  15.773 -0.5083 -0.4462 -0.0690
11506TIP3    H156009   6.198   2.962  15.806  0.1120 -1.0214  0.0883
11506TIP3    H256010   6.062   2.939  15.743 -0.4747  0.2281  0.8481
11507TIP3   OH256011   6.204   5.349   5.103 -0.1795  0.2726  0.0048
11507TIP3    H156012   6.184   5.442   5.110  1.8933  0.8348 -0.8061
11507TIP3    H256013   6.197   5.330   5.009  0.8827  0.0252 -0.0433
11508TIP3   OH256014   3.482   4.169   4.012 -0.5024 -0.1225 -0.2351
11508TIP3    H156015   3.467   4.250   3.963 -0.4185 -0.4183 -0.7510
11508TIP3    H256016   3.571   4.143   3.988  0.4634  0.9833  1.8821
11509TIP3   OH256017   4.083   5.482   4.783 -0.0445  0.5451  0.2721
11509TIP3    H156018   4.155   5.447   4.732 -0.4593  0.3721 -0.2056
11509TIP3    H256019   4.018   5.411   4.785 -0.5026  0.9491  0.0806
11510TIP3   OH256020   4.827   5.161  10.985  0.1042 -0.1204 -0.7120
11510TIP3    H156021   4.899   5.117  10.940  0.3767  1.7927 -2.2465
11510TIP3    H256022   4.770   5.192  10.915 -0.3626  1.4619  0.3295
11511TIP3   OH256023   5.051   2.728   2.898 -0.2942 -0.3422 -0.2080
11511TIP3    H156024   4.989   2.741   2.826  0.7443  2.5202 -0.7136
11511TIP3    H256025   5.001   2.683   2.965 -2.4909  0.5223 -1.1793
11512TIP3   OH256026   5.106   4.515  13.688 -0.7490  0.6526 -0.1580
11512TIP3    H156027   5.063   4.440  13.647 -1.6883  1.9630 -1.7336
11512TIP3    H256028   5.128   4.573  13.614 -0.5863  2.1767  1.0346
11513TIP3   OH256029   1.794   5.475  12.673 -0.7028 -0.2637  0.2812
11513TIP3    H156030   1.725   5.409  12.671 -0.2978 -0.7804  1.8602
11513TIP3    H256031   1.872   5.427  12.701  0.2770  0.3464 -1.2722
11514TIP3   OH256032   5.898   3.931   2.348 -0.5683 -0.6009 -0.3666
11514TIP3    H156033   5.892   3.857   2.409 -1.3876  0.2819  0.6822
11514TIP3    H256034   5.824   3.918   2.289 -0.6670 -0.6675 -0.2320
11515TIP3   OH256035   5.811   6.345  12.176  0.6318 -0.0311  0.1805
11515TIP3    H156036   5.743   6.368  12.112  0.2837  0.7783  0.8177
11515TIP3    H256037   5.814   6.249  12.175  2.7195 -0.0702 -3.1944
11516TIP3   OH256038   4.408   5.749  15.173  0.7495  0.4153 -0.3900
11516TIP3    H156039   4.385   5.820  15.114 -2.0237  0.3732  0.5089
11516TIP3    H256040   4.453   5.685  15.117  1.6611  2.0195 -1.5850
11517TIP3   OH256041   6.333   0.072  11.463  0.3812 -0.3672  0.6722
11517TIP3    H156042   6.281   0.141  11.421 -1.8133 -2.0555  0.4812
11517TIP3    H256043   6.376   0.116  11.536 -0.6729  1.2749  0.3543
11518TIP3   OH256044   5.631   4.087  11.832  0.4557 -0.4740 -0.5104
11518TIP3    H156045   5.713   4.105  11.877  1.7342 -0.5699 -2.6721
11518TIP3    H256046   5.600   4.004  11.869 -0.8783  1.4339  3.1959
11519TIP3   OH256047   3.990   4.739  15.835 -0.1568 -0.5607  0.1338
11519TIP3    H156048   3.968   4.789  15.756  0.6399  2.5356  1.7105
11519TIP3    H256049   4.085   4.729  15.831  0.3449  2.2549  1.9468
11520TIP3   OH256050   5.895   6.838  15.506 -0.4024  0.2107  0.3296
11520TIP3    H156051   5.860   6.889  15.579  0.5759 -1.4520  2.0333
11520TIP3    H256052   5.850   6.753  15.513 -0.7282  0.2013 -1.3954
11521TIP3   OH256053   5.234   4.796  11.805 -0.0828  0.4587  0.0528
11521TIP3    H156054   5.186   4.741  11.744  1.5670  0.5181 -1.3664
11521TIP3    H256055   5.266   4.736  11.872  2.3747 -0.5799 -1.8978
11522TIP3   OH256056   1.655   0.183  11.738  0.6095 -0.3946 -0.7978
11522TIP3    H156057   1.594   0.229  11.680 -0.6854 -0.7233  0.2408
11522TIP3    H256058   1.737   0.231  11.730 -0.8144  2.5984  0.6851
11523TIP3   OH256059   1.248   0.902  15.591 -0.2002  0.0872  0.3673
11523TIP3    H156060   1.271   0.841  15.661 -0.4661  0.0065  0.3844
11523TIP3    H256061   1.216   0.846  15.520 -1.9838  0.2822  0.9596
11524TIP3   OH256062   6.752   6.640  16.030 -0.6159 -0.0571  0.4084
11524TIP3    H156063   6.755   6.714  15.970  0.5307 -0.2774  0.1542
11524TIP3    H256064   6.693   6.667  16.100  0.3002  1.3756  0.6743
11525TIP3   OH256065   1.514   1.647  13.497 -0.1374 -0.0131  0.0979
11525TIP3    H156066   1.501   1.634  13.403  0.2655 -0.5020  0.1073
11525TIP3    H256067   1.517   1.742  13.508 -0.3555  0.0498 -0.3582
11526TIP3   OH256068   1.282   6.245  10.846  0.1371 -0.0122  0.2996
11526TIP3    H156069   1.292   6.174  10.909  1.6695  0.2166  0.3564
11526TIP3    H256070   1.278   6.202  10.761 -3.0750 -0.4124  0.5110
11527TIP3   OH256071   1.979   2.331   1.047 -0.4543 -0.2675  0.3830
11527TIP3    H156072   2.026   2.343   1.130 -0.0003 -0.1589  0.1141
11527TIP3    H256073   2.027   2.262   1.002 -0.2471  0.1836 -0.1069
11528TIP3   OH256074   1.348   1.421  14.819  0.0854  0.3756  0.0626
11528TIP3    H156075   1.264   1.375  14.819 -0.0203  0.5586  0.5722
11528TIP3    H256076   1.413   1.353  14.837  0.0592  0.2179 -0.4208
11529TIP3   OH256077   4.585   0.830  14.014  0.0587  0.1608  0.6646
11529TIP3    H156078   4.495   0.842  14.044 -0.7347 -1.6105 -0.8487
11529TIP3    H256079   4.602   0.906  13.959 -0.1579  0.9934  1.7218
11530TIP3   OH256080   1.107   1.374   6.163  0.0638 -0.9971 -0.0229
11530TIP3    H156081   1.039   1.377   6.231  0.5151 -3.0324  0.5824
11530TIP3    H256082   1.108   1.282   6.135  1.4987 -0.6725 -1.1202
11531TIP3   OH256083   5.235   0.764  16.265  0.3643 -0.1357  0.4780
11531TIP3    H156084   5.303   0.832  16.261  0.3071 -0.0969  0.0304
11531TIP3    H256085   5.156   0.808  16.236  0.5646 -0.6706 -0.9835
11532TIP3   OH256086   6.775   5.004   1.119 -0.0920  0.4403  0.2366
11532TIP3    H156087   6.688   4.997   1.080 -1.3104 -0.7005  2.9127
11532TIP3    H256088   6.764   5.063   1.193  1.7248  1.2067 -0.0483
11533TIP3   OH256089   1.241   5.410  14.061  0.2094 -0.4797 -0.0379
11533TIP3    H156090   1.245   5.502  14.087  1.8510  0.0885 -2.0138
11533TIP3    H256091   1.177   5.370  14.120 -0.2655  1.8395  1.0958
11534TIP3   OH256092   2.777   4.314  12.151 -0.7882  0.1796  0.0743
11534TIP3    H156093   2.752   4.369  12.077 -1.3660 -0.2482 -0.0615
11534TIP3    H256094   2.789   4.227  12.113 -1.3733 -0.1080  0.5178
11535TIP3   OH256095   1.090   1.507  11.163 -0.6909  0.0175  0.0246
11535TIP3    H156096   1.041   1.469  11.091 -0.0867 -0.3669 -0.1942
11535TIP3    H256097   1.140   1.433  11.200 -0.6961  0.2859  0.5869
11536TIP3   OH256098   6.605   4.300   3.005 -0.3598 -0.2193 -0.1661
11536TIP3    H156099   6.553   4.274   3.081  1.0936  2.7338  2.0346
11536TIP3    H256100   6.662   4.225   2.987 -1.0297 -1.1365  1.3649
11537TIP3   OH256101   6.158   3.200   2.340 -0.7390  0.0583 -0.1057
11537TIP3    H156102   6.065   3.216   2.324 -0.6716 -0.8372 -1.5597
11537TIP3    H256103   6.201   3.282   2.317 -1.0419  0.0346 -0.7644
11538TIP3   OH256104   1.009   3.587   2.976 -0.2129  0.0735  0.8688
11538TIP3    H156105   1.052   3.507   3.008  2.3219  0.8399 -0.3381
11538TIP3    H256106   0.916   3.566   2.976  0.2621 -2.3759  1.9154
11539TIP3   OH256107   4.667   5.596   5.725  0.1724  0.3091 -0.1288
11539TIP3    H156108   4.728   5.521   5.726 -0.1466  0.0428 -0.4323
11539TIP3    H256109   4.707   5.658   5.664  1.0840  0.9427  1.0664
11540TIP3   OH256110   0.523   2.436   6.602 -0.5381  0.4160 -0.1665
11540TIP3    H156111   0.482   2.444   6.516 -1.0541  0.1646  0.0528
11540TIP3    H256112   0.451   2.445   6.664 -0.3173 -0.3818  0.2235
11541TIP3   OH256113   6.315   6.175  11.454 -0.3039 -0.1867 -0.1514
11541TIP3    H156114   6.405   6.204  11.442  0.4311  0.3447  4.5432
11541TIP3    H256115   6.262   6.250  11.426  0.8751  0.5970 -0.3740
11542TIP3   OH256116   2.621   3.567   3.924  0.0876  0.0595 -0.1412
11542TIP3    H156117   2.589   3.482   3.893 -1.8856  0.7246 -0.0131
11542TIP3    H256118   2.632   3.619   3.844  0.0939  0.0927 -0.1185
11543TIP3   OH256119   1.717   4.319  11.301 -0.0315 -0.1751  0.3025
11543TIP3    H156120   1.748   4.239  11.342 -1.2871 -1.5276 -1.2213
11543TIP3    H256121   1.625   4.325  11.325 -0.0795  0.5382 -0.0149
11544TIP3   OH256122   1.547   6.206  11.715  0.2690  0.0003 -0.0841
11544TIP3    H156123   1.570   6.183  11.625  2.4893 -0.7212  0.6200
11544TIP3    H256124   1.504   6.127  11.749  0.7381 -0.2618 -0.0866
11545TIP3   OH256125   5.789   0.482   1.745 -0.0927  0.2220  0.5136
11545TIP3    H156126   5.762   0.502   1.834 -0.9625 -1.0151  0.5488
11545TIP3    H256127   5.712   0.442   1.705  0.4227  0.3712 -0.6632
11546TIP3   OH256128   1.236   5.052  13.655 -0.2992 -0.5489 -0.2975
11546TIP3    H156129   1.292   5.058  13.732 -1.5769 -0.4106  0.6428
11546TIP3    H256130   1.297   5.032  13.583  1.2951  1.9905  0.2331
11547TIP3   OH256131   3.910   1.236   5.500 -0.9444 -0.6895  0.1604
11547TIP3    H156132   3.981   1.265   5.443 -0.3915 -2.1124  0.0778
11547TIP3    H256133   3.903   1.142   5.484 -3.3660 -0.4936 -0.4006
11548TIP3   OH256134   4.406   5.885   1.304  0.6273 -0.0205 -0.0724
11548TIP3    H156135   4.477   5.940   1.270 -0.6452  0.9093 -1.3844
11548TIP3    H256136   4.390   5.822   1.234  0.2751 -0.3265  0.2848
11549TIP3   OH256137   6.170   1.396   3.395  0.7898 -0.4075 -0.3118
11549TIP3    H156138   6.225   1.353   3.461  1.0352  0.3347 -0.0217
11549TIP3    H256139   6.134   1.472   3.441 -3.9242 -2.9862  0.9594
11550TIP3   OH256140   1.114   6.818   3.503  0.2497 -0.2960  0.3301
11550TIP3    H156141   1.051   6.856   3.441 -1.0561  0.0548  1.8098
11550TIP3    H256142   1.184   6.783   3.447  0.1299  1.7764 -1.2390
11551TIP3   OH256143   2.511   3.719   6.024 -0.8187  0.2029 -0.8892
11551TIP3    H156144   2.522   3.809   5.994 -1.2461  0.4005 -0.4801
11551TIP3    H256145   2.458   3.727   6.104 -0.8821 -0.4109 -0.8636
11552TIP3   OH256146   5.616   3.972   2.608 -0.0198 -0.4772 -0.0897
11552TIP3    H156147   5.523   3.994   2.606  0.4505  1.8738  0.0062
11552TIP3    H256148   5.625   3.897   2.550 -1.8899 -0.3079 -0.6454
11553TIP3   OH256149   0.812   1.798  16.580 -0.4182 -0.0670 -0.3002
11553TIP3    H156150   0.893   1.752  16.559  0.7739  1.9052 -0.3448
11553TIP3    H256151   0.823   1.826  16.671 -0.5214  1.1884 -0.6523
11554TIP3   OH256152   5.257   0.088   0.419  0.3081 -0.4035 -0.5159
11554TIP3    H156153   5.307   0.155   0.466  0.6671  0.3904 -1.9588
11554TIP3    H256154   5.166   0.104   0.445  0.4189  0.4837 -0.6545
11555TIP3   OH256155   1.283   1.401   0.816  0.3163 -0.1957 -0.4080
11555TIP3    H156156   1.279   1.438   0.904 -1.7436 -0.5838 -0.2840
11555TIP3    H256157   1.253   1.473   0.759 -0.7327 -0.6789 -0.4949
11556TIP3   OH256158   5.159   1.360  11.154 -0.5640 -0.1679 -0.6518
11556TIP3    H156159   5.097   1.321  11.217 -0.9500  2.9144  1.0568
11556TIP3    H256160   5.103   1.393  11.084 -0.8376  1.7449  0.4136
11557TIP3   OH256161   5.282   1.487  12.758 -0.3683 -0.3858 -0.1217
11557TIP3    H156162   5.234   1.447  12.830 -0.0617  0.1485  0.3866
11557TIP3    H256163   5.299   1.415  12.698 -1.3253 -0.6947 -0.0539
11558TIP3   OH256164   5.111   3.864   2.277 -0.1594 -0.1204  0.0053
11558TIP3    H156165   5.020   3.886   2.296 -0.0854  1.1494 -1.0123
11558TIP3    H256166   5.140   3.815   2.354 -1.1548  1.0514  1.1816
11559TIP3   OH256167   5.562   1.605  16.534 -0.0170  0.1166 -0.3079
11559TIP3    H156168   5.641   1.655  16.511  0.2832  0.7643  1.8908
11559TIP3    H256169   5.511   1.666  16.588 -0.2550 -1.4743  1.3678
11560TIP3   OH256170   0.528   6.187  16.210 -0.0886 -0.7256  0.0515
11560TIP3    H156171   0.548   6.095  16.228 -0.1347 -0.3649  2.1777
11560TIP3    H256172   0.452   6.206  16.264  0.0588  0.6317 -0.1821
11561TIP3   OH256173   1.878   0.276   1.698 -0.6052  0.0532  0.3469
11561TIP3    H156174   1.905   0.192   1.663 -0.6614  0.9737 -2.0645
11561TIP3    H256175   1.946   0.337   1.671  0.0265  0.6744  3.0228
11562TIP3   OH256176   3.856   3.995  13.312 -0.1772  0.0509  0.5702
11562TIP3    H156177   3.766   3.963  13.303  0.1034 -0.5879 -0.0614
11562TIP3    H256178   3.884   3.962  13.397 -0.9789  1.3955  1.3844
11563TIP3   OH256179   0.714   3.464   5.095 -0.2226  0.4871 -0.4402
11563TIP3    H156180   0.810   3.472   5.103 -0.1925 -0.8975  1.3991
11563TIP3    H256181   0.696   3.481   5.003  2.0189 -0.9523 -1.2469
11564TIP3   OH256182   6.062   0.829  14.553  0.2350  0.1751 -0.4465
11564TIP3    H156183   6.091   0.916  14.581  0.0251 -0.2691  1.3361
11564TIP3    H256184   6.123   0.803  14.485  0.5457  1.5413 -0.7215
11565TIP3   OH256185   4.815   4.681  14.827 -0.4056 -0.1948 -0.2456
11565TIP3    H156186   4.756   4.610  14.804 -1.5031 -0.0414  1.9149
11565TIP3    H256187   4.878   4.642  14.887  1.1653 -0.1225 -1.7697
11566TIP3   OH256188   0.530   0.416  13.534 -0.1871  0.0993  0.5548
11566TIP3    H156189   0.490   0.467  13.465 -0.5080  0.2146  0.8219
11566TIP3    H256190   0.521   0.470  13.613 -2.6533 -1.3209  1.3475
11567TIP3   OH256191   2.065   1.339   3.461  0.0188  0.1481  0.2732
11567TIP3    H156192   2.128   1.356   3.531  0.8479  0.0082 -0.4131
11567TIP3    H256193   1.995   1.289   3.503 -0.2359  1.3314  1.3186
11568TIP3   OH256194   4.365   6.254  15.880  0.1722  0.7527 -0.4594
11568TIP3    H156195   4.368   6.260  15.975 -0.4780 -1.1894 -0.2657
11568TIP3    H256196   4.295   6.313  15.854  0.1936  1.1104  0.2826
11569TIP3   OH256197   3.065   0.914   0.138 -0.1935  0.3493  0.3959
11569TIP3    H156198   3.051   0.830   0.095 -0.0359 -0.9512  2.7020
11569TIP3    H256199   3.135   0.898   0.201  0.4753  2.4842  0.2961
11570TIP3   OH256200   4.854   3.405   3.588 -0.2354  0.1808  0.1569
11570TIP3    H156201   4.823   3.433   3.674  0.9477  0.1223  0.6221
11570TIP3    H256202   4.776   3.370   3.545 -0.9604  0.7274  0.9879
11571TIP3   OH256203   1.722   4.957   5.386  0.0378  0.0184 -0.2649
11571TIP3    H156204   1.702   4.866   5.408 -2.1975  0.5458  0.1600
11571TIP3    H256205   1.648   5.007   5.421  1.2631  2.0355 -0.3634
11572TIP3   OH256206   4.442   6.284  15.171 -0.1310 -0.2041  0.0150
11572TIP3    H156207   4.501   6.356  15.149 -0.6323  0.1566 -0.1578
11572TIP3    H256208   4.370   6.325  15.218 -1.1691 -0.3524 -1.3810
11573TIP3   OH256209   3.076   2.694   4.153  0.1354 -0.7707 -0.3127
11573TIP3    H156210   3.129   2.615   4.163  1.0391 -0.1050  0.2568
11573TIP3    H256211   3.122   2.744   4.085 -0.3932 -0.6902 -0.6156
11574TIP3   OH256212   6.125   1.596   6.142 -0.2685 -0.0115 -0.1572
11574TIP3    H156213   6.036   1.561   6.146 -0.4240  0.3029 -0.8151
11574TIP3    H256214   6.143   1.606   6.049  1.4758 -2.6488 -0.1962
11575TIP3   OH256215   0.054   3.507  11.918  0.0045  0.0256 -0.8048
11575TIP3    H156216   0.028   3.544  11.834  0.2126  0.1333 -0.8215
11575TIP3    H256217   0.150   3.512  11.918  0.1131 -1.4882 -1.2718
11576TIP3   OH256218   6.385   6.787  14.657 -0.4093 -0.7452  0.4581
11576TIP3    H156219   6.441   6.769  14.733 -0.1384 -0.6219  0.2881
11576TIP3    H256220   6.359   6.878  14.668 -1.2336 -1.0293  0.9620
11577TIP3   OH256221   1.492   4.391  15.229 -0.2952  0.4429 -0.1834
11577TIP3    H156222   1.481   4.333  15.305  3.8385  0.5581  0.7480
11577TIP3    H256223   1.521   4.333  15.159 -0.6722  0.8124 -0.6493
11578TIP3   OH256224   4.960   3.348  16.290 -0.1468  0.1552  0.5725
11578TIP3    H156225   4.997   3.290  16.357  0.6905 -1.3466 -1.1207
11578TIP3    H256226   4.981   3.306  16.207 -0.7753  2.1863 -0.6876
11579TIP3   OH256227   3.219   6.359   1.731  0.0479  0.4186 -0.4279
11579TIP3    H156228   3.306   6.385   1.759 -0.2797  0.4623  0.5869
11579TIP3    H256229   3.216   6.264   1.744 -0.1689  0.4646 -0.1265
11580TIP3   OH256230   6.328   6.172   3.160  0.0256 -0.4319 -0.2242
11580TIP3    H156231   6.357   6.230   3.230 -2.1511  1.1009 -0.4845
11580TIP3    H256232   6.405   6.161   3.105  1.2551 -0.0999  1.3653
11581TIP3   OH256233   4.697   1.638  12.898 -0.1660  0.1076  0.6345
11581TIP3    H156234   4.666   1.729  12.905  0.1931  0.3386 -0.6671
11581TIP3    H256235   4.625   1.591  12.857  0.8465  0.5032 -1.7501
11582TIP3   OH256236   1.156   5.493  16.729 -0.1507  0.3972 -0.2508
11582TIP3    H156237   1.095   5.423  16.708  0.2888  0.4615 -1.8669
11582TIP3    H256238   1.173   5.536  16.645  1.3110  1.0341  0.3429
11583TIP3   OH256239   2.762   4.040   1.722  0.0008 -0.2116 -0.0432
11583TIP3    H156240   2.723   3.958   1.692  1.0346 -0.3810 -1.0154
11583TIP3    H256241   2.847   4.015   1.756  1.3922  0.6563 -2.5787
11584TIP3   OH256242   5.740   2.222  12.725  0.1176 -0.1600  0.5734
11584TIP3    H156243   5.653   2.242  12.759 -0.3969 -1.7694  0.2815
11584TIP3    H256244   5.732   2.133  12.691  1.5316  0.1471 -0.6409
11585TIP3   OH256245   3.995   1.386  16.995 -0.0387  0.0858 -0.0381
11585TIP3    H156246   3.922   1.352  16.943 -0.9741  0.1746  1.1713
11585TIP3    H256247   3.960   1.464  17.038 -0.1420 -1.3363  2.6739
11586TIP3   OH256248   1.610   3.453  16.842  0.2535 -0.3100 -0.1656
11586TIP3    H156249   1.681   3.483  16.785 -0.0992  1.7839  0.4122
11586TIP3    H256250   1.643   3.469  16.931 -0.8104  0.4848  0.1073
11587TIP3   OH256251   3.322   4.052  14.128  0.0090  0.2069  0.6472
11587TIP3    H156252   3.406   4.047  14.173  0.1289 -2.0037  0.3185
11587TIP3    H256253   3.259   4.078  14.196  0.5036 -1.0877  1.6436
11588TIP3   OH256254   2.912   3.041   1.929 -0.1176 -0.0514  0.0128
11588TIP3    H156255   2.951   3.112   1.878  0.2837  0.3087  0.8092
11588TIP3    H256256   2.924   2.963   1.874  3.5114 -0.3577  0.9698
11589TIP3   OH256257   6.002   0.354   1.547 -0.1465 -0.2003  0.1824
11589TIP3    H156258   6.048   0.320   1.470 -0.6052  1.7514 -1.0264
11589TIP3    H256259   6.034   0.301   1.619  2.8371  0.0381 -0.8386
11590TIP3   OH256260   6.337   2.253   0.924 -0.2666 -0.2745  0.7146
11590TIP3    H156261   6.296   2.336   0.898 -2.3529 -1.3718  0.2631
11590TIP3    H256262   6.329   2.197   0.847  1.2483 -0.8904  0.9645
11591TIP3   OH256263   5.846   6.155   0.919  0.0845  0.0744 -0.2861
11591TIP3    H156264   5.832   6.132   0.828  1.5941  2.3277 -1.1877
11591TIP3    H256265   5.762   6.193   0.947 -1.4214 -3.3225  0.3333
11592TIP3   OH256266   1.931   2.359  14.732  0.3946  0.1264 -0.0432
11592TIP3    H156267   2.024   2.380  14.720  0.1985  0.1551 -1.8894
11592TIP3    H256268   1.925   2.265  14.719  0.4836 -0.3460  2.7282
11593TIP3   OH256269   0.737   1.321  10.886  0.2319  0.1512 -0.0138
11593TIP3    H156270   0.700   1.409  10.878  0.9185  0.3868 -0.8090
11593TIP3    H256271   0.662   1.262  10.880  0.0311  0.5385 -2.9673
11594TIP3   OH256272   2.259   3.715   0.792 -0.5287 -0.5398  0.2482
11594TIP3    H156273   2.209   3.780   0.742 -0.2104 -1.8674 -1.9502
11594TIP3    H256274   2.192   3.662   0.835 -0.9946 -1.0311 -1.0181
11595TIP3   OH256275   3.901   2.876  13.848 -0.5483 -0.7937 -0.0596
11595TIP3    H156276   3.920   2.839  13.762 -2.8380  0.2977 -1.1382
11595TIP3    H256277   3.838   2.815  13.887 -1.4040 -0.0459 -0.2360
11596TIP3   OH256278   6.489   5.512  11.037 -0.0301 -0.5533  0.1704
11596TIP3    H156279   6.566   5.519  11.093 -0.4910 -0.2828  0.7819
11596TIP3    H256280   6.425   5.464  11.089 -1.1314  1.3027  0.6426
11597TIP3   OH256281   1.722   0.657   0.305  0.1488  0.3941  0.0664
11597TIP3    H156282   1.715   0.715   0.381 -0.3859  0.9050 -0.3529
11597TIP3    H256283   1.814   0.635   0.299  0.2157  0.4675  0.7757
11598TIP3   OH256284   2.286   2.937  14.643  0.9372 -0.1430  0.2217
11598TIP3    H156285   2.227   2.962  14.714  1.5825 -0.6015  0.9378
11598TIP3    H256286   2.323   3.020  14.613 -0.6474  0.2400 -0.7914
11599TIP3   OH256287   1.300   4.175   4.314  0.6547  0.5830 -0.1770
11599TIP3    H156288   1.233   4.218   4.367  1.2714 -0.6138  1.6519
11599TIP3    H256289   1.382   4.219   4.338  0.7796  0.9038 -1.1379
11600TIP3   OH256290   4.594   0.233  16.719  0.0045 -0.2468 -0.1917
11600TIP3    H156291   4.629   0.225  16.808 -1.4559  2.0659  0.7015
11600TIP3    H256292   4.666   0.270  16.668  0.5651 -0.6990  0.2639
11601TIP3   OH256293   6.073   2.511  15.924 -0.2326 -0.0063  0.1585
11601TIP3    H156294   6.157   2.556  15.927  0.5606 -1.0862 -2.3623
11601TIP3    H256295   6.008   2.580  15.929  0.7575  0.8528  2.2219
11602TIP3   OH256296   0.879   5.753  15.585 -0.0233  0.2635 -0.4475
11602TIP3    H156297   0.954   5.746  15.645 -2.4343  0.9856  2.9764
11602TIP3    H256298   0.841   5.665  15.583 -0.1733  0.3318 -0.6257
11603TIP3   OH256299   5.264   3.719  13.032 -0.9647 -0.2843 -0.1087
11603TIP3    H156300   5.192   3.682  12.981 -0.7240 -0.6330 -0.1974
11603TIP3    H256301   5.343   3.683  12.992 -0.7521 -0.1527  0.1866
11604TIP3   OH256302   3.393   0.512   5.710 -0.5398  0.2467  0.1615
11604TIP3    H156303   3.309   0.484   5.674  0.8428 -0.7882 -2.5129
11604TIP3    H256304   3.444   0.431   5.717  0.0609  0.7567  2.4325
11605TIP3   OH256305   2.318   4.409  10.981 -0.2894 -0.2910 -0.1801
11605TIP3    H156306   2.366   4.465  11.041  0.1794 -1.3412  0.4526
11605TIP3    H256307   2.374   4.332  10.970 -0.9188 -0.6430 -1.0177
11606TIP3   OH256308   5.491   0.974  15.250 -0.4023 -0.2437  0.1345
11606TIP3    H156309   5.466   0.920  15.174 -0.8355 -0.3226  0.3328
11606TIP3    H256310   5.560   0.923  15.293  1.8052  0.9948 -1.6764
11607TIP3   OH256311   5.056   5.421  11.200 -0.0393 -0.2728 -0.4276
11607TIP3    H156312   5.053   5.370  11.281 -1.2621 -0.0670 -0.3338
11607TIP3    H256313   5.101   5.364  11.138 -1.2495 -1.4281 -0.2859
11608TIP3   OH256314   5.256   2.880   0.996  0.5963  0.2289  0.4026
11608TIP3    H156315   5.344   2.858   1.025  0.9253  1.1909  0.2002
11608TIP3    H256316   5.232   2.956   1.049  0.6342  1.1066 -0.7949
11609TIP3   OH256317   0.126   2.932  12.878  0.2946  0.2584  0.0977
11609TIP3    H156318   0.124   3.012  12.825  0.3344  1.3076  1.6185
11609TIP3    H256319   0.091   2.864  12.819 -1.4319  1.7266 -0.6989
11610TIP3   OH256320   6.574   6.638  14.498  0.1515 -0.0178 -0.4647
11610TIP3    H156321   6.525   6.556  14.506  0.9182 -0.4511 -0.1273
11610TIP3    H256322   6.533   6.696  14.563 -0.7065  0.0430 -1.0396
11611TIP3   OH256323   5.534   2.774  15.352 -0.2884 -0.0696 -0.1946
11611TIP3    H156324   5.592   2.717  15.301 -3.4870 -3.1443 -0.8003
11611TIP3    H256325   5.470   2.805  15.289 -1.5928 -0.0318  1.1083
11612TIP3   OH256326   3.381   1.829   2.923 -0.0402 -0.0820  0.0913
11612TIP3    H156327   3.413   1.907   2.877  0.2477 -0.6879 -0.7601
11612TIP3    H256328   3.367   1.765   2.854 -1.8862 -0.2600  0.5861
11613TIP3   OH256329   4.713   5.559  11.506 -0.1304  0.5877  0.3643
11613TIP3    H156330   4.655   5.497  11.549  2.1522 -1.4206  0.7561
11613TIP3    H256331   4.753   5.510  11.435  0.2096  2.2721 -0.6745
11614TIP3   OH256332   3.653   4.353   3.471 -0.0618  0.0631 -0.0449
11614TIP3    H156333   3.716   4.390   3.532  1.2213  0.5760 -1.6254
11614TIP3    H256334   3.603   4.291   3.523  0.5952  0.9050  1.6505
11615TIP3   OH256335   6.849   5.238   3.820  0.2872  0.0998 -0.2435
11615TIP3    H156336   6.901   5.181   3.764 -0.7968 -1.5352  0.3596
11615TIP3    H256337   6.791   5.179   3.869 -1.2722  1.7386  0.0131
11616TIP3   OH256338   1.900   4.098  15.421  0.1867 -0.3089 -0.1891
11616TIP3    H156339   1.970   4.051  15.466  0.0769  0.8704  1.3291
11616TIP3    H256340   1.827   4.036  15.418  0.5856 -0.8033  0.2541
11617TIP3   OH256341   1.865   6.439  15.908  0.3264  0.2476  0.3003
11617TIP3    H156342   1.812   6.482  15.841  1.6492 -2.4283 -2.6903
11617TIP3    H256343   1.800   6.397  15.965 -0.8865 -0.4764 -1.5112
11618TIP3   OH256344   2.622   0.380  15.054  0.0957 -0.8720  0.0187
11618TIP3    H156345   2.541   0.429  15.070  0.5137 -0.3083  0.4406
11618TIP3    H256346   2.611   0.298  15.102 -0.0962 -0.6584  0.3424
11619TIP3   OH256347   6.005   0.645  16.297  0.0280  0.1036  0.5692
11619TIP3    H156348   5.924   0.695  16.313 -0.9791 -1.0594 -0.6470
11619TIP3    H256349   5.989   0.600  16.214  3.4264  2.8148 -1.8530
11620TIP3   OH256350   4.276   1.856  13.821  0.5502 -0.9297  0.0977
11620TIP3    H156351   4.273   1.871  13.726  1.5205 -0.8034  0.0734
11620TIP3    H256352   4.197   1.897  13.855  0.9294  0.3212 -0.4944
11621TIP3   OH256353   5.680   2.697  13.977  0.8076 -0.2831 -0.1046
11621TIP3    H156354   5.706   2.738  14.059  0.6564 -0.1124 -0.1417
11621TIP3    H256355   5.757   2.645  13.951 -0.3970 -3.4861  2.1016
11622TIP3   OH256356   1.456   3.902  11.231  0.1644 -0.4787 -0.4333
11622TIP3    H156357   1.475   3.905  11.137  0.9640  0.9280 -0.2380
11622TIP3    H256358   1.366   3.868  11.235 -1.1310  2.3910 -1.9075
11623TIP3   OH256359   6.452   1.644  16.217  0.0413 -0.1008  0.1361
11623TIP3    H156360   6.388   1.712  16.197 -0.6060  0.0025  2.2987
11623TIP3    H256361   6.519   1.688  16.269  0.3805 -0.8093  0.3154
11624TIP3   OH256362   4.724   0.913   3.836  0.4359  0.6142 -0.5281
11624TIP3    H156363   4.721   0.817   3.825  1.0049  0.2412  2.0181
11624TIP3    H256364   4.651   0.945   3.783  0.0964 -1.2439 -1.2712
11625TIP3   OH256365   4.944   5.296   4.058  0.3194  0.7905  0.2022
11625TIP3    H156366   4.944   5.228   4.126 -0.6165  0.7673  0.1870
11625TIP3    H256367   5.013   5.268   3.997 -1.4473 -1.3330 -0.9374
11626TIP3   OH256368   1.574   4.226   1.384  0.1677 -0.1090  0.0519
11626TIP3    H156369   1.589   4.307   1.433  0.0114  0.2770 -0.5221
11626TIP3    H256370   1.605   4.157   1.442  1.6787  0.4570 -0.0318
11627TIP3   OH256371   2.564   0.849  15.313  0.4724  0.4383 -0.4248
11627TIP3    H156372   2.481   0.887  15.286 -0.3345  0.2943  1.6536
11627TIP3    H256373   2.543   0.800  15.393  2.6417  0.8488  0.4676
11628TIP3   OH256374   4.335   1.630  11.218  0.1417 -0.0550 -0.0917
11628TIP3    H156375   4.335   1.569  11.145 -0.0410  1.1534 -1.1479
11628TIP3    H256376   4.350   1.716  11.177 -1.4226  0.8447  1.1249
11629TIP3   OH256377   1.178   0.173   2.461  0.4078  0.7106 -0.8639
11629TIP3    H156378   1.120   0.205   2.530  1.7445  1.5072 -0.0467
11629TIP3    H256379   1.120   0.146   2.391 -0.9770  0.4400  0.3392
11630TIP3   OH256380   4.992   2.825  10.630 -0.1920 -0.3118 -0.3608
11630TIP3    H156381   4.994   2.864  10.543  1.5055  0.2872 -0.0867
11630TIP3    H256382   4.912   2.860  10.669 -0.0871  0.7855 -1.0804
11631TIP3   OH256383   1.623   2.841   1.898 -0.0182 -0.1180 -0.0357
11631TIP3    H156384   1.618   2.750   1.926 -1.1167 -0.7303 -2.0104
11631TIP3    H256385   1.713   2.852   1.868  0.4691 -0.1572  1.3422
11632TIP3   OH256386   4.936   5.367   0.877  0.4160 -0.2474  0.6840
11632TIP3    H156387   4.854   5.354   0.829  0.6770 -2.0041  0.6709
11632TIP3    H256388   4.996   5.403   0.812  0.7544 -2.5699 -0.3806
11633TIP3   OH256389   6.654   1.027   1.404  0.4428  0.2014 -0.4158
11633TIP3    H156390   6.593   0.988   1.342 -0.4694  1.2461 -0.1956
11633TIP3    H256391   6.714   0.955   1.427 -2.6702 -1.8900  1.9339
11634TIP3   OH256392   3.478   2.203  13.045  0.3830 -0.6025 -0.1862
11634TIP3    H156393   3.534   2.212  13.122  0.3361 -1.6883 -0.0004
11634TIP3    H256394   3.390   2.191  13.080  0.0278  0.9389 -0.4728
11635TIP3   OH256395   6.438   1.596   6.039 -0.4079  0.1349  1.1025
11635TIP3    H156396   6.449   1.679   5.993 -3.0274  0.5466  1.1110
11635TIP3    H256397   6.439   1.530   5.970 -0.0277  0.3262  0.9232
11636TIP3   OH256398   5.652   4.085   4.824 -0.3386  0.2955  0.5093
11636TIP3    H156399   5.646   4.173   4.788  0.9031  0.4277  0.5929
11636TIP3    H256400   5.704   4.036   4.761 -1.0049 -0.3871  0.4719
11637TIP3   OH256401   1.882   3.042  12.256  0.4785 -0.2640 -0.1735
11637TIP3    H156402   1.800   3.062  12.211  0.5649  0.5307  0.0104
11637TIP3    H256403   1.924   2.977  12.200 -0.1072 -0.4027 -0.4589
11638TIP3   OH256404   1.199   3.466   3.257  0.0949  0.1714  0.4518
11638TIP3    H156405   1.184   3.433   3.169  1.1999  2.1180 -0.5237
11638TIP3    H256406   1.192   3.388   3.313  0.1735 -1.2622 -1.4232
11639TIP3   OH256407   6.389   2.655   2.128  0.1898  0.1004  0.0042
11639TIP3    H156408   6.311   2.680   2.177  0.6358  0.8748  0.3287
11639TIP3    H256409   6.374   2.689   2.039  0.2043  0.3343  0.0918
11640TIP3   OH256410   3.285   3.965   1.751  0.1299  0.2391  0.0885
11640TIP3    H156411   3.365   4.016   1.738  1.1243 -1.2701 -0.0146
11640TIP3    H256412   3.315   3.874   1.753 -1.3398 -0.2570  2.1009
11641TIP3   OH256413   0.171   0.607  12.214  0.2058  0.5346 -0.0046
11641TIP3    H156414   0.133   0.519  12.209 -0.3011  0.7364  0.2640
11641TIP3    H256415   0.217   0.608  12.298  1.4606  0.0407 -0.6522
11642TIP3   OH256416   4.418   3.359   5.036 -0.6807 -0.5458  0.1056
11642TIP3    H156417   4.454   3.440   5.000  0.2112 -0.9398  0.0782
11642TIP3    H256418   4.396   3.306   4.958 -0.2849 -0.7396  0.1208
11643TIP3   OH256419   6.789   3.712   5.597 -0.6300 -0.5426 -0.3409
11643TIP3    H156420   6.850   3.757   5.539 -1.1260 -0.7735 -1.0571
11643TIP3    H256421   6.791   3.620   5.569  2.0633 -1.5460  2.5370
11644TIP3   OH256422   2.556   1.553   3.066  0.1426  0.2107  0.2076
11644TIP3    H156423   2.619   1.487   3.037  0.5432  0.3441  0.7697
11644TIP3    H256424   2.484   1.502   3.104  0.4787  0.0868  0.6941
11645TIP3   OH256425   3.303   2.120   0.760  0.4956 -0.2931 -1.0464
11645TIP3    H156426   3.376   2.066   0.791 -0.6974 -1.6585 -0.5516
11645TIP3    H256427   3.233   2.058   0.740 -0.4190  0.9569 -1.9044
11646TIP3   OH256428   6.669   5.630   2.488 -0.6420 -0.3844 -0.2158
11646TIP3    H156429   6.715   5.708   2.519  0.3738 -1.2749  0.5727
11646TIP3    H256430   6.671   5.638   2.393 -0.0940  0.2945 -0.1575
11647TIP3   OH256431   3.734   1.008  14.870 -0.7172  0.0419  0.2844
11647TIP3    H156432   3.663   1.015  14.807  0.3650  2.1449 -0.8057
11647TIP3    H256433   3.724   1.086  14.926 -0.3997 -0.6693  1.3614
11648TIP3   OH256434   5.914   3.976  12.438  0.1043  0.3427 -0.4445
11648TIP3    H156435   5.948   3.954  12.351  0.7600  2.9569 -0.9283
11648TIP3    H256436   5.882   3.893  12.473  2.3073 -1.3080 -2.0584
11649TIP3   OH256437   1.150   3.838   3.080  0.0378 -0.0112 -0.6649
11649TIP3    H156438   1.121   3.747   3.074  0.1090 -0.3848  2.7054
11649TIP3    H256439   1.245   3.833   3.072  0.4043 -0.8072  2.6728
11650TIP3   OH256440   4.385   5.897   3.697 -0.0630  0.3743 -0.4542
11650TIP3    H156441   4.293   5.876   3.681  0.1834 -1.3997  0.2414
11650TIP3    H256442   4.385   5.941   3.782 -0.3616  1.3736 -0.9536
11651TIP3   OH256443   0.481   0.671   0.434  0.3531 -0.1051 -0.2419
11651TIP3    H156444   0.530   0.591   0.417  1.3385  0.9749 -3.1717
11651TIP3    H256445   0.392   0.642   0.451  1.0623 -1.8819  0.6114
11652TIP3   OH256446   4.711   1.758   1.825  0.3321 -0.5823  0.3261
11652TIP3    H156447   4.619   1.739   1.847 -0.0717  0.4422 -0.3482
11652TIP3    H256448   4.756   1.759   1.909 -0.6966  0.8894  0.9148
11653TIP3   OH256449   4.441   2.240  10.984 -0.8029  0.2999  0.0537
11653TIP3    H156450   4.395   2.265  10.903 -0.8330 -0.0062 -0.0229
11653TIP3    H256451   4.404   2.155  11.007 -0.0194 -0.1234 -0.2126
11654TIP3   OH256452   0.721   2.432   5.251 -0.8043  0.5663  0.4175
11654TIP3    H156453   0.754   2.446   5.163  1.0798  0.4143  1.0567
11654TIP3    H256454   0.670   2.511   5.271 -1.3731  0.5319 -0.8238
11655TIP3   OH256455   5.077   1.633   2.438 -0.2390  0.0189 -0.0248
11655TIP3    H156456   5.012   1.581   2.391  0.8693 -4.3754  2.6330
11655TIP3    H256457   5.026   1.690   2.495 -1.5479  2.0150 -2.9631
11656TIP3   OH256458   3.490   4.686   1.186 -0.1908  0.7586 -0.0629
11656TIP3    H156459   3.577   4.672   1.149 -0.5933  1.8204 -1.4990
11656TIP3    H256460   3.486   4.626   1.260  0.7072 -1.3993 -1.6561
11657TIP3   OH256461   1.562   0.797  14.492  0.7249  0.1628  0.2451
11657TIP3    H156462   1.520   0.845  14.421  0.4455 -0.6245 -0.1457
11657TIP3    H256463   1.567   0.859  14.564  0.8129  0.9139 -0.3930
11658TIP3   OH256464   6.608   6.006   5.861 -0.7769  0.3790 -0.1814
11658TIP3    H156465   6.541   5.984   5.927 -1.4598  2.3161 -0.1561
11658TIP3    H256466   6.571   5.975   5.778 -0.4951 -0.9061  0.1472
11659TIP3   OH256467   2.100   0.515   4.768  0.2684  0.4997  0.2582
11659TIP3    H156468   2.121   0.447   4.704  1.4675 -0.3938  1.5394
11659TIP3    H256469   2.185   0.538   4.807 -0.3420  1.4873  1.0627
11660TIP3   OH256470   5.695   3.468  12.591  0.3656 -0.2869 -0.3279
11660TIP3    H156471   5.612   3.489  12.549  0.3026 -0.6554 -0.3909
11660TIP3    H256472   5.702   3.373  12.584  0.2700 -0.3748  0.6602
11661TIP3   OH256473   0.691   2.849   1.868 -0.2682 -0.1450 -0.1949
11661TIP3    H156474   0.681   2.861   1.774  0.4077  0.2779 -0.2259
11661TIP3    H256475   0.784   2.827   1.879 -0.4156 -0.5202  0.3418
11662TIP3   OH256476   5.818   1.159  15.785  0.0005 -0.4637 -0.1976
11662TIP3    H156477   5.833   1.143  15.878  0.2454 -0.6684 -0.2729
11662TIP3    H256478   5.824   1.254  15.776 -2.3461 -0.1785  0.4076
11663TIP3   OH256479   6.254   5.092  12.766  0.3070 -0.3307 -0.1142
11663TIP3    H156480   6.296   5.160  12.713 -0.6676 -0.3583 -0.9573
11663TIP3    H256481   6.260   5.125  12.855  1.1690  0.1527 -0.3396
11664TIP3   OH256482   3.919   3.797  16.105  0.0562  0.0589  0.1447
11664TIP3    H156483   3.875   3.761  16.028 -1.3224  1.3999  0.2454
11664TIP3    H256484   3.984   3.857  16.069 -1.3344  1.5420 -0.0523
11665TIP3   OH256485   2.805   1.677   1.299 -0.2077  0.1570  0.9370
11665TIP3    H156486   2.880   1.690   1.241  0.9021 -0.7420  2.1444
11665TIP3    H256487   2.738   1.737   1.264  0.6230  0.0842 -0.8917
11666TIP3   OH256488   4.669   5.601   2.904  0.1241 -0.0259  0.0941
11666TIP3    H156489   4.673   5.553   2.987 -0.1827 -1.6615 -0.7851
11666TIP3    H256490   4.599   5.666   2.917  1.9214  1.6807  2.0159
11667TIP3   OH256491   1.731   2.591   1.624 -0.0481  0.7498 -0.0524
11667TIP3    H156492   1.765   2.648   1.693 -0.8507 -0.7404  1.6394
11667TIP3    H256493   1.733   2.646   1.545  3.5038  1.6441  0.4926
11668TIP3   OH256494   1.811   0.182  16.141 -0.4691  0.1092 -0.2427
11668TIP3    H156495   1.757   0.106  16.124 -1.7254  0.9960 -0.3670
11668TIP3    H256496   1.782   0.214  16.226  1.6755 -0.8717  0.9363
11669TIP3   OH256497   6.526   2.669  12.148  0.3135  0.3230 -0.6762
11669TIP3    H156498   6.553   2.579  12.166  0.0716  0.5001  0.7483
11669TIP3    H256499   6.504   2.671  12.055 -0.3381 -1.2585 -0.5735
11670TIP3   OH256500   5.174   0.451  11.990  0.4714  1.0639 -0.7175
11670TIP3    H156501   5.147   0.377  12.044 -2.7385  0.7634 -2.4822
11670TIP3    H256502   5.270   0.445  11.987  0.3923 -2.8838 -0.5490
11671TIP3   OH256503   5.622   6.372  10.734  0.0434  0.1263  0.2785
11671TIP3    H156504   5.664   6.294  10.772  0.1661  0.8799  1.7896
11671TIP3    H256505   5.677   6.445  10.763 -1.2996  0.9787  0.8017
11672TIP3   OH256506   3.336   2.292  13.658  0.2095 -0.2857  0.6328
11672TIP3    H156507   3.288   2.224  13.611 -0.5568  1.1395 -0.7379
11672TIP3    H256508   3.270   2.337  13.710  0.6784 -0.4686  1.4029
11673TIP3   OH256509   6.843   6.286  15.536  0.3753  0.4914 -0.1646
11673TIP3    H156510   6.854   6.207  15.590  1.0112  1.4832  1.2369
11673TIP3    H256511   6.909   6.347  15.570 -1.0818  2.1560 -0.1931
11674TIP3   OH256512   6.484   0.879   1.218 -0.0929 -0.4562  0.2872
11674TIP3    H156513   6.439   0.826   1.152  0.3279 -1.1713  0.5673
11674TIP3    H256514   6.514   0.956   1.169 -0.4159 -0.6309 -0.1986
11675TIP3   OH256515   0.223   5.648   2.306  0.4586 -0.2226  0.2739
11675TIP3    H156516   0.208   5.649   2.400  1.7890  0.4800  0.5014
11675TIP3    H256517   0.261   5.562   2.288  0.2888 -0.3217  0.3848
11676TIP3   OH256518   2.393   3.817   3.278 -0.2636 -0.0480  0.1150
11676TIP3    H156519   2.388   3.871   3.199  1.5645 -0.8064 -0.5953
11676TIP3    H256520   2.433   3.874   3.344 -0.9706  0.3197  0.2252
11677TIP3   OH256521   6.052   4.715   4.697 -0.6811 -0.5513  0.3371
11677TIP3    H156522   6.095   4.674   4.772 -0.6627 -1.0059  0.0772
11677TIP3    H256523   6.080   4.664   4.622  1.6868  1.6487 -0.4013
11678TIP3   OH256524   1.375   0.530  11.723 -0.4598 -0.0468 -0.6614
11678TIP3    H156525   1.410   0.598  11.781 -0.4754 -1.4954  1.1444
11678TIP3    H256526   1.453   0.488  11.686 -0.4499  0.8829 -1.7540
11679TIP3   OH256527   2.388   6.480  13.367  0.2612 -0.0236 -0.8754
11679TIP3    H156528   2.442   6.434  13.302  1.0229  1.8434 -1.6454
11679TIP3    H256529   2.342   6.547  13.316 -0.0938  0.6829  0.3369
11680TIP3   OH256530   0.974   3.780  12.898  0.7320  0.2041 -0.5919
11680TIP3    H156531   0.902   3.803  12.840 -1.0854  0.2748  1.5393
11680TIP3    H256532   0.947   3.697  12.938  2.7883 -0.8074 -1.1710
11681TIP3   OH256533   6.101   1.583  16.123  0.5706  0.0687  0.4067
11681TIP3    H156534   6.147   1.531  16.057 -0.4452 -1.2111  0.6630
11681TIP3    H256535   6.126   1.674  16.104  2.5128 -0.5089  0.0345
11682TIP3   OH256536   1.334   4.294  12.480 -0.1298  0.1056  0.3440
11682TIP3    H156537   1.340   4.214  12.428  2.0730  0.3240  0.1812
11682TIP3    H256538   1.343   4.265  12.570 -0.3805  0.0698  0.3572
11683TIP3   OH256539   6.085   1.901  15.937  0.1762 -0.1883 -0.3543
11683TIP3    H156540   6.133   1.881  16.017 -1.5121  1.1543  1.0582
11683TIP3    H256541   6.123   1.984  15.906 -0.3630  0.2301  0.0808
11684TIP3   OH256542   4.343   5.246  12.680 -0.0059  0.1819  0.0726
11684TIP3    H156543   4.249   5.233  12.672  0.4148 -2.5932 -1.9124
11684TIP3    H256544   4.367   5.297  12.602  0.0911  1.4061  0.8845
11685TIP3   OH256545   0.472   4.947  16.836  0.3040  0.1430 -0.2487
11685TIP3    H156546   0.545   5.006  16.856  0.3881 -0.1919  0.4690
11685TIP3    H256547   0.405   4.971  16.900  0.1890 -0.2717 -0.2108
11686TIP3   OH256548   4.033   3.515  11.306 -0.5985 -0.4553 -0.4673
11686TIP3    H156549   4.045   3.522  11.401  0.6093  0.7242 -0.6731
11686TIP3    H256550   4.112   3.555  11.269 -1.2354 -0.5246 -1.9778
11687TIP3   OH256551   0.927   6.293   4.455  0.1479  0.4947 -0.8232
11687TIP3    H156552   1.023   6.293   4.457  0.1590  2.0051  0.2174
11687TIP3    H256553   0.905   6.243   4.376  1.7497 -0.7365 -0.5579
11688TIP3   OH256554   5.456   6.694   2.815 -0.4609  0.3371  0.1017
11688TIP3    H156555   5.463   6.789   2.806 -0.3300  0.3393  0.2199
11688TIP3    H256556   5.547   6.664   2.823 -0.5783  0.3838  1.9750
11689TIP3   OH256557   3.284   0.701  14.442  0.2715 -0.4922  0.2933
11689TIP3    H156558   3.308   0.609  14.444 -2.5693 -1.3096  1.4946
11689TIP3    H256559   3.244   0.717  14.527 -0.5319  1.4941 -0.4035
11690TIP3   OH256560   6.683   4.082  15.648 -0.1265  0.1709 -0.4439
11690TIP3    H156561   6.642   4.025  15.713  0.8750  0.2765  0.3237
11690TIP3    H256562   6.621   4.153  15.636 -1.6267 -1.2936 -1.7985
11691TIP3   OH256563   6.693   6.027  11.567  0.3308 -0.1756  0.4601
11691TIP3    H156564   6.618   5.993  11.614 -0.7019  1.4938  0.0884
11691TIP3    H256565   6.657   6.064  11.486  1.8139 -1.2114 -0.7421
11692TIP3   OH256566   5.949   6.058   0.404 -0.3751  0.4390 -0.4683
11692TIP3    H156567   6.007   5.984   0.423 -2.4884 -0.6078  2.8222
11692TIP3    H256568   5.869   6.018   0.371 -0.8476  1.4181 -0.5502
11693TIP3   OH256569   4.273   5.536   5.464  0.1630  0.6311 -0.1489
11693TIP3    H156570   4.368   5.533   5.472  0.0934 -0.5283  0.4766
11693TIP3    H256571   4.241   5.508   5.550 -0.7610  2.2133  0.0547
11694TIP3   OH256572   3.204   4.433  15.148  0.1089  0.1765  0.1677
11694TIP3    H156573   3.218   4.509  15.204  0.7411  1.3729 -1.5258
11694TIP3    H256574   3.292   4.407  15.121 -0.1924 -0.3027 -0.3655
11695TIP3   OH256575   1.186   3.689   6.132  0.4944  0.0727 -0.3219
11695TIP3    H156576   1.219   3.763   6.080 -0.1758 -1.0561 -2.4621
11695TIP3    H256577   1.093   3.709   6.145  0.4820 -0.0311 -0.2516
11696TIP3   OH256578   0.438   1.381  11.616 -0.2766  0.6951 -0.1944
11696TIP3    H156579   0.383   1.314  11.575  2.2245 -1.2799 -0.5383
11696TIP3    H256580   0.443   1.354  11.708  0.9661  0.1937 -0.3929
11697TIP3   OH256581   2.396   0.800  11.859  0.3179 -0.3785 -0.1284
11697TIP3    H156582   2.348   0.877  11.830  3.5150  1.7385 -0.3549
11697TIP3    H256583   2.352   0.773  11.939 -0.4016  2.3355  0.5112
11698TIP3   OH256584   2.101   6.616  12.448 -0.0972 -0.1157  0.2402
11698TIP3    H156585   2.029   6.659  12.493  0.1038  1.2222 -0.6520
11698TIP3    H256586   2.179   6.665  12.474  0.0449  0.5639 -1.3551
11699TIP3   OH256587   3.056   0.612   0.461 -0.2228 -0.6830  0.0161
11699TIP3    H156588   3.142   0.625   0.423  0.0508 -2.1245  0.0676
11699TIP3    H256589   3.017   0.543   0.408 -0.2674 -1.9619  1.6241
11700TIP3   OH256590   4.159   5.930  13.792 -0.2452  0.1760 -0.3945
11700TIP3    H156591   4.220   5.999  13.819  1.5701 -1.2793 -0.5741
11700TIP3    H256592   4.179   5.914  13.700 -0.9828 -0.2481 -0.4905
11701TIP3   OH256593   0.751   6.125   3.727  0.4541 -0.2685 -0.0392
11701TIP3    H156594   0.798   6.080   3.657 -1.9428  0.0384 -1.9479
11701TIP3    H256595   0.708   6.055   3.776  1.7031 -0.4379  0.8821
11702TIP3   OH256596   6.055   0.239  16.045 -0.5266  0.2393 -0.6748
11702TIP3    H156597   6.036   0.150  16.074 -0.3497  1.0379  2.2601
11702TIP3    H256598   6.149   0.241  16.031 -0.2225  0.3833  1.1547
11703TIP3   OH256599   1.618   2.113  14.392 -0.0891 -0.2377 -0.3551
11703TIP3    H156600   1.534   2.092  14.432 -0.7583  0.2589 -1.4588
11703TIP3    H256601   1.606   2.093  14.299 -0.6340  4.2023 -1.4789
11704TIP3   OH256602   3.060   5.667   2.754  0.1302 -0.3396  0.3449
11704TIP3    H156603   2.965   5.683   2.757 -0.1040 -1.1279 -1.2803
11704TIP3    H256604   3.096   5.719   2.825 -1.5225  0.0457  0.9464
11705TIP3   OH256605   5.771   1.416   2.016  0.2338 -0.0744 -0.3196
11705TIP3    H156606   5.704   1.378   2.073  0.3495  2.5333  1.7371
11705TIP3    H256607   5.821   1.340   1.985 -0.8458 -1.7624  1.7630
11706TIP3   OH256608   1.279   4.236  13.793  0.2172 -0.2653 -0.5773
11706TIP3    H156609   1.222   4.299  13.837  0.2889 -0.3449 -0.3668
11706TIP3    H256610   1.299   4.276  13.709 -0.2330 -0.2856 -0.6962
11707TIP3   OH256611   4.219   0.446   2.550  0.1113  0.2019 -0.0941
11707TIP3    H156612   4.156   0.409   2.612  2.4143 -0.4723  2.0196
11707TIP3    H256613   4.199   0.540   2.548 -1.5272 -0.1264 -0.2414
11708TIP3   OH256614   1.038   0.220  15.284  0.0199 -0.3223 -0.2038
11708TIP3    H156615   1.055   0.127  15.289  0.5285 -0.2200 -0.0238
11708TIP3    H256616   0.943   0.226  15.272  0.0036 -0.8612 -0.3644
11709TIP3   OH256617   2.013   4.376   0.514  0.0637  0.4891 -0.1698
11709TIP3    H156618   2.040   4.321   0.440  0.1379 -1.1863  1.0408
11709TIP3    H256619   2.032   4.323   0.591 -3.5830  0.4986  0.9373
11710TIP3   OH256620   6.152   5.734   2.451  0.1349  0.3865 -0.4414
11710TIP3    H156621   6.093   5.681   2.506  0.5532  1.1589  0.7918
11710TIP3    H256622   6.238   5.696   2.465  0.0618 -0.2660 -1.6547
11711TIP3   OH256623   1.810   4.741  10.066 -0.5649 -0.2096  0.2553
11711TIP3    H156624   1.841   4.819  10.020 -0.7207 -1.1679 -1.5798
11711TIP3    H256625   1.887   4.685  10.072 -0.8495 -0.6390 -0.0581
11712TIP3   OH256626   3.983   2.233   3.276 -0.1850 -0.0321 -0.2010
11712TIP3    H156627   3.993   2.252   3.183 -0.7777  0.3951 -0.1899
11712TIP3    H256628   3.948   2.315   3.313 -0.5875 -0.4119  0.2713
11713TIP3   OH256629   4.392   2.397   1.965  0.5642 -0.7147  0.2897
11713TIP3    H156630   4.404   2.409   1.870 -0.0577 -1.3329  0.1223
11713TIP3    H256631   4.401   2.485   2.002  3.0743 -0.7320 -0.0625
11714TIP3   OH256632   4.081   3.317  14.098  0.3877  0.0758  0.1617
11714TIP3    H156633   4.103   3.225  14.110 -1.3249 -0.1973  1.6181
11714TIP3    H256634   4.006   3.332  14.156 -1.8183  1.4516 -2.7427
11715TIP3   OH256635   1.710   6.348  14.661  0.0314  0.1391 -0.1318
11715TIP3    H156636   1.678   6.292  14.732 -2.3282  1.4199 -0.0855
11715TIP3    H256637   1.784   6.300  14.624  0.9376 -0.8846  2.7237
11716TIP3   OH256638   0.124   3.329   0.924  0.1882 -0.7358 -0.4825
11716TIP3    H156639   0.152   3.247   0.883  0.2084 -0.5312 -0.8806
11716TIP3    H256640   0.059   3.365   0.864 -0.7318 -1.0578  0.2842
11717TIP3   OH256641   5.570   1.342   0.754 -0.2870  0.7325 -0.1755
11717TIP3    H156642   5.506   1.355   0.824  1.2823 -0.3319  1.5545
11717TIP3    H256643   5.622   1.422   0.754 -0.1211  0.6277  0.0830
11718TIP3   OH256644   1.463   5.790  12.401 -0.5487 -0.0034  0.0449
11718TIP3    H156645   1.447   5.880  12.430 -1.0360 -0.3302  0.8299
11718TIP3    H256646   1.525   5.756  12.465 -1.4911 -0.6806  0.6154
11719TIP3   OH256647   0.048   4.389   0.385 -0.0396  0.3162 -0.5506
11719TIP3    H156648   0.104   4.312   0.380  1.0449  0.9094  1.4282
11719TIP3    H256649  -0.034   4.357   0.424  0.2224  0.0631 -0.2011
11720TIP3   OH256650   1.823   4.128   1.026 -0.1790 -0.3379  0.2801
11720TIP3    H156651   1.755   4.189   1.055 -1.0484 -1.0654 -0.1588
11720TIP3    H256652   1.793   4.042   1.055  0.0554 -0.7962 -0.7582
11721TIP3   OH256653   1.136   0.561  12.503  0.6732  0.3311 -0.1450
11721TIP3    H156654   1.173   0.502  12.437 -1.3990  0.8066 -1.8298
11721TIP3    H256655   1.117   0.504  12.577  0.4266 -0.7989 -1.0437
11722TIP3   OH256656   1.262   2.538  15.480  0.0644 -0.1648 -0.5061
11722TIP3    H156657   1.200   2.570  15.414  1.7846  0.8639 -1.7051
11722TIP3    H256658   1.266   2.443  15.465  0.5782  0.0726 -2.0626
11723TIP3   OH256659   3.127   4.073  11.565 -0.1059  0.1728  0.5186
11723TIP3    H156660   3.036   4.101  11.555  0.0463  0.5848  0.2606
11723TIP3    H256661   3.147   4.090  11.657  0.1256  1.3833  0.2724
11724TIP3   OH256662   6.355   3.368  12.125  0.3338  0.1667 -0.0181
11724TIP3    H156663   6.321   3.457  12.124  0.8450  0.3638 -0.7208
11724TIP3    H256664   6.281   3.314  12.151  0.2064  0.8657  1.1323
11725TIP3   OH256665   1.860   3.646  11.432  0.0143 -0.3417  0.2351
11725TIP3    H156666   1.787   3.708  11.434 -0.7290 -1.2052  0.7970
11725TIP3    H256667   1.827   3.568  11.476  0.2767 -1.8615 -2.0675
11726TIP3   OH256668   2.055   4.917  13.302  0.4005 -0.0202  0.2230
11726TIP3    H156669   2.025   5.007  13.291 -0.0467 -0.1674  0.2013
11726TIP3    H256670   2.018   4.891  13.387  0.6360 -0.1411  0.2880
11727TIP3   OH256671   2.944   0.488  16.283 -0.3617  0.1819  0.3502
11727TIP3    H156672   3.017   0.428  16.296  0.8431  1.1863 -1.3047
11727TIP3    H256673   2.865   0.434  16.292  0.4830 -0.7375  3.1737
11728TIP3   OH256674   1.549   5.654  13.515 -0.2916 -0.1913 -0.0194
11728TIP3    H156675   1.618   5.643  13.581  0.0819  1.0084 -0.1734
11728TIP3    H256676   1.474   5.686  13.565 -0.4649 -0.6763  0.0289
11729TIP3   OH256677   0.007   1.433   0.332 -0.1041 -0.0945  0.1608
11729TIP3    H156678   0.085   1.462   0.283 -0.6575  0.5719 -0.3494
11729TIP3    H256679  -0.065   1.481   0.292 -0.9701 -1.6715 -0.2328
11730TIP3   OH256680   6.158   4.165   4.138 -0.0475 -0.2467 -0.0114
11730TIP3    H156681   6.228   4.230   4.131 -0.7131  0.6440  1.2552
11730TIP3    H256682   6.134   4.147   4.047  2.2711 -1.1082 -0.5186
11731TIP3   OH256683   3.306   5.921   5.097  0.7847  0.1816 -0.1497
11731TIP3    H156684   3.223   5.874   5.091  0.4713  0.4357  1.6079
11731TIP3    H256685   3.281   6.014   5.101  0.9652  0.2044  2.0298
11732TIP3   OH256686   5.990   4.992   1.892 -0.4613 -0.4705  0.5530
11732TIP3    H156687   6.000   5.041   1.973 -0.0387  0.5743 -0.1019
11732TIP3    H256688   5.896   4.981   1.881 -0.4990 -1.3264  1.5730
11733TIP3   OH256689   5.349   4.376   5.133 -0.0738 -0.3329  0.3033
11733TIP3    H156690   5.319   4.383   5.043  1.0558 -1.3944 -0.1882
11733TIP3    H256691   5.280   4.327   5.178 -0.8623  0.6075  0.1514
11734TIP3   OH256692   3.358   1.352  14.678  0.4041 -0.1513 -0.1187
11734TIP3    H156693   3.446   1.322  14.703  0.5403 -1.7813 -2.2832
11734TIP3    H256694   3.299   1.283  14.711 -0.0596  0.7483  0.9968
11735TIP3   OH256695   5.937   3.218  16.346 -0.4369  0.1552 -0.4511
11735TIP3    H156696   5.962   3.302  16.385  1.0150  0.4502 -1.9278
11735TIP3    H256697   5.932   3.236  16.252 -1.4390 -1.1142 -0.6677
11736TIP3   OH256698   5.266   3.323  12.045 -0.4637 -0.4459  0.2496
11736TIP3    H156699   5.215   3.396  12.010  1.2695  0.6694 -0.0398
11736TIP3    H256700   5.238   3.316  12.137  0.7659  1.9433  0.8741
11737TIP3   OH256701   0.206   0.729   5.050  0.1222 -0.6075 -0.0298
11737TIP3    H156702   0.234   0.752   4.961  0.3339 -1.2274 -0.1324
11737TIP3    H256703   0.111   0.720   5.044  0.0342  0.2182  0.0146
11738TIP3   OH256704   3.140   1.392   2.350 -0.1295 -0.4696 -0.5557
11738TIP3    H156705   3.124   1.487   2.356  0.2138 -0.2874 -2.0018
11738TIP3    H256706   3.143   1.375   2.256  4.4229 -1.0935 -0.5108
11739TIP3   OH256707   4.416   4.387  11.699 -0.1479 -0.0956  0.1088
11739TIP3    H156708   4.385   4.477  11.702 -0.9876 -0.3582 -0.5650
11739TIP3    H256709   4.510   4.394  11.718  0.0791  1.0678 -1.2634
11740TIP3   OH256710   5.680   3.912   2.182  0.4645  0.1430 -0.6110
11740TIP3    H156711   5.609   3.853   2.208 -0.1925  0.1323 -2.3280
11740TIP3    H256712   5.728   3.865   2.114  2.8196 -0.2804  1.2265
11741TIP3   OH256713   0.775   5.730   5.072 -0.6598 -0.0462 -0.0581
11741TIP3    H156714   0.836   5.714   5.144 -0.8645  1.3831  0.4576
11741TIP3    H256715   0.688   5.720   5.112 -0.7934  1.7742  0.1868
11742TIP3   OH256716   4.538   3.939  13.809 -0.4043 -0.3382  0.5811
11742TIP3    H156717   4.523   3.882  13.885 -0.2694  1.2114  1.8165
11742TIP3    H256718   4.457   3.989  13.801  0.0635  0.4154  0.5165
11743TIP3   OH256719   0.522   4.253   1.919  0.0386 -0.4531  0.7095
11743TIP3    H156720   0.487   4.167   1.895 -0.7389  0.2945 -1.0560
11743TIP3    H256721   0.585   4.235   1.989 -0.6488 -2.3567  0.9011
11744TIP3   OH256722   6.578   5.563  14.432  0.0655 -0.0823  0.1948
11744TIP3    H156723   6.518   5.636  14.416 -0.8879 -0.7233  0.7611
11744TIP3    H256724   6.660   5.606  14.457 -0.4591  0.7995  0.4771
11745TIP3   OH256725   0.714   5.623  11.909  0.1000 -0.1388  0.1722
11745TIP3    H156726   0.672   5.679  11.844  1.5202 -0.3985 -1.0115
11745TIP3    H256727   0.643   5.571  11.946 -0.8913  0.8034 -0.3724
11746TIP3   OH256728   5.710   5.324  11.868 -0.0675  0.1965  0.0197
11746TIP3    H156729   5.675   5.237  11.846 -0.5513  0.3351  0.2194
11746TIP3    H256730   5.800   5.307  11.896 -0.0687 -0.2078 -0.2129
11747TIP3   OH256731   3.470   3.259  14.920 -0.3866  0.5150 -0.1291
11747TIP3    H156732   3.445   3.288  15.008  0.2931  0.0710  0.2189
11747TIP3    H256733   3.522   3.331  14.885  2.7605 -0.8153  1.3814
11748TIP3   OH256734   5.569   4.189  11.563 -0.1422 -0.3484 -0.7148
11748TIP3    H156735   5.602   4.169  11.651 -1.4227 -1.0151 -0.3544
11748TIP3    H256736   5.648   4.200  11.510  0.6618  0.1011  0.5133
11749TIP3   OH256737   6.727   2.377  13.810 -0.1199  0.0933 -0.2968
11749TIP3    H156738   6.646   2.330  13.791  0.1605 -0.3557 -0.4011
11749TIP3    H256739   6.766   2.393  13.724 -1.5168  2.9208 -0.4932
11750TIP3   OH256740   0.477   5.103  10.304  1.0148 -0.0819 -0.2507
11750TIP3    H156741   0.570   5.125  10.296  2.1525 -3.8777  0.4629
11750TIP3    H256742   0.455   5.126  10.394  1.0020  1.4415 -0.6082
11751TIP3   OH256743   0.507   1.289  14.098 -0.4839  0.0488 -0.0609
11751TIP3    H156744   0.509   1.209  14.150  2.7012  1.0447  1.6267
11751TIP3    H256745   0.415   1.313  14.094 -1.3493 -2.6872  0.9142
11752TIP3   OH256746   5.001   1.155  12.078 -0.4437 -0.0190 -0.1999
11752TIP3    H156747   4.941   1.222  12.110 -0.8517 -1.0489  1.2762
11752TIP3    H256748   5.086   1.180  12.114 -0.2130  0.7093 -1.2018
11753TIP3   OH256749   4.449   2.217   1.665  0.2150  0.0468 -0.0178
11753TIP3    H156750   4.515   2.266   1.715  0.6723  0.2322 -0.7778
11753TIP3    H256751   4.448   2.259   1.579 -0.0563 -0.6902 -0.3864
11754TIP3   OH256752   4.326   1.633   6.687 -0.0619  0.0453 -0.5163
11754TIP3    H156753   4.367   1.570   6.628  1.4216 -0.5077  1.0193
11754TIP3    H256754   4.265   1.582   6.739 -0.6575  0.3556 -0.8954
11755TIP3   OH256755   0.812   0.182  17.126 -0.0583 -0.3030 -0.1320
11755TIP3    H156756   0.829   0.161  17.218 -2.2680 -0.5050  0.2872
11755TIP3    H256757   0.716   0.186  17.120  0.0568  0.2083 -2.3224
11756TIP3   OH256758   1.664   5.022   0.698  0.1101 -0.4190  0.3097
11756TIP3    H156759   1.600   4.960   0.663 -1.1444  0.6307  0.6530
11756TIP3    H256760   1.726   5.036   0.626 -2.0381  1.1914 -1.3634
11757TIP3   OH256761   6.219   5.393   0.435  0.5955  0.4049  0.4634
11757TIP3    H156762   6.220   5.332   0.508 -0.0758 -0.5839 -0.3221
11757TIP3    H256763   6.157   5.461   0.461  0.2928  0.0107  0.7855
11758TIP3   OH256764   1.099   6.746   0.885  0.4067 -0.4695  0.8749
11758TIP3    H156765   1.036   6.817   0.883  0.0380 -0.7992  0.3983
11758TIP3    H256766   1.093   6.711   0.974  1.3229  0.7227  1.4278
11759TIP3   OH256767   3.312   1.708   1.808 -0.3284 -0.6845 -0.4403
11759TIP3    H156768   3.322   1.631   1.753  0.2835 -1.5591  0.8372
11759TIP3    H256769   3.363   1.776   1.763 -0.9135 -0.9918 -1.6001
11760TIP3   OH256770   5.872   2.710  15.817 -0.3183 -0.5154  0.4516
11760TIP3    H156771   5.889   2.759  15.736  0.5094 -1.4850  0.0115
11760TIP3    H256772   5.897   2.770  15.887 -0.8662  0.2746 -0.0126
11761TIP3   OH256773   1.935   0.024   2.235  0.2116  0.1127  0.2957
11761TIP3    H156774   1.846   0.047   2.263  0.8488  0.5887  2.0294
11761TIP3    H256775   1.946   0.069   2.151 -0.9398  0.5795  0.3774
11762TIP3   OH256776   3.209   4.928  14.509  0.4444  0.0421  0.4000
11762TIP3    H156777   3.230   4.847  14.462  0.3750 -0.4370  1.1796
11762TIP3    H256778   3.125   4.910  14.550  0.3927  0.5435  0.5155
11763TIP3   OH256779   6.387   1.071  12.952 -0.4749  0.2493  0.2755
11763TIP3    H156780   6.390   1.035  13.041 -4.8796 -1.7859 -0.1513
11763TIP3    H256781   6.346   1.157  12.962 -0.9706  0.0202  0.2227
11764TIP3   OH256782   4.925   3.905  11.266 -0.0917  0.3259  0.2019
11764TIP3    H156783   5.018   3.885  11.278  0.0548  1.7783  1.9104
11764TIP3    H256784   4.913   3.908  11.171  0.8180 -3.1386 -0.1540
11765TIP3   OH256785   0.550   2.333  11.453 -0.2462  0.7119  0.1819
11765TIP3    H156786   0.555   2.331  11.357 -0.0826  0.6152  0.1907
11765TIP3    H256787   0.520   2.246  11.478  1.3329  0.1589  0.2941
11766TIP3   OH256788   0.816   0.012   3.402  0.2795  0.8055 -0.6317
11766TIP3    H156789   0.812   0.006   3.497 -0.9488  0.2655 -0.6974
11766TIP3    H256790   0.767   0.091   3.380  1.0167  1.2263 -0.7946
11767TIP3   OH256791   0.038   5.796  13.808  0.3313 -0.5472 -0.2679
11767TIP3    H156792   0.036   5.783  13.903 -0.0141 -0.9759 -0.3345
11767TIP3    H256793   0.034   5.891  13.797 -1.9452 -0.5428  0.1029
11768TIP3   OH256794   0.496   5.151  15.333  0.1936  0.0061 -0.3736
11768TIP3    H156795   0.524   5.215  15.268  3.5904  0.7455  1.5879
11768TIP3    H256796   0.486   5.069  15.284  0.8227  0.9243 -2.0995
11769TIP3   OH256797   2.723   6.811  14.051  0.4745  0.6593 -0.4057
11769TIP3    H156798   2.781   6.855  13.989 -1.7030  2.9128 -1.0072
11769TIP3    H256799   2.675   6.882  14.094 -1.7577 -1.0513  0.1192
11770TIP3   OH256800   1.153   6.060   5.414  0.1929  0.0994 -0.4383
11770TIP3    H156801   1.187   5.972   5.428  1.1678  0.4444 -0.5892
11770TIP3    H256802   1.072   6.047   5.365 -1.2597 -0.8970  2.0617
11771TIP3   OH256803   2.790   4.166  13.323 -0.3040 -0.9217  0.5258
11771TIP3    H156804   2.846   4.200  13.393 -0.1330 -0.0281 -0.0314
11771TIP3    H256805   2.839   4.094  13.286 -0.0544 -0.9093  0.8251
11772TIP3   OH256806   3.007   3.479  15.739  0.0062  0.0212  0.3837
11772TIP3    H156807   3.043   3.438  15.817  1.6823 -0.0642 -0.3894
11772TIP3    H256808   3.069   3.459  15.670 -1.6727 -0.3132 -1.1140
11773TIP3   OH256809   2.364   3.467   2.916  0.4107 -0.7484  0.4092
11773TIP3    H156810   2.438   3.505   2.963  2.4603  1.5316 -4.1262
11773TIP3    H256811   2.328   3.539   2.865 -0.7963 -3.1802 -2.4403
11774TIP3   OH256812   1.719   0.080   3.439 -0.3478  0.7978 -0.2788
11774TIP3    H156813   1.663   0.003   3.450  0.3755 -0.0147 -1.9108
11774TIP3    H256814   1.665   0.141   3.390 -0.6036  0.9715  0.2117
11775TIP3   OH256815   5.763   2.133   0.556  0.4199 -0.2415  0.3331
11775TIP3    H156816   5.757   2.039   0.572  1.1310 -0.0826  1.6420
11775TIP3    H256817   5.728   2.173   0.636  2.6936  0.6025  0.9690
11776TIP3   OH256818   1.706   0.116   5.948  0.2460  0.3430  0.1424
11776TIP3    H156819   1.765   0.102   5.873  1.4044  0.6685  0.9565
11776TIP3    H256820   1.750   0.073   6.021 -0.4937  0.6846  0.7980
11777TIP3   OH256821   0.872   1.936  15.648  0.4260 -0.2008  0.2761
11777TIP3    H156822   0.787   1.979  15.643  0.6437  0.1676 -0.3328
11777TIP3    H256823   0.891   1.910  15.558  0.4727 -1.2409  0.5765
11778TIP3   OH256824   1.001   6.591   1.414  0.0223  0.5650 -0.5437
11778TIP3    H156825   1.055   6.529   1.463  2.1783  1.3194 -1.8310
11778TIP3    H256826   0.985   6.663   1.476  2.0439  1.1406 -0.6293
11779TIP3   OH256827   2.347   1.917  15.226  0.3251  0.1320  0.1606
11779TIP3    H156828   2.403   1.890  15.299 -0.6458 -1.4484  0.3561
11779TIP3    H256829   2.402   1.904  15.149  1.0178  0.8568  0.5184
11780TIP3   OH256830   3.490   0.590  11.753 -0.2047  0.6518 -0.7845
11780TIP3    H156831   3.524   0.539  11.827 -0.9892  2.0995  0.6258
11780TIP3    H256832   3.424   0.648  11.792 -0.1418  1.9498 -2.5072
11781TIP3   OH256833   6.099   3.248  16.608 -0.0223 -0.0578  0.5003
11781TIP3    H156834   6.077   3.157  16.627  1.1047 -0.6463 -0.8702
11781TIP3    H256835   6.040   3.299  16.663 -1.1778 -1.6046  0.7443
11782TIP3   OH256836   1.536   4.240   0.875 -0.0538 -0.3859 -0.0701
11782TIP3    H156837   1.442   4.255   0.878 -0.2269 -1.2163 -0.9037
11782TIP3    H256838   1.548   4.156   0.919  0.1038 -1.0255 -1.2866
11783TIP3   OH256839   1.194   4.009  14.128  0.1886 -0.4261  0.5484
11783TIP3    H156840   1.116   3.962  14.097  0.8402 -1.2068  0.0461
11783TIP3    H256841   1.251   3.940  14.164  0.5432  0.1644  1.1553
11784TIP3   OH256842   6.001   4.925   1.546 -0.4127  0.5755 -0.1146
11784TIP3    H156843   6.070   4.915   1.611  0.7777  0.9213 -1.2851
11784TIP3    H256844   5.948   4.998   1.579  0.5384  1.1631  0.1680
11785TIP3   OH256845   6.624   6.837   1.792 -0.0355  0.3152  0.0709
11785TIP3    H156846   6.661   6.762   1.746 -0.7825  0.8069 -1.3897
11785TIP3    H256847   6.698   6.896   1.806  0.4275 -0.3855  0.6247
11786TIP3   OH256848   1.341   3.920  15.374  0.0024  0.1140 -0.4307
11786TIP3    H156849   1.301   3.839  15.345 -0.0294 -0.2272  0.5432
11786TIP3    H256850   1.386   3.898  15.455 -2.7898  1.7318  1.7560
11787TIP3   OH256851   0.952   3.861   3.899  0.6767 -0.3935  0.1429
11787TIP3    H156852   1.017   3.899   3.840  1.0811 -1.0162  0.1772
11787TIP3    H256853   0.981   3.887   3.986  1.6765 -1.7820  0.2712
11788TIP3   OH256854   3.622   4.716  11.854 -0.6937  0.1688  0.2477
11788TIP3    H156855   3.690   4.716  11.788 -0.7225 -0.0227  0.2155
11788TIP3    H256856   3.566   4.791  11.832 -1.6315 -0.8269 -0.9181
11789TIP3   OH256857   2.279   1.953  14.579 -0.0841  0.0963  0.7396
11789TIP3    H156858   2.369   1.986  14.582 -0.4824  1.2302  0.6395
11789TIP3    H256859   2.270   1.901  14.659  0.1477  1.3866  1.6480
11790TIP3   OH256860   4.009   6.020  15.606  0.1680  0.1136 -0.6392
11790TIP3    H156861   3.936   6.057  15.557 -1.0817 -0.0840  1.0173
11790TIP3    H256862   4.031   6.087  15.671 -1.3669 -1.4806  1.6363
11791TIP3   OH256863   0.671   0.572   0.767  0.9803  0.1717  0.0284
11791TIP3    H156864   0.600   0.634   0.783 -1.7149 -2.2424 -1.6602
11791TIP3    H256865   0.691   0.536   0.853  0.6941  1.3846  0.6330
11792TIP3   OH256866   0.638   5.167  12.466 -0.0154  0.3015 -0.1870
11792TIP3    H156867   0.594   5.245  12.433 -0.4104 -0.3534 -1.2534
11792TIP3    H256868   0.732   5.188  12.459  0.0158  2.2609  3.4317
11793TIP3   OH256869   5.327   3.759   1.876  0.6781 -0.2479  0.0693
11793TIP3    H156870   5.379   3.837   1.857  1.0790 -0.6320 -0.4286
11793TIP3    H256871   5.236   3.789   1.876  0.7830  0.0783 -0.8395
11794TIP3   OH256872   1.178   2.404   4.303 -0.2318 -0.3653  0.1571
11794TIP3    H156873   1.175   2.349   4.224 -2.2928 -1.8139  1.1499
11794TIP3    H256874   1.230   2.353   4.365 -1.9381 -1.1654  0.9979
11795TIP3   OH256875   5.659   4.940  17.031 -0.0052 -0.7463  0.2020
11795TIP3    H156876   5.708   5.015  17.065 -0.9958 -0.8983  2.1060
11795TIP3    H256877   5.636   4.965  16.942 -0.2959  1.2249  0.7864
11796TIP3   OH256878   5.487   4.857  12.607 -0.0606 -0.4705 -0.3375
11796TIP3    H156879   5.525   4.839  12.693 -1.7954 -0.1833  0.5442
11796TIP3    H256880   5.502   4.777  12.557 -2.6748 -2.3677  1.6377
11797TIP3   OH256881   5.876   4.025  13.263  0.2032 -0.4634  0.0469
11797TIP3    H156882   5.848   3.947  13.312 -0.1981 -0.9338 -0.9079
11797TIP3    H256883   5.855   4.005  13.172  1.6480  0.0766 -0.4327
11798TIP3   OH256884   4.655   5.026   3.594  0.2090 -0.4905  0.2398
11798TIP3    H156885   4.634   5.056   3.682 -1.3665 -0.3112 -0.1785
11798TIP3    H256886   4.641   4.931   3.597  1.6766 -0.7348  0.5687
11799TIP3   OH256887   1.122   2.096  14.695 -0.0938  0.5107 -0.0519
11799TIP3    H156888   1.062   2.047  14.752 -0.3652 -0.7698 -1.3884
11799TIP3    H256889   1.162   2.160  14.754 -1.6572  0.4180  1.2003
11800TIP3   OH256890   5.250   1.073  15.375  0.3161  0.8421  0.1965
11800TIP3    H156891   5.291   1.096  15.459  0.1766  0.8206  0.2709
11800TIP3    H256892   5.323   1.073  15.312  0.3674  1.1739  0.2556
11801TIP3   OH256893   4.941   6.357   3.296  0.2275 -0.0637 -0.1557
11801TIP3    H156894   4.854   6.318   3.286 -1.4734  2.8747  1.6702
11801TIP3    H256895   4.933   6.444   3.257  2.6506  0.0071 -0.6568
11802TIP3   OH256896   1.732   5.013  13.783  0.1481 -0.1019  0.7467
11802TIP3    H156897   1.776   4.957  13.719  0.7173 -0.1008  1.1364
11802TIP3    H256898   1.796   5.081  13.804  0.0040 -0.1584  1.3926
11803TIP3   OH256899   6.147   3.516   5.098 -0.2446  0.3199 -0.3490
11803TIP3    H156900   6.167   3.564   5.178 -2.5559 -1.0452  1.1739
11803TIP3    H256901   6.084   3.571   5.052 -0.2844  0.2982 -0.3207
11804TIP3   OH256902   3.048   5.626   1.715 -0.0198  0.0828  0.3322
11804TIP3    H156903   3.004   5.557   1.664 -0.4871 -0.0461  0.8914
11804TIP3    H256904   3.118   5.580   1.762  0.3911  0.1961 -0.1584
11805TIP3   OH256905   2.609   5.162   0.386 -0.4931  0.0527 -0.1930
11805TIP3    H156906   2.647   5.099   0.324 -0.4249  0.3348 -0.4358
11805TIP3    H256907   2.656   5.147   0.468  0.9198  1.1556 -0.7706
11806TIP3   OH256908   2.168   5.889   0.040 -0.0912 -0.0193  0.2036
11806TIP3    H156909   2.242   5.946   0.018  0.8878 -0.6671  1.7126
11806TIP3    H256910   2.208   5.808   0.069 -1.3938 -0.3077  1.2701
11807TIP3   OH256911   0.661   3.751   5.206 -0.0828  0.5882 -0.1511
11807TIP3    H156912   0.742   3.777   5.162 -0.2078  0.5933 -0.3783
11807TIP3    H256913   0.648   3.659   5.181 -1.0293  1.0569 -1.4629
11808TIP3   OH256914   0.143   3.245   3.085 -0.4202 -0.4749  0.2463
11808TIP3    H156915   0.175   3.332   3.110  2.5468 -1.1170 -0.8839
11808TIP3    H256916   0.153   3.193   3.165  1.8548 -0.7130 -0.1192
11809TIP3   OH256917   3.169   3.394   2.891 -1.0101 -0.5240 -0.2316
11809TIP3    H156918   3.206   3.433   2.970  0.5940 -0.0936 -1.1717
11809TIP3    H256919   3.089   3.444   2.876 -0.9011 -0.0583  0.6369
11810TIP3   OH256920   4.909   4.356   2.899 -0.1179 -0.0617  0.0314
11810TIP3    H156921   4.907   4.451   2.908  2.5410  0.0177  0.5022
11810TIP3    H256922   4.821   4.328   2.926 -0.5005  2.1526  1.3486
11811TIP3   OH256923   6.786   2.088   2.914  0.0599  0.1483  0.0741
11811TIP3    H156924   6.712   2.121   2.864 -0.8044 -0.6453  0.8035
11811TIP3    H256925   6.827   2.166   2.950 -1.0498  0.5444  0.5248
11812TIP3   OH256926   5.511   4.633   4.242  0.0286  0.5738  0.2822
11812TIP3    H156927   5.595   4.647   4.198 -0.7089 -0.7669 -1.7384
11812TIP3    H256928   5.479   4.721   4.261  1.1676  1.1613 -0.4097
11813TIP3   OH256929   2.408   6.457  13.888  0.3858  0.1955 -0.4381
11813TIP3    H156930   2.331   6.401  13.897  1.0833 -0.8577 -0.8112
11813TIP3    H256931   2.465   6.410  13.827  1.2544  1.0408 -0.3073
11814TIP3   OH256932   4.053   6.173  16.739  0.0043 -0.3324 -0.1769
11814TIP3    H156933   4.112   6.113  16.784  0.2149 -1.1387 -1.4542
11814TIP3    H256934   4.066   6.257  16.782  0.0943 -1.0688  1.3110
11815TIP3   OH256935   3.470   3.594   1.272 -0.3618  0.3241  0.1209
11815TIP3    H156936   3.525   3.672   1.274 -2.6369  2.0698 -0.3754
11815TIP3    H256937   3.454   3.579   1.179  0.9252 -1.4672  0.1424
11816TIP3   OH256938   2.164   1.185   4.478 -0.0790  0.3170  0.1681
11816TIP3    H156939   2.132   1.185   4.387 -1.0224 -1.9012  0.4478
11816TIP3    H256940   2.142   1.098   4.511 -1.2648  1.5821  3.0563
11817TIP3   OH256941   5.949   2.720  15.060 -0.2803  0.6639 -0.4203
11817TIP3    H156942   6.037   2.755  15.044  0.5515 -1.4107 -0.7352
11817TIP3    H256943   5.917   2.769  15.136  1.2349  1.3057 -0.1588
11818TIP3   OH256944   4.139   3.742  13.576  0.1440  0.3631 -0.0635
11818TIP3    H156945   4.112   3.655  13.607  0.7960 -0.2893 -1.2406
11818TIP3    H256946   4.216   3.725  13.521 -0.4311  1.5470 -1.2916
11819TIP3   OH256947   1.869   5.895   3.361 -0.3453  0.6419  0.0225
11819TIP3    H156948   1.931   5.898   3.288 -0.7797  1.8115 -0.3206
11819TIP3    H256949   1.923   5.877   3.438  0.2467  0.3789 -0.4463
11820TIP3   OH256950   4.096   4.579   4.067 -0.0022 -0.0337  0.0812
11820TIP3    H156951   4.078   4.622   4.150 -1.0347  0.4444 -0.3700
11820TIP3    H256952   4.042   4.500   4.068  1.9659 -1.4800  0.9543
11821TIP3   OH256953   4.717   4.121  14.496  0.5508 -0.0032  0.3155
11821TIP3    H156954   4.647   4.167  14.449  0.5936  0.3000  0.5496
11821TIP3    H256955   4.688   4.121  14.587  0.4811 -0.5708  0.2939
11822TIP3   OH256956   2.339   4.475  14.209  0.5226  0.0967 -1.0837
11822TIP3    H156957   2.277   4.411  14.175 -0.7170  0.7199 -0.0992
11822TIP3    H256958   2.324   4.554  14.157  0.7612  0.1282 -1.1055
11823TIP3   OH256959   0.835   5.117  14.688  0.3679 -0.4961 -0.0224
11823TIP3    H156960   0.779   5.052  14.730  0.8313 -0.3402  0.8490
11823TIP3    H256961   0.857   5.179  14.758  0.0131  0.5517 -0.8113
11824TIP3   OH256962   1.299   4.203  10.585  0.1915 -0.2559  0.8365
11824TIP3    H156963   1.219   4.152  10.595  0.2129 -0.5572 -0.4102
11824TIP3    H256964   1.309   4.214  10.490  1.5841 -0.1580  0.9773
11825TIP3   OH256965   4.845   4.749   0.834 -0.6416  0.2985 -0.5721
11825TIP3    H156966   4.754   4.771   0.853  0.1358  2.4639  1.1579
11825TIP3    H256967   4.891   4.764   0.917  1.3455 -0.5170 -1.4442
11826TIP3   OH256968   4.046   1.685  13.975  0.5077 -0.2889 -0.2196
11826TIP3    H156969   3.972   1.702  14.033 -0.4225  0.0912 -1.4756
11826TIP3    H256970   4.046   1.590  13.964  0.2561 -0.2950 -0.1695
11827TIP3   OH256971   2.696   2.788   0.065  0.1168  0.0225 -0.1994
11827TIP3    H156972   2.622   2.760   0.119 -0.1146  1.3529  0.2056
11827TIP3    H256973   2.761   2.821   0.128 -0.1582  1.5998 -0.6885
11828TIP3   OH256974   2.807   0.911   2.816 -0.3822 -0.7330 -0.6311
11828TIP3    H156975   2.879   0.864   2.776 -0.5435 -0.8932 -0.7346
11828TIP3    H256976   2.729   0.860   2.793 -0.4792 -0.8056 -0.1538
11829TIP3   OH256977   4.543   2.005   4.863  0.0463 -0.0221 -0.1159
11829TIP3    H156978   4.636   2.006   4.842 -0.2575 -0.5088 -1.6504
11829TIP3    H256979   4.530   2.078   4.922  1.5746 -0.5580  0.9356
11830TIP3   OH256980   5.016   2.576   6.051 -0.0408  0.3112  0.7410
11830TIP3    H156981   4.968   2.653   6.082 -0.5377  0.3879 -0.1980
11830TIP3    H256982   5.107   2.594   6.075 -0.2595  0.8453  1.2093
11831TIP3   OH256983   4.472   0.529  12.594  0.1566  0.4833  0.1536
11831TIP3    H156984   4.377   0.525  12.602  0.1361 -3.2148 -0.5609
11831TIP3    H256985   4.505   0.504  12.680  0.4718  0.4133  0.0156
11832TIP3   OH256986   3.672   5.761  13.230 -0.4551 -0.1947  0.3230
11832TIP3    H156987   3.610   5.786  13.299  0.7074  0.8199  1.0425
11832TIP3    H256988   3.654   5.823  13.159 -0.1853  0.2061  0.5939
11833TIP3   OH256989   3.783   1.723  13.472  0.7034 -0.4087  0.5462
11833TIP3    H156990   3.755   1.649  13.526  0.5003 -1.3363 -0.7661
11833TIP3    H256991   3.757   1.800  13.522 -0.7168 -1.2276  1.1528
11834TIP3   OH256992   4.169   5.084  11.139 -0.1766 -0.4492 -0.0615
11834TIP3    H156993   4.206   5.080  11.227  0.7027 -0.2070 -0.4101
11834TIP3    H256994   4.131   5.172  11.133  0.4277 -0.1951 -0.1818
11835TIP3   OH256995   3.895   3.883  16.828  0.0092 -0.1162 -0.2916
11835TIP3    H156996   3.988   3.893  16.848  0.0871  0.6800 -0.9965
11835TIP3    H256997   3.856   3.968  16.849 -0.0988  0.3953 -2.3194
11836TIP3   OH256998   5.309   0.097   4.541 -0.0838 -0.2943  0.0563
11836TIP3    H156999   5.361   0.152   4.599  0.5253 -0.3786 -0.4003
11836TIP3    H257000   5.225   0.087   4.586  0.4976 -0.6668  1.0953
11837TIP3   OH257001   2.393   3.660   5.465 -0.2433 -0.1866  0.2754
11837TIP3    H157002   2.473   3.633   5.418 -0.8129 -0.1680 -0.7294
11837TIP3    H257003   2.410   3.635   5.556  1.1503  0.3451  0.2015
11838TIP3   OH257004   1.006   4.780   3.267  0.0285  0.6797  0.5578
11838TIP3    H157005   0.980   4.855   3.320 -1.8193  1.7069 -1.6146
11838TIP3    H257006   0.928   4.724   3.265  1.1748 -1.0645  1.6237
11839TIP3   OH257007   5.262   3.685  14.452  0.1882 -0.0180 -0.1611
11839TIP3    H157008   5.329   3.677  14.384  0.5313 -0.4636  0.2145
11839TIP3    H257009   5.210   3.761  14.426  0.7580  0.2580 -0.5330
11840TIP3   OH257010   3.869   0.038  15.104 -0.0676  0.0846 -0.0647
11840TIP3    H157011   3.953   0.040  15.151 -1.0201 -0.2933  1.7574
11840TIP3    H257012   3.871   0.115  15.047  1.5659 -0.0044 -0.1700
11841TIP3   OH257013   3.517   0.437  16.286  0.0857  0.0009 -0.1959
11841TIP3    H157014   3.468   0.372  16.236 -1.5980  2.8279 -2.5697
11841TIP3    H257015   3.450   0.497  16.319  1.5347  0.4906  2.1177
11842TIP3   OH257016   5.546   1.673  11.637 -0.1721 -0.4632 -0.1381
11842TIP3    H157017   5.636   1.649  11.612 -0.4145 -0.0476 -1.5201
11842TIP3    H257018   5.512   1.595  11.680  1.2662 -0.1735  1.6295
11843TIP3   OH257019   2.322   4.331   4.597  0.3609  0.1432  0.0915
11843TIP3    H157020   2.318   4.389   4.521 -1.6529  2.1648  1.6039
11843TIP3    H257021   2.405   4.353   4.639  0.5033  0.5358 -0.3822
11844TIP3   OH257022   1.667   6.127   2.765  0.0478  0.1847  0.3453
11844TIP3    H157023   1.660   6.222   2.758  1.5749  0.5439  2.5350
11844TIP3    H257024   1.721   6.101   2.691 -2.0796  0.6808 -1.4854
11845TIP3   OH257025   4.051   0.954  15.338 -0.2306  0.0603 -0.1318
11845TIP3    H157026   4.125   0.894  15.328  0.3392  0.6139  0.6121
11845TIP3    H257027   3.992   0.909  15.398 -0.0720 -0.0025 -0.0219
11846TIP3   OH257028   0.824   3.525  15.415  0.5907  0.7242 -0.2917
11846TIP3    H157029   0.916   3.540  15.436  0.7152  0.3082 -0.5368
11846TIP3    H257030   0.797   3.455  15.474 -0.1057  2.1435  1.1444
11847TIP3   OH257031   6.524   3.517   0.156 -0.0613 -0.4851  0.2780
11847TIP3    H157032   6.607   3.469   0.158 -0.8356 -1.9039  0.1689
11847TIP3    H257033   6.462   3.458   0.200 -0.8108  0.9675  1.2237
11848TIP3   OH257034   4.208   2.865  15.512 -0.3510 -0.1257 -0.7036
11848TIP3    H157035   4.292   2.842  15.472 -0.3564 -1.3296 -0.0722
11848TIP3    H257036   4.231   2.885  15.603 -0.5805  0.7984 -0.8461
11849TIP3   OH257037   5.468   6.291  11.766 -0.7493 -0.2864  0.4723
11849TIP3    H157038   5.452   6.380  11.736 -0.7084 -0.1359  0.9017
11849TIP3    H257039   5.487   6.242  11.686  2.1782  0.6901  0.4688
11850TIP3   OH257040   0.187   0.613  13.649 -0.0940 -0.2448  0.0063
11850TIP3    H157041   0.092   0.627  13.644  0.0960  0.7836 -1.9820
11850TIP3    H257042   0.210   0.638  13.738 -1.6779 -0.4700  0.5161
11851TIP3   OH257043   2.170   4.155   6.069 -0.0346  0.4277  0.3239
11851TIP3    H157044   2.208   4.221   6.011 -1.2329 -0.1245 -1.1688
11851TIP3    H257045   2.086   4.191   6.095  0.0274  0.1974  0.8509
11852TIP3   OH257046   3.890   0.397   5.503  0.6447  0.3396 -0.2143
11852TIP3    H157047   3.911   0.452   5.578 -2.7458  1.5377  0.0497
11852TIP3    H257048   3.882   0.457   5.429 -1.3881  0.0483 -0.2989
11853TIP3   OH257049   3.405   5.886  11.738  0.5396  0.0039  0.0538
11853TIP3    H157050   3.411   5.980  11.720 -1.6309 -0.1035 -1.6951
11853TIP3    H257051   3.315   5.873  11.766  0.1713 -1.8275 -1.7885
11854TIP3   OH257052   2.743   4.709   2.026  0.2625  0.2153 -0.2514
11854TIP3    H157053   2.680   4.777   2.004 -0.4026  0.0756  1.1194
11854TIP3    H257054   2.753   4.715   2.121  0.4108 -1.3943 -0.1351
11855TIP3   OH257055   5.399   2.497  14.043 -0.1179  0.2171  0.2074
11855TIP3    H157056   5.458   2.501  14.119  1.2989  0.3263 -0.8464
11855TIP3    H257057   5.450   2.452  13.976 -0.3941  2.2358 -1.4515
11856TIP3   OH257058   5.330   5.619   4.098  0.7320 -0.2572  0.3031
11856TIP3    H157059   5.276   5.662   4.033  1.1012 -0.8714 -0.4333
11856TIP3    H257060   5.281   5.626   4.180  0.3222  0.6385 -0.0132
11857TIP3   OH257061   3.273   4.209   4.337  0.1660  0.2228  0.2310
11857TIP3    H157062   3.246   4.208   4.245  0.4112  1.0508  0.1428
11857TIP3    H257063   3.249   4.123   4.370 -2.0351  0.6900  0.0001
11858TIP3   OH257064   2.040   6.109  12.414  0.0250 -0.1501  0.5118
11858TIP3    H157065   2.077   6.086  12.499  1.2480 -2.3519 -0.5225
11858TIP3    H257066   1.962   6.055  12.406 -0.1694  0.1579  0.2996
11859TIP3   OH257067   6.817   5.584   1.981 -0.0629 -0.0241 -0.0953
11859TIP3    H157068   6.797   5.582   1.887 -1.4473  0.6548  0.1627
11859TIP3    H257069   6.870   5.663   1.991  2.3221 -1.4670 -0.6759
11860TIP3   OH257070   3.290   2.442   5.566 -0.7613 -0.2737 -0.4104
11860TIP3    H157071   3.289   2.378   5.637 -1.5154  0.6688  0.4620
11860TIP3    H257072   3.380   2.472   5.561 -0.6960 -0.3834  0.1126
11861TIP3   OH257073   6.834   6.615  12.786 -0.0867  0.1269  0.4520
11861TIP3    H157074   6.782   6.658  12.718 -0.5005 -2.3352 -0.8924
11861TIP3    H257075   6.802   6.652  12.868  0.5722  3.3466 -0.5873
11862TIP3   OH257076   0.762   6.758   2.719  0.1588 -0.0715 -0.6019
11862TIP3    H157077   0.778   6.679   2.772  0.6123  0.5988  0.3038
11862TIP3    H257078   0.667   6.771   2.723 -0.0015 -0.9585 -1.3435
11863TIP3   OH257079   3.184   3.435   3.161 -0.1394 -0.0505 -0.0477
11863TIP3    H157080   3.148   3.360   3.209 -1.7499 -1.5557 -3.2310
11863TIP3    H257081   3.184   3.507   3.223 -3.8875 -1.3083  1.6743
11864TIP3   OH257082   0.656   6.843  14.974  0.2388 -0.0643 -0.3578
11864TIP3    H157083   0.680   6.894  14.897  1.0205  0.0757 -0.0282
11864TIP3    H257084   0.605   6.770  14.940  0.4431  0.0829 -0.9857
11865TIP3   OH257085   2.024   6.425  11.141 -0.0101 -0.0459 -0.3398
11865TIP3    H157086   2.043   6.418  11.048 -1.2692 -0.9453 -0.5708
11865TIP3    H257087   1.959   6.355  11.157 -0.3756  0.5728  1.0390
11866TIP3   OH257088   4.634   0.120  13.879  0.2310 -0.4308 -0.2818
11866TIP3    H157089   4.627   0.203  13.832 -2.3216  0.4251  1.3983
11866TIP3    H257090   4.566   0.065  13.841  1.4553 -1.5685 -0.9119
11867TIP3   OH257091   4.759   5.017   0.486  0.1455 -0.2413  0.4695
11867TIP3    H157092   4.832   4.978   0.534  0.0468  0.8059  1.5145
11867TIP3    H257093   4.789   5.022   0.395  0.1745 -2.6471  0.2917
11868TIP3   OH257094   5.219   6.199   4.811 -0.1931  0.7561  0.5728
11868TIP3    H157095   5.280   6.269   4.831  0.7045  0.0819  0.2812
11868TIP3    H257096   5.199   6.210   4.718  0.7329  0.0583  0.2734
11869TIP3   OH257097   4.834   0.577   5.065 -0.2860  0.0908 -0.2924
11869TIP3    H157098   4.792   0.655   5.028 -0.6627  0.4097  0.7709
11869TIP3    H257099   4.863   0.604   5.152  1.0591 -0.4946 -0.5445
11870TIP3   OH257100   0.400   6.550   3.148 -0.1172 -0.2506 -0.1475
11870TIP3    H157101   0.453   6.582   3.221  1.4360 -0.8525 -0.9706
11870TIP3    H257102   0.351   6.627   3.119 -1.7000 -0.2725  2.2488
11871TIP3   OH257103   0.795   2.850   0.439 -0.2910 -0.4700 -0.1102
11871TIP3    H157104   0.838   2.781   0.489  0.9985 -0.7797 -1.5615
11871TIP3    H257105   0.807   2.929   0.491 -0.0064 -0.9753  0.6116
11872TIP3   OH257106   4.628   6.777  11.876  0.2391  0.1359 -0.6034
11872TIP3    H157107   4.677   6.857  11.896 -1.1259  1.2817 -1.6582
11872TIP3    H257108   4.550   6.783  11.930  0.7809 -1.2375  0.3949
11873TIP3   OH257109   1.026   4.034   3.242  0.2044  0.1834  0.0715
11873TIP3    H157110   1.034   4.112   3.187  0.0840  0.2616  0.1645
11873TIP3    H257111   1.064   3.963   3.189 -0.2039  0.1968 -0.2412
11874TIP3   OH257112   4.446   3.598   2.092  0.6411  0.2739 -0.0487
11874TIP3    H157113   4.471   3.570   2.180 -0.7409  2.3699  1.0893
11874TIP3    H257114   4.496   3.678   2.077 -0.6475  1.0533 -0.3027
11875TIP3   OH257115   5.444   2.305   5.282 -0.5581 -0.8599  0.4131
11875TIP3    H157116   5.526   2.255   5.283 -0.0192 -0.1524 -1.9660
11875TIP3    H257117   5.397   2.273   5.205 -0.9343  1.0911 -0.2400
11876TIP3   OH257118   2.610   1.892   1.226  0.0161 -0.0798  0.6124
11876TIP3    H157119   2.537   1.836   1.252  1.3451 -2.9842 -1.2672
11876TIP3    H257120   2.570   1.964   1.178 -1.7198 -2.5323 -1.9942
11877TIP3   OH257121   5.186   3.176  11.826  0.0161 -0.0718 -0.5999
11877TIP3    H157122   5.211   3.214  11.910 -2.2241  0.3644 -0.0798
11877TIP3    H257123   5.170   3.084  11.845  0.8387 -0.2784 -0.8635
11878TIP3   OH257124   2.831   5.500   3.323 -0.0434 -0.6108 -0.4414
11878TIP3    H157125   2.925   5.486   3.334 -0.0080  0.1557  0.4136
11878TIP3    H257126   2.791   5.415   3.341  0.4422 -0.7775 -0.1394
11879TIP3   OH257127   3.827   6.164   1.169 -0.7603  0.2797 -0.0807
11879TIP3    H157128   3.851   6.162   1.077 -0.6683  0.5461 -0.0648
11879TIP3    H257129   3.776   6.085   1.183  0.3588 -0.4696 -0.0559
11880TIP3   OH257130   2.035   5.262  12.082 -0.0672 -0.0989 -0.1875
11880TIP3    H157131   1.962   5.319  12.060  1.2061  3.3888  3.4613
11880TIP3    H257132   2.112   5.308  12.049  0.8897 -0.5536  1.3355
11881TIP3   OH257133   6.728   6.629  13.030  0.2096  0.1549 -0.3012
11881TIP3    H157134   6.680   6.546  13.025 -0.3345  0.4926 -0.8001
11881TIP3    H257135   6.759   6.633  13.121  1.1187 -1.0768 -0.5403
11882TIP3   OH257136   3.121   3.491   3.763  0.2503 -0.1501  0.2956
11882TIP3    H157137   3.070   3.507   3.684 -1.0319 -0.5063  1.0281
11882TIP3    H257138   3.129   3.395   3.767  0.9426 -0.1013  0.2204
11883TIP3   OH257139   1.833   0.135  13.431  0.4543  0.5766  0.2788
11883TIP3    H157140   1.908   0.194  13.425  1.6644 -0.4595  3.3760
11883TIP3    H257141   1.769   0.183  13.484  0.7071 -0.1558  1.2675
11884TIP3   OH257142   5.012   2.591  15.765  0.2840  0.2086 -0.1043
11884TIP3    H157143   4.954   2.524  15.800 -1.0598  1.6870  0.6302
11884TIP3    H257144   5.095   2.546  15.751 -0.5586 -1.5867  0.3607
11885TIP3   OH257145   0.350   4.511   5.267 -0.2782 -0.2960  0.3918
11885TIP3    H157146   0.349   4.513   5.363 -1.0671 -1.4035  0.4319
11885TIP3    H257147   0.279   4.570   5.241 -0.2795 -0.2496  0.4982
11886TIP3   OH257148   5.597   5.488   3.845  0.6498 -0.9058 -0.2838
11886TIP3    H157149   5.532   5.559   3.843  1.4299 -0.1243 -2.8281
11886TIP3    H257150   5.665   5.519   3.904  1.2394  0.8240 -1.7612
11887TIP3   OH257151   1.312   3.532   4.178  0.0698 -0.1042 -0.2290
11887TIP3    H157152   1.373   3.472   4.136  0.8960  1.2225 -1.0003
11887TIP3    H257153   1.241   3.543   4.115 -0.1665 -0.4014 -0.0158
11888TIP3   OH257154   6.046   6.023   2.035 -0.4886  0.1229 -0.0286
11888TIP3    H157155   6.101   6.004   1.959 -2.3293  0.8805 -1.6375
11888TIP3    H257156   6.072   5.958   2.100  2.2859  0.4674 -0.6693
11889TIP3   OH257157   5.306   2.205  15.369  0.3300  0.4037  0.3219
11889TIP3    H157158   5.389   2.244  15.397  1.2735 -0.6209 -0.8931
11889TIP3    H257159   5.332   2.121  15.329 -1.1000  0.7802 -1.5255
11890TIP3   OH257160   1.431   4.079  15.847  0.7890 -0.2585 -0.0519
11890TIP3    H157161   1.439   3.997  15.895 -2.1786  0.2193  1.5063
11890TIP3    H257162   1.498   4.074  15.779  0.7073 -3.9657 -0.0476
11891TIP3   OH257163   6.851   6.548  16.877  0.6619  0.0715 -0.3344
11891TIP3    H157164   6.853   6.538  16.782 -3.1822  1.1575 -0.6894
11891TIP3    H257165   6.783   6.487  16.906  1.5991 -0.0725  1.7447
11892TIP3   OH257166   6.151   2.857   4.528 -0.0532 -0.1940  0.3529
11892TIP3    H157167   6.069   2.808   4.534  0.1452 -0.5722  0.0464
11892TIP3    H257168   6.127   2.947   4.549 -0.2403 -0.5912  1.9569
11893TIP3   OH257169   1.136   5.539   2.915  0.2255  0.3388  0.3107
11893TIP3    H157170   1.181   5.474   2.969  0.7542  0.8792  0.5257
11893TIP3    H257171   1.163   5.519   2.825  3.0260  2.2481  0.6218
11894TIP3   OH257172   1.307   2.513  13.486 -0.3195 -0.2022  0.2559
11894TIP3    H157173   1.217   2.504  13.452 -0.2799  1.5259 -0.3958
11894TIP3    H257174   1.357   2.447  13.439 -1.2126 -1.1008  0.5322
11895TIP3   OH257175   3.528   6.236  12.195  0.5511  0.6538  0.2805
11895TIP3    H157176   3.551   6.257  12.286  0.1087  1.6864  0.1655
11895TIP3    H257177   3.527   6.320  12.151 -0.3484  0.2778 -0.4336
11896TIP3   OH257178   6.257   4.182  14.529  0.0713 -0.3962  1.0236
11896TIP3    H157179   6.272   4.274  14.508 -0.2874 -0.4041  0.7139
11896TIP3    H257180   6.264   4.137  14.445 -1.9158 -0.3549  0.7797
11897TIP3   OH257181   5.488   6.388   2.807  0.1339  0.0890  0.3606
11897TIP3    H157182   5.443   6.468   2.781  1.1152  0.9042  1.1274
11897TIP3    H257183   5.573   6.417   2.838  0.8209 -1.3340 -0.1255
11898TIP3   OH257184   6.694   3.244  12.912  0.5189 -0.0997 -0.3570
11898TIP3    H157185   6.629   3.293  12.862 -2.9413  0.9812  4.4385
11898TIP3    H257186   6.766   3.306  12.926 -1.2822  1.8386  0.9721
11899TIP3   OH257187   4.770   4.670  15.314 -0.2046 -0.5067  0.1217
11899TIP3    H157188   4.678   4.656  15.291  0.1678 -3.7481  0.1587
11899TIP3    H257189   4.771   4.671  15.409 -0.1872 -0.5986  0.1229
11900TIP3   OH257190   6.144   3.468   4.239  0.6199 -0.1225  0.4018
11900TIP3    H157191   6.141   3.421   4.156  0.1281 -0.3312  0.5328
11900TIP3    H257192   6.216   3.529   4.230  0.0606  0.4193 -0.4777
11901TIP3   OH257193   2.571   6.816   1.435 -0.5104 -0.1120  0.4558
11901TIP3    H157194   2.559   6.727   1.470  1.4743 -0.4265  0.4479
11901TIP3    H257195   2.591   6.869   1.512 -0.0208 -0.0133  0.2608
11902TIP3   OH257196   6.489   1.489   3.419 -0.1158 -0.2598 -0.1992
11902TIP3    H157197   6.571   1.510   3.463 -0.3905 -1.0409  0.7244
11902TIP3    H257198   6.513   1.479   3.327  0.6275  0.5439 -0.1040
11903TIP3   OH257199   6.703   0.839  11.728  0.4182  0.3082  0.2967
11903TIP3    H157200   6.686   0.776  11.657 -1.2549  0.7064  0.3041
11903TIP3    H257201   6.616   0.865  11.757  1.0776  0.4069  2.2896
11904TIP3   OH257202   4.130   2.948  12.151  0.4233  0.1376 -0.6765
11904TIP3    H157203   4.182   2.877  12.190  0.0440 -0.5403 -1.3834
11904TIP3    H257204   4.155   3.026  12.201  2.4466 -0.0737 -1.2741
11905TIP3   OH257205   6.096   4.539   0.218  0.6860  0.4812  0.0282
11905TIP3    H157206   6.077   4.507   0.130  0.2566 -1.3667  0.7563
11905TIP3    H257207   6.013   4.570   0.251  0.6687  0.3553  0.1025
11906TIP3   OH257208   0.961   0.718  12.893  0.1239  0.2267 -0.5463
11906TIP3    H157209   1.038   0.753  12.938 -1.5418  1.8155  1.2663
11906TIP3    H257210   0.949   0.631  12.931  1.1390 -0.1334 -1.0202
11907TIP3   OH257211   5.146   4.807   5.089  0.0121  0.7919  0.1898
11907TIP3    H157212   5.172   4.869   5.020  0.7302 -0.7188 -0.9539
11907TIP3    H257213   5.051   4.815   5.095 -0.0010  1.3151 -0.6147
11908TIP3   OH257214   0.851   6.429  12.615 -0.5547 -0.2425  0.2156
11908TIP3    H157215   0.863   6.417  12.710  3.2887 -0.7663 -0.1660
11908TIP3    H257216   0.865   6.341  12.579 -1.1423  0.1065 -0.8868
11909TIP3   OH257217   5.610   2.863  13.066  0.3422  0.3439 -0.2223
11909TIP3    H157218   5.634   2.949  13.032 -0.0096 -0.0165 -1.4237
11909TIP3    H257219   5.694   2.821  13.085  0.5782  0.3988 -1.0708
11910TIP3   OH257220   2.090   3.247  17.030 -0.4319  0.6516 -0.3594
11910TIP3    H157221   2.091   3.258  16.935 -0.9122  1.3318 -0.2896
11910TIP3    H257222   2.001   3.215  17.049 -0.3109  0.4357 -0.1426
11911TIP3   OH257223   2.909   1.822   2.236  0.3147 -0.1234 -0.4431
11911TIP3    H157224   2.839   1.761   2.254 -0.8507  1.6836  1.6150
11911TIP3    H257225   2.989   1.778   2.265 -0.5048 -0.6526  1.0734
11912TIP3   OH257226   1.995   6.456  14.976  0.2123  0.6766 -0.2531
11912TIP3    H157227   2.006   6.366  14.943 -0.3185  1.0934 -1.6462
11912TIP3    H257228   1.966   6.506  14.899 -0.8599  1.7603  0.8200
11913TIP3   OH257229   6.553   5.468  13.593  0.2049 -0.3445 -0.3802
11913TIP3    H157230   6.591   5.554  13.606  1.9432 -0.9874 -0.8830
11913TIP3    H257231   6.526   5.468  13.501  0.6853 -0.5038 -0.5239
11914TIP3   OH257232   5.752   1.496  14.649 -0.2972 -0.9886  0.2969
11914TIP3    H157233   5.728   1.534  14.733 -0.6273 -0.6944  0.0715
11914TIP3    H257234   5.818   1.556  14.613 -2.8152  1.0564 -1.3552
11915TIP3   OH257235   5.809   5.177  16.371  0.1886 -0.2233 -0.4431
11915TIP3    H157236   5.854   5.103  16.330  0.2234 -0.0717 -0.6760
11915TIP3    H257237   5.879   5.238  16.394  0.0561  0.2447 -1.2712
11916TIP3   OH257238   5.564   0.813   3.358 -0.5935  0.3086 -0.1050
11916TIP3    H157239   5.537   0.731   3.318 -2.2517  1.7661 -2.2348
11916TIP3    H257240   5.544   0.802   3.451  1.2993 -2.4095  0.0924
11917TIP3   OH257241   2.744   1.369  15.506  0.0400 -0.5292 -0.3382
11917TIP3    H157242   2.717   1.277  15.514 -1.8203 -0.1185 -1.4838
11917TIP3    H257243   2.772   1.378  15.415  1.3757 -0.2165  0.0789
11918TIP3   OH257244   4.036   6.374   6.085  0.0175 -0.2230  0.1132
11918TIP3    H157245   4.035   6.308   6.015  0.9191 -0.6779  0.5095
11918TIP3    H257246   3.945   6.383   6.111 -0.3555  0.0652 -1.2165
11919TIP3   OH257247   1.308   3.897   5.994 -0.1883  0.6043  0.0002
11919TIP3    H157248   1.333   3.867   5.906 -1.6022 -2.9087  0.5998
11919TIP3    H257249   1.388   3.886   6.046 -0.2027 -0.5765 -0.1972
11920TIP3   OH257250   1.522   0.157   2.599  0.2656  0.2540  0.1742
11920TIP3    H157251   1.486   0.077   2.559  0.6220  0.9122 -1.5500
11920TIP3    H257252   1.450   0.220   2.595 -0.0556  0.0094  1.6470
11921TIP3   OH257253   6.428   4.636   1.259  0.1931 -0.7328  0.4146
11921TIP3    H157254   6.462   4.681   1.336 -1.2652  0.0617  0.6357
11921TIP3    H257255   6.496   4.646   1.193  1.1609 -0.8171  1.3847
11922TIP3   OH257256   6.273   5.102   4.538 -0.2285 -0.2481  0.2964
11922TIP3    H157257   6.215   5.033   4.571 -1.8087  0.6852 -0.3993
11922TIP3    H257258   6.288   5.079   4.446 -1.1774  0.5529 -0.0827
11923TIP3   OH257259   0.913   2.353  15.049  0.3518 -0.1450 -0.2654
11923TIP3    H157260   0.926   2.447  15.046 -1.4378  0.1216 -2.5178
11923TIP3    H257261   0.995   2.317  15.015  0.9989  0.5722  0.4899
11924TIP3   OH257262   0.449   4.080  12.629 -0.1602  0.7138 -0.2472
11924TIP3    H157263   0.388   4.073  12.556  1.0815 -1.2910 -1.1838
11924TIP3    H257264   0.397   4.059  12.706 -0.7078 -0.9610 -1.0179
11925TIP3   OH257265   5.069   4.960   0.031 -0.0394  0.6365 -0.0368
11925TIP3    H157266   5.030   4.909  -0.040  0.1839  0.1617  0.1813
11925TIP3    H257267   5.013   5.037   0.038 -0.2182  0.5598 -0.5514
11926TIP3   OH257268   3.141   1.742  13.465 -0.6906 -0.7095 -0.2453
11926TIP3    H157269   3.183   1.659  13.489 -1.0972 -0.7848  0.2172
11926TIP3    H257270   3.161   1.801  13.538  0.0874 -0.2226 -0.8416
11927TIP3   OH257271   3.209   6.120   5.857  0.0793 -0.9193 -0.0158
11927TIP3    H157272   3.263   6.196   5.838 -0.4114 -0.8406 -1.2106
11927TIP3    H257273   3.271   6.052   5.882  0.6341 -0.5084 -0.2544
11928TIP3   OH257274   2.950   2.660  15.507 -0.4027 -0.1684 -0.4347
11928TIP3    H157275   3.001   2.607  15.446  1.2370 -1.3698  1.8243
11928TIP3    H257276   2.956   2.749  15.472  2.4792 -0.4339 -0.8376
11929TIP3   OH257277   4.316   3.023  11.531  0.6683  0.0238 -0.4706
11929TIP3    H157278   4.276   3.073  11.602  1.2090 -0.0755 -0.0928
11929TIP3    H257279   4.334   3.088  11.463  0.4248  0.1678 -0.4001
11930TIP3   OH257280   3.880   4.679   0.058 -0.0890 -0.3415 -0.2090
11930TIP3    H157281   3.903   4.744   0.125 -0.3817 -1.3050  0.8703
11930TIP3    H257282   3.866   4.598   0.108 -2.3474 -0.6199 -1.2159
11931TIP3   OH257283   5.585   5.253   2.283 -0.0795  0.5832  0.1318
11931TIP3    H157284   5.498   5.245   2.244 -0.5798  3.5195  0.3852
11931TIP3    H257285   5.569   5.264   2.376  0.6270  0.4643  0.2722
11932TIP3   OH257286   4.428   0.589  15.599  0.3468 -0.1974  0.2326
11932TIP3    H157287   4.522   0.603  15.616  0.4194 -0.3635 -0.0286
11932TIP3    H257288   4.385   0.659  15.648  0.6242  0.0497  0.1309
11933TIP3   OH257289   6.367   5.452   1.119  0.2939  0.1273 -0.2954
11933TIP3    H157290   6.337   5.419   1.204  1.7508  0.7970  0.5082
11933TIP3    H257291   6.342   5.384   1.057  1.8774 -1.8229  1.0931
11934TIP3   OH257292   2.136   0.267   3.691  0.4629 -0.4224  0.2027
11934TIP3    H157293   2.217   0.270   3.640  0.6093 -1.4559  0.3586
11934TIP3    H257294   2.081   0.203   3.647  0.1869 -0.5751  0.7516
11935TIP3   OH257295   0.308   3.129   1.124 -0.6933  0.0776  0.5233
11935TIP3    H157296   0.245   3.153   1.192 -1.1983 -0.0469  0.1029
11935TIP3    H257297   0.286   3.039   1.101  0.5526 -0.4743  1.3755
11936TIP3   OH257298   2.815   0.031  14.881  0.4369 -0.5028 -0.1095
11936TIP3    H157299   2.831  -0.051  14.835  1.1829 -0.3457 -0.1532
11936TIP3    H257300   2.902   0.061  14.907  0.3903  1.2366 -1.7631
11937TIP3   OH257301   6.727   4.998   3.216  0.2241 -0.9353  0.8536
11937TIP3    H157302   6.746   4.944   3.139 -1.8997 -0.9446  0.2788
11937TIP3    H257303   6.637   4.974   3.240 -0.0251  0.8577  1.8408
11938TIP3   OH257304   6.631   5.732  13.723  0.3274 -0.0681 -0.2889
11938TIP3    H157305   6.719   5.697  13.710  0.5917  0.4650  0.0611
11938TIP3    H257306   6.639   5.826  13.706  0.3050  0.3774  1.8764
11939TIP3   OH257307   1.485   0.500   5.059 -0.5364  0.2715  0.0459
11939TIP3    H157308   1.547   0.512   4.987 -0.1371 -2.8540 -0.2482
11939TIP3    H257309   1.409   0.458   5.019 -0.7657 -0.4958  1.2213
11940TIP3   OH257310   1.690   3.238   0.194  0.4745 -0.8824  0.1142
11940TIP3    H157311   1.700   3.172   0.263  1.7732 -0.4313  0.3809
11940TIP3    H257312   1.692   3.322   0.240 -0.3358 -0.6246 -0.3123
11941TIP3   OH257313   1.242   3.791  13.187  0.0430  0.2333 -0.3569
11941TIP3    H157314   1.184   3.839  13.246 -0.4426 -1.2263  0.4052
11941TIP3    H257315   1.309   3.754  13.244  0.6384  0.3326 -0.9830
11942TIP3   OH257316   3.038   1.119  16.466 -0.0503 -0.1997  0.2602
11942TIP3    H157317   2.994   1.189  16.418  1.8071  1.9503  1.5086
11942TIP3    H257318   3.097   1.079  16.401  0.4807  0.8946  0.0405
11943TIP3   OH257319   3.211   2.080  13.155  0.7521  0.1139 -0.4821
11943TIP3    H157320   3.261   2.012  13.201  0.2175 -0.2688 -0.4531
11943TIP3    H257321   3.201   2.046  13.066 -1.5183 -0.9822  0.1110
11944TIP3   OH257322   5.089   4.556   4.282 -0.5351 -0.2768 -0.3960
11944TIP3    H157323   5.118   4.618   4.215  0.8384  0.8654  1.1760
11944TIP3    H257324   5.004   4.589   4.310 -0.6746 -0.2081 -0.8827
11945TIP3   OH257325   3.723   5.194  14.883  0.1770 -0.1222  0.2293
11945TIP3    H157326   3.653   5.175  14.945  0.3368  1.6943  1.0215
11945TIP3    H257327   3.748   5.108  14.849 -1.9066 -0.8828  0.4655
11946TIP3   OH257328   2.326   1.430   1.276  0.3729 -0.2776  0.4341
11946TIP3    H157329   2.390   1.364   1.304 -0.0437 -1.5702 -1.4342
11946TIP3    H257330   2.376   1.489   1.219  0.3523 -0.0081  0.6905
11947TIP3   OH257331   2.001   4.959   1.235 -0.1443  0.2596 -0.1225
11947TIP3    H157332   1.906   4.956   1.226 -0.0296  0.3477 -1.5540
11947TIP3    H257333   2.028   4.867   1.233 -0.1308  0.2729 -0.4634
11948TIP3   OH257334   4.910   6.810  15.277  0.1490  0.1280 -0.5856
11948TIP3    H157335   4.849   6.766  15.337  1.4237 -0.5831  0.2419
11948TIP3    H257336   4.903   6.903  15.301  0.4521 -0.1154  0.5223
11949TIP3   OH257337   1.025   3.987   5.265  0.8081  0.1602  0.1703
11949TIP3    H157338   0.962   4.029   5.324  0.6517  2.9448 -1.7946
11949TIP3    H257339   0.974   3.919   5.220  0.0602  0.2783  0.8016
11950TIP3   OH257340   5.502   2.000   0.427  0.3838  0.0363 -0.2061
11950TIP3    H157341   5.475   1.969   0.513 -2.5725  0.0268 -1.0341
11950TIP3    H257342   5.510   1.920   0.374  2.4485  0.0149  0.0274
11951TIP3   OH257343   6.394   6.498   2.195  0.7429 -0.0491 -0.0084
11951TIP3    H157344   6.431   6.568   2.141  1.5436 -0.0794  0.4998
11951TIP3    H257345   6.444   6.421   2.171  0.1854 -0.3579 -0.2062
11952TIP3   OH257346   6.500   5.727   1.758  0.2438 -0.1087  0.0492
11952TIP3    H157347   6.553   5.772   1.823  0.1606  0.0998 -0.0251
11952TIP3    H257348   6.410   5.741   1.786  0.2579 -1.4218  0.8001
11953TIP3   OH257349   6.223   1.341   1.581 -0.3486 -0.7160  0.0656
11953TIP3    H157350   6.209   1.392   1.502  0.3922 -1.7191 -0.7313
11953TIP3    H257351   6.310   1.364   1.611 -0.9266  0.2708  1.0791
11954TIP3   OH257352   5.293   3.924  13.239 -0.5481 -0.0845  0.8124
11954TIP3    H157353   5.359   3.920  13.308  1.2249 -0.3686 -0.7996
11954TIP3    H257354   5.318   3.856  13.177 -0.9086  1.3758 -1.0506
11955TIP3   OH257355   4.350   1.317  14.795 -0.3016 -0.3901  0.4174
11955TIP3    H157356   4.304   1.322  14.879  0.8919 -0.9589  1.1301
11955TIP3    H257357   4.442   1.304  14.819  0.7869  3.5016 -0.8508
11956TIP3   OH257358   6.210   6.534  15.504  0.1678 -0.3990 -0.3168
11956TIP3    H157359   6.193   6.626  15.484 -0.6927 -0.6187 -0.6214
11956TIP3    H257360   6.163   6.486  15.436 -0.1872 -1.0918  0.4145
11957TIP3   OH257361   1.203   6.460   1.529 -0.2211  0.2309  0.4630
11957TIP3    H157362   1.285   6.424   1.562  0.1810  1.2114  0.5562
11957TIP3    H257363   1.183   6.407   1.452  2.2886  2.0913 -1.5997
11958TIP3   OH257364   0.678   1.406   4.823  0.4805  0.2224 -0.3842
11958TIP3    H157365   0.697   1.498   4.806  1.0639  0.1582 -0.1007
11958TIP3    H257366   0.609   1.408   4.890  0.4285  0.4511 -0.4442
11959TIP3   OH257367   6.013   5.084   2.147  0.0806  0.9097  0.4787
11959TIP3    H157368   6.069   5.161   2.138 -2.1595  2.7009  0.6609
11959TIP3    H257369   6.028   5.054   2.237 -0.0141  2.0273  0.8886
11960TIP3   OH257370   5.212   4.125   0.630  0.7088 -0.5547 -0.3040
11960TIP3    H157371   5.217   4.110   0.536  1.5422  2.0392 -0.7609
11960TIP3    H257372   5.185   4.217   0.638  1.1235 -0.5778  1.9743
11961TIP3   OH257373   3.557   0.266  15.182  0.3919 -0.0423  0.3696
11961TIP3    H157374   3.517   0.331  15.240 -0.0850 -1.2996  1.4915
11961TIP3    H257375   3.596   0.201  15.241 -0.7423 -1.7488 -0.6853
11962TIP3   OH257376   2.612   4.803   1.306 -0.3189  0.7848 -0.0701
11962TIP3    H157377   2.573   4.880   1.347  0.5559  0.3376  1.7048
11962TIP3    H257378   2.705   4.809   1.327 -0.2585 -0.8343  0.2631
11963TIP3   OH257379   0.608   5.046  10.908  0.8944  0.5262 -0.0980
11963TIP3    H157380   0.615   5.035  11.003 -1.1408 -0.2963  0.0096
11963TIP3    H257381   0.687   5.003  10.874 -0.1968 -2.7052  1.0794
11964TIP3   OH257382   5.563   4.976  15.744  0.0577  0.4063 -0.2409
11964TIP3    H157383   5.495   4.999  15.681  0.3820  0.2623 -0.6464
11964TIP3    H257384   5.597   5.061  15.774  1.5066  0.5144 -2.0067
11965TIP3   OH257385   6.715   3.999  12.288 -0.1810  0.1266 -0.0216
11965TIP3    H157386   6.649   3.931  12.276 -0.0556 -0.7598  3.3206
11965TIP3    H257387   6.682   4.051  12.362  2.1678  0.4876  0.8559
11966TIP3   OH257388   6.560   3.773  15.200 -0.0915  0.2281 -0.4942
11966TIP3    H157389   6.567   3.798  15.108 -0.1923  1.5752 -0.1568
11966TIP3    H257390   6.551   3.856  15.247  0.8966 -0.3675  0.8230
11967TIP3   OH257391   1.781   2.455   3.788 -0.1275 -0.1593  0.1207
11967TIP3    H157392   1.836   2.392   3.835 -1.1417 -1.5369 -0.4798
11967TIP3    H257393   1.782   2.426   3.697 -1.7356 -0.1583  0.0736
11968TIP3   OH257394   5.397   6.507  15.392 -0.3429 -0.0646 -0.0564
11968TIP3    H157395   5.309   6.469  15.399  0.0794 -1.1800 -0.5723
11968TIP3    H257396   5.455   6.431  15.383  0.5428  0.7162 -1.1108
11969TIP3   OH257397   6.465   1.122  13.906  0.0362  0.1229 -0.2308
11969TIP3    H157398   6.472   1.076  13.822  0.3413  0.4319 -0.3797
11969TIP3    H257399   6.400   1.191  13.889 -0.1739 -0.0429 -0.1053
11970TIP3   OH257400   0.614   6.659  13.656 -0.2262  0.7794  0.3104
11970TIP3    H157401   0.535   6.713  13.661  0.2751  1.4803  0.7553
11970TIP3    H257402   0.646   6.671  13.567 -0.0778  1.2866  0.4285
11971TIP3   OH257403   1.197   3.101  13.965 -0.0453 -0.0829  0.3703
11971TIP3    H157404   1.165   3.188  13.940 -0.4573 -0.1577  0.6342
11971TIP3    H257405   1.279   3.119  14.012 -0.5915  0.2349  1.2249
11972TIP3   OH257406   6.378   2.996  14.138  0.1964  0.8934 -0.0086
11972TIP3    H157407   6.313   2.975  14.072 -1.1040  1.1356  1.1323
11972TIP3    H257408   6.461   2.964  14.103 -0.7528 -0.6888 -0.9063
11973TIP3   OH257409   2.479   5.001  15.575  0.1279 -0.3807 -0.0528
11973TIP3    H157410   2.399   4.968  15.536 -0.8064 -0.7790  2.0571
11973TIP3    H257411   2.499   5.081  15.526 -2.3998  0.5572  0.2911
11974TIP3   OH257412   1.709   6.081   5.676  0.7106 -0.1812  0.0065
11974TIP3    H157413   1.779   6.060   5.739 -0.0358 -2.3076  0.2214
11974TIP3    H257414   1.670   6.162   5.709  0.6728 -0.9665  2.0129
11975TIP3   OH257415   2.527   3.570   0.604 -0.3419 -0.3158 -0.1619
11975TIP3    H157416   2.508   3.608   0.690 -0.3148 -0.5280 -0.0628
11975TIP3    H257417   2.589   3.631   0.564 -1.9213  0.9080 -0.8689
11976TIP3   OH257418   5.773   3.774   0.002 -1.0259 -0.0646 -0.2983
11976TIP3    H157419   5.791   3.817  -0.082 -1.0315 -0.2041 -0.3704
11976TIP3    H257420   5.791   3.842   0.068 -3.2101  0.7900 -0.5098
11977TIP3   OH257421   6.762   5.792  14.055 -0.2220  0.1315  0.3570
11977TIP3    H157422   6.763   5.831  14.142 -2.9477  0.5942  0.2747
11977TIP3    H257423   6.790   5.702  14.068  0.1924  0.4228  1.5655
11978TIP3   OH257424   2.471   6.665   1.095  0.0459 -0.0319 -0.0647
11978TIP3    H157425   2.476   6.598   1.163 -0.4015  0.0843  0.0822
11978TIP3    H257426   2.450   6.745   1.142  1.5119  0.4165 -0.1108
11979TIP3   OH257427   0.398   3.358  15.370  0.8872  0.8411 -0.0879
11979TIP3    H157428   0.433   3.442  15.399  0.5091  1.1064 -0.4036
11979TIP3    H257429   0.308   3.357  15.402  0.8629  0.5930 -0.1605
11980TIP3   OH257430   0.721   5.085   4.054 -0.3304  0.2276 -0.4864
11980TIP3    H157431   0.713   5.144   4.129 -0.9298 -0.0022 -0.3639
11980TIP3    H257432   0.810   5.051   4.060 -0.5857 -0.3157  0.5219
11981TIP3   OH257433   0.933   3.376   0.915 -0.4146 -0.1490 -0.4028
11981TIP3    H157434   0.931   3.455   0.862 -1.4095  0.2864  0.2656
11981TIP3    H257435   1.024   3.368   0.943 -0.0993  0.1889 -1.2957
11982TIP3   OH257436   0.063   5.006  13.761 -0.0867  0.1131  0.0221
11982TIP3    H157437   0.031   5.086  13.720  1.1407 -0.6277 -2.5503
11982TIP3    H257438  -0.016   4.965  13.798 -0.9769  1.6616 -0.0953
11983TIP3   OH257439   1.213   1.504  13.604 -0.1174  0.4934  0.0129
11983TIP3    H157440   1.177   1.481  13.518  0.0195  0.2094  0.0320
11983TIP3    H257441   1.249   1.592  13.592 -0.2752  0.5345 -0.1669
11984TIP3   OH257442   4.478   4.306  12.529  0.4499  0.3595  0.1768
11984TIP3    H157443   4.455   4.274  12.441  0.4310  1.5206 -0.2578
11984TIP3    H257444   4.457   4.399  12.527 -0.5739  0.2006  1.7869
11985TIP3   OH257445   1.341   2.775  14.018 -0.0960 -0.4670  0.5059
11985TIP3    H157446   1.343   2.862  14.056 -1.1868 -0.9366  1.7288
11985TIP3    H257447   1.384   2.719  14.083  0.3473 -0.8864 -0.1372
11986TIP3   OH257448   2.158   1.385  11.686 -0.3187 -0.3718 -0.3146
11986TIP3    H157449   2.216   1.320  11.647  0.9125  1.6606 -2.1183
11986TIP3    H257450   2.171   1.464  11.632 -0.0166  2.0684  3.0390
11987TIP3   OH257451   2.303   1.816  13.508 -0.0079 -0.0491  0.0091
11987TIP3    H157452   2.222   1.806  13.459  0.1838  3.3566 -1.2651
11987TIP3    H257453   2.372   1.814  13.442  0.7258 -0.3781  0.7643
11988TIP3   OH257454   2.359   6.360  12.086  0.2589  0.3167 -0.3117
11988TIP3    H157455   2.377   6.400  12.171  0.4614  0.4545 -0.4209
11988TIP3    H257456   2.269   6.328  12.094  0.4734 -0.2001  0.1630
11989TIP3   OH257457   6.262   0.691   5.488 -0.0567 -0.0603  0.0038
11989TIP3    H157458   6.270   0.754   5.416  1.6095  1.2682  1.2769
11989TIP3    H257459   6.334   0.629   5.474  0.3923  0.3152  0.6154
11990TIP3   OH257460   5.080   1.338   0.663  0.5335  0.0575  0.0369
11990TIP3    H157461   5.173   1.316   0.667  0.5634 -0.4048 -2.1593
11990TIP3    H257462   5.038   1.260   0.628 -0.0664  1.5585 -2.9824
11991TIP3   OH257463   3.953   1.529   1.532 -0.0841 -0.4276  0.6864
11991TIP3    H157464   4.040   1.569   1.528 -0.9340  1.4095 -0.5245
11991TIP3    H257465   3.922   1.547   1.621  0.1760  0.2459  0.6429
11992TIP3   OH257466   2.741   5.818  16.593 -0.4571 -0.2852 -0.7405
11992TIP3    H157467   2.765   5.774  16.674 -0.1087  0.1557 -0.5999
11992TIP3    H257468   2.756   5.753  16.524  1.1156 -0.0373 -0.6572
11993TIP3   OH257469   1.632   3.224  13.409  0.4450  0.4512  0.1632
11993TIP3    H157470   1.649   3.307  13.364 -1.8307  0.6411 -0.4890
11993TIP3    H257471   1.709   3.210  13.464  0.3382  3.7296  1.3648
11994TIP3   OH257472   0.405   3.772   3.839 -0.2481 -0.1440  0.1358
11994TIP3    H157473   0.310   3.781   3.843 -0.1702  0.9188 -0.1769
11994TIP3    H257474   0.419   3.683   3.807 -1.1586  0.0782 -0.9368
11995TIP3   OH257475   3.953   0.788  16.500  0.2118 -0.1203 -0.1818
11995TIP3    H157476   3.981   0.758  16.413 -0.8667  1.4698 -1.1586
11995TIP3    H257477   4.034   0.816  16.543  0.6116  0.7397 -1.4121
11996TIP3   OH257478   2.596   4.731  14.565  0.2104 -0.2400 -0.0167
11996TIP3    H157479   2.567   4.815  14.602 -1.6286 -0.3273 -1.1118
11996TIP3    H257480   2.552   4.665  14.618  0.1617 -0.4464 -0.3114
11997TIP3   OH257481   1.185   3.755   3.591 -0.4326 -0.2441 -0.7373
11997TIP3    H157482   1.121   3.725   3.527  0.5116 -1.3334 -1.2014
11997TIP3    H257483   1.227   3.675   3.623 -0.7057  0.2879  1.0767
11998TIP3   OH257484   1.937   6.631   1.737  0.0145  0.0974  0.3838
11998TIP3    H157485   2.024   6.645   1.776  0.3673  1.8834 -0.8951
11998TIP3    H257486   1.956   6.603   1.647 -0.7478 -0.0902  0.2748
11999TIP3   OH257487   4.196   1.971  14.562 -0.0636 -0.4837  0.5411
11999TIP3    H157488   4.137   1.992  14.489  0.3359  1.4621  0.7140
11999TIP3    H257489   4.265   1.918  14.523 -0.3847 -0.2970 -0.3009
12000TIP3   OH257490   2.017   2.266  15.713  0.0227  0.2680  0.0096
12000TIP3    H157491   1.925   2.247  15.694 -0.2771  0.4806  1.1452
12000TIP3    H257492   2.050   2.185  15.752  0.2296  0.3004 -0.0990
12001TIP3   OH257493   6.053   4.866  11.542  0.2703  0.0873 -0.1735
12001TIP3    H157494   6.125   4.869  11.480 -0.4835 -0.3992 -1.0945
12001TIP3    H257495   5.980   4.908  11.496  0.1395  1.2090  0.9983
12002TIP3   OH257496   6.474   4.541   5.450 -0.4465 -0.0874 -0.2690
12002TIP3    H157497   6.431   4.523   5.367 -0.2062  0.7964 -0.5985
12002TIP3    H257498   6.566   4.517   5.436  0.1381  2.3951 -1.1064
12003TIP3   OH257499   2.004   3.837   4.144  0.8284 -0.4752  0.4670
12003TIP3    H157500   1.924   3.829   4.196 -0.3105  0.5583 -1.0453
12003TIP3    H257501   1.992   3.775   4.072  1.9501 -1.1952  0.8752
12004TIP3   OH257502   2.531   4.746  13.156 -0.0728 -0.7699 -0.1818
12004TIP3    H157503   2.545   4.651  13.161 -1.5378 -1.0125 -0.3104
12004TIP3    H257504   2.439   4.758  13.175  0.6877  0.9582  3.0857
12005TIP3   OH257505   1.527   2.112   2.301  0.3073  0.2313  0.6069
12005TIP3    H157506   1.521   2.020   2.324  1.9766  0.0071  0.2212
12005TIP3    H257507   1.478   2.157   2.370 -1.4652 -0.9869  0.2156
12006TIP3   OH257508   4.305   6.629   4.079 -0.0521  0.0542 -0.1647
12006TIP3    H157509   4.289   6.599   3.989 -0.4588  1.6396 -0.6526
12006TIP3    H257510   4.235   6.692   4.096  1.4087  1.6120  0.3661
12007TIP3   OH257511   6.845   1.262  15.724 -0.0357  0.2282  0.1728
12007TIP3    H157512   6.804   1.199  15.666  1.7466 -0.7304 -0.1260
12007TIP3    H257513   6.785   1.337  15.725 -0.0060  0.4639 -3.2312
12008TIP3   OH257514   4.919   1.495  11.066 -0.0909 -0.5399 -0.1858
12008TIP3    H157515   4.912   1.434  10.992 -0.8241 -1.2596  0.4684
12008TIP3    H257516   4.914   1.440  11.144  0.6701  0.2174  0.4158
12009TIP3   OH257517   1.388   6.739   5.944 -0.1350 -0.4723 -0.3622
12009TIP3    H157518   1.483   6.730   5.934  0.2735  1.5679  1.1256
12009TIP3    H257519   1.367   6.822   5.902 -0.9832 -0.0943  0.7674
12010TIP3   OH257520   0.155   0.893   2.210 -0.6093  0.3673  0.2034
12010TIP3    H157521   0.178   0.951   2.283 -0.0853  0.1493  0.2149
12010TIP3    H257522   0.111   0.819   2.251 -2.3471  1.2801  0.0866
12011TIP3   OH257523   6.043   0.411  14.596 -0.1917 -0.2969 -0.1455
12011TIP3    H157524   6.104   0.472  14.554 -0.1189 -0.9711 -1.0552
12011TIP3    H257525   6.082   0.394  14.681  0.0111  0.5839 -0.0503
12012TIP3   OH257526   5.253   1.727   4.840  0.2321  0.1228  0.2441
12012TIP3    H157527   5.252   1.632   4.852  1.0737  0.0969  0.1532
12012TIP3    H257528   5.337   1.745   4.798 -0.5748  0.7484 -1.1476
12013TIP3   OH257529   0.327   4.623  14.174 -0.5704  0.2818 -0.1277
12013TIP3    H157530   0.410   4.671  14.166 -0.6751  0.5777  0.4664
12013TIP3    H257531   0.274   4.656  14.102  0.2937 -0.9093 -1.3544
12014TIP3   OH257532   4.824   4.717   2.449  0.1550 -0.0714  0.2242
12014TIP3    H157533   4.899   4.677   2.405 -0.1616  1.3007 -1.7003
12014TIP3    H257534   4.863   4.787   2.503  0.3174  0.2093 -0.2527
12015TIP3   OH257535   2.465   0.671   2.553 -0.7407  0.0476 -0.0612
12015TIP3    H157536   2.379   0.705   2.574 -0.0476  1.0928  1.2229
12015TIP3    H257537   2.483   0.701   2.464 -0.5463  2.2955  0.6940
12016TIP3   OH257538   0.654   2.230   5.620 -0.1666  0.4616  0.0983
12016TIP3    H157539   0.677   2.165   5.554 -0.2776  0.3199  0.1959
12016TIP3    H257540   0.633   2.309   5.571 -3.0974 -0.4204 -0.3079
12017TIP3   OH257541   0.549   1.572  12.444  0.4039  0.3449  0.0197
12017TIP3    H157542   0.492   1.560  12.519 -1.4030  3.1663 -0.7540
12017TIP3    H257543   0.619   1.630  12.475  0.1767  0.7486 -0.2063
12018TIP3   OH257544   2.081   6.764  16.703  0.7092 -0.3736  0.1637
12018TIP3    H157545   1.991   6.777  16.673  0.5558  1.2830  1.1685
12018TIP3    H257546   2.105   6.677  16.671 -1.3940 -1.0501  0.2457
12019TIP3   OH257547   2.454   1.249  16.994 -0.1683  0.0559  0.2979
12019TIP3    H157548   2.400   1.213  16.923  0.1726  0.8029 -0.3548
12019TIP3    H257549   2.423   1.203  17.073 -1.8119  0.4991 -0.0444
12020TIP3   OH257550   6.027   2.711  11.104  0.3369  0.6803  0.4137
12020TIP3    H157551   6.098   2.703  11.169  0.1349  1.0847  0.6914
12020TIP3    H257552   5.977   2.631  11.113 -0.9469  1.6128  2.2781
12021TIP3   OH257553   2.863   5.788   3.337 -0.3971 -0.1311  0.3149
12021TIP3    H157554   2.948   5.807   3.377 -0.4594 -0.6447  0.6939
12021TIP3    H257555   2.856   5.693   3.339  0.3719 -0.3179 -2.5374
12022TIP3   OH257556   1.101   3.985   3.711 -0.3069  0.6080 -0.0038
12022TIP3    H157557   1.056   4.051   3.659 -0.5812  0.3461 -0.1010
12022TIP3    H257558   1.128   3.919   3.647 -0.8007  0.1956  0.2070
12023TIP3   OH257559   1.095   0.874   1.757  0.1689 -0.0843 -0.3246
12023TIP3    H157560   1.168   0.933   1.777 -0.7949  1.1644 -0.3806
12023TIP3    H257561   1.107   0.799   1.816  1.2042  0.3354  0.0082
12024TIP3   OH257562   4.174   3.069  14.930 -0.0716 -0.0197  0.2735
12024TIP3    H157563   4.141   3.078  14.840  1.4165  1.3533 -0.1751
12024TIP3    H257564   4.149   2.980  14.956 -2.2559  0.2228 -0.7588
12025TIP3   OH257565   1.813   5.525  16.676 -0.4040  0.2081  0.1547
12025TIP3    H157566   1.752   5.510  16.604  1.1539  1.4595 -1.4847
12025TIP3    H257567   1.824   5.438  16.716 -1.3899 -0.4816 -1.0036
12026TIP3   OH257568   3.637   3.263  15.663  0.5732  0.2669  0.1508
12026TIP3    H157569   3.662   3.353  15.642 -1.3311  0.4466 -1.7098
12026TIP3    H257570   3.566   3.271  15.726 -1.0025  0.2400 -1.5322
12027TIP3   OH257571   1.263   1.540   4.486  0.1675 -0.7878  0.4032
12027TIP3    H157572   1.238   1.466   4.542  0.2395 -1.1788 -0.0747
12027TIP3    H257573   1.190   1.551   4.427 -1.0114  1.2126  2.1167
12028TIP3   OH257574   4.783   5.911   0.591  0.0230 -0.5031 -0.1546
12028TIP3    H157575   4.734   5.859   0.655 -0.6653 -2.1314 -1.9138
12028TIP3    H257576   4.741   5.997   0.592 -0.2128 -0.6167  1.2778
12029TIP3   OH257577   2.204   0.967   4.668 -0.2206 -0.3565  0.6469
12029TIP3    H157578   2.277   1.022   4.640 -1.2322  0.1153 -1.2244
12029TIP3    H257579   2.239   0.877   4.663  0.8508 -0.0301  1.8589
12030TIP3   OH257580   3.565   1.679  13.006  0.4416  0.1434  0.1009
12030TIP3    H157581   3.483   1.663  12.959  0.6741 -1.1524  0.0955
12030TIP3    H257582   3.632   1.680  12.938  0.6822 -0.9554  0.3034
12031TIP3   OH257583   3.395   5.679  11.455  0.2412  0.3396  0.2482
12031TIP3    H157584   3.400   5.708  11.546 -1.1787 -1.1146  0.8267
12031TIP3    H257585   3.324   5.615  11.453  0.0424  0.5360 -1.9499
12032TIP3   OH257586   2.329   6.560  10.942  0.2036  0.2131  0.3924
12032TIP3    H157587   2.309   6.648  10.909 -0.1260  0.2295  0.6298
12032TIP3    H257588   2.340   6.572  11.036 -1.6150 -0.2789  0.7071
12033TIP3   OH257589   0.374   6.831  12.570  0.1986 -0.0031 -0.5781
12033TIP3    H157590   0.306   6.892  12.600  2.2474  1.2308  1.8931
12033TIP3    H257591   0.328   6.748  12.560 -2.0418  1.1783 -0.9081
12034TIP3   OH257592   0.237   4.115  15.397  0.0043  0.0576 -0.4494
12034TIP3    H157593   0.162   4.111  15.339  0.9190 -1.1568 -1.5961
12034TIP3    H257594   0.215   4.057  15.470 -0.5532  0.4802 -0.2737
12035TIP3   OH257595   0.392   6.363   6.138 -0.3698  0.1635  0.1213
12035TIP3    H157596   0.393   6.310   6.218  0.0562  0.1812  0.1320
12035TIP3    H257597   0.301   6.391   6.129 -0.5774 -0.4682  0.1836
12036TIP3   OH257598   2.177   6.051  14.612  0.1381 -0.4071  0.3742
12036TIP3    H157599   2.263   6.091  14.602  0.7903 -1.4908  1.4751
12036TIP3    H257600   2.128   6.112  14.666  0.7119 -0.4848  0.9872
12037TIP3   OH257601   4.174   2.808  11.618 -0.1130 -0.2300  0.0739
12037TIP3    H157602   4.254   2.861  11.617 -1.7259  2.4186 -2.3001
12037TIP3    H257603   4.157   2.794  11.711  1.2601  2.1922  0.7887
12038TIP3   OH257604   6.296   2.510   5.210  0.1576  0.4349 -0.1495
12038TIP3    H157605   6.315   2.490   5.119 -1.2503 -0.9007 -0.1985
12038TIP3    H257606   6.381   2.532   5.248  1.2239 -1.5715 -1.1756
12039TIP3   OH257607   1.860   1.002   0.691  0.4535  0.2672 -0.3463
12039TIP3    H157608   1.867   1.066   0.620  1.5036 -0.6877 -1.1450
12039TIP3    H257609   1.803   1.043   0.755 -0.8312  1.0321 -1.9049
12040TIP3   OH257610   4.949   0.832  15.666  0.0723 -0.0937 -0.0738
12040TIP3    H157611   5.031   0.786  15.646  0.7340  2.2662 -3.8423
12040TIP3    H257612   4.881   0.772  15.635  0.5490 -0.7275  0.0600
12041TIP3   OH257613   6.567   3.098  13.597 -0.0949 -0.6200 -0.0958
12041TIP3    H157614   6.549   3.034  13.665 -3.4477  0.2884  0.0347
12041TIP3    H257615   6.497   3.086  13.533  0.4124  1.4844 -1.1466
12042TIP3   OH257616   0.454   4.299  16.019 -0.4078  0.2270  0.0121
12042TIP3    H157617   0.521   4.232  16.010 -0.4030  0.3070 -0.5970
12042TIP3    H257618   0.483   4.370  15.960 -0.3959  0.7739  0.6621
12043TIP3   OH257619   4.984   3.904   5.437  0.0919 -0.2848  0.2282
12043TIP3    H157620   4.928   3.975   5.467 -1.1912 -0.5938 -1.2710
12043TIP3    H257621   5.046   3.945   5.377  1.0639 -0.0518  1.3608
12044TIP3   OH257622   5.135   0.449   2.532 -0.1642 -0.6472  0.3682
12044TIP3    H157623   5.091   0.534   2.541 -2.1483 -1.2565 -2.3489
12044TIP3    H257624   5.123   0.407   2.617  0.6728  1.6200  1.7124
12045TIP3   OH257625   5.298   2.940  15.790 -0.8187  0.1512 -0.3345
12045TIP3    H157626   5.354   2.863  15.783 -0.8717 -0.0525  1.0983
12045TIP3    H257627   5.243   2.923  15.867 -0.7582  1.6542  0.0771
12046TIP3   OH257628   3.052   3.024   0.769 -0.8383 -0.1908 -1.0181
12046TIP3    H157629   3.101   3.042   0.849  3.2222 -1.3218 -2.9626
12046TIP3    H257630   2.983   2.963   0.795  0.6270 -0.8785  1.5558
12047TIP3   OH257631   1.815   6.206   6.464 -0.2720 -0.7464  0.0156
12047TIP3    H157632   1.843   6.292   6.431 -0.6127 -0.2105  1.0808
12047TIP3    H257633   1.893   6.151   6.456  0.3671  0.0458  0.6134
12048TIP3   OH257634   4.677   2.482   2.138  0.1330 -0.2440  0.4340
12048TIP3    H157635   4.740   2.523   2.078 -0.0600 -0.6856 -0.0817
12048TIP3    H257636   4.595   2.481   2.089  0.8033 -4.2524 -1.0170
12049TIP3   OH257637   1.207   5.082  11.490 -0.3852 -0.1334 -0.5988
12049TIP3    H157638   1.178   4.995  11.519 -1.2693 -0.1930 -1.6076
12049TIP3    H257639   1.126   5.131  11.476  0.0981  1.4671  1.6362
12050TIP3   OH257640   4.458   6.849  12.250  0.1607  0.1605 -0.5947
12050TIP3    H157641   4.450   6.754  12.260  0.2512  0.0883 -1.1811
12050TIP3    H257642   4.450   6.864  12.156  0.0919  0.7413 -0.4998
12051TIP3   OH257643   4.159   0.081   0.997 -0.0699 -0.4271  0.2181
12051TIP3    H157644   4.189   0.133   1.070 -2.1019 -2.3485  2.6120
12051TIP3    H257645   4.118   0.144   0.937  0.5419  1.0688  1.3188
12052TIP3   OH257646   4.695   2.575  13.248  0.4045  0.2202  0.3979
12052TIP3    H157647   4.766   2.528  13.292 -0.1734  0.4091  1.6063
12052TIP3    H257648   4.723   2.666  13.248  0.8889  0.0737 -0.6321
12053TIP3   OH257649   3.951   0.064  13.247  0.4677 -0.3198  0.0757
12053TIP3    H157650   3.916   0.002  13.183  2.0411 -0.0148 -1.1210
12053TIP3    H257651   3.878   0.124  13.263 -1.0910 -2.3547  1.2284
12054TIP3   OH257652   2.181   3.095  12.338 -0.2238  0.3926  0.1695
12054TIP3    H157653   2.210   3.004  12.345  0.9054  0.8102  1.6258
12054TIP3    H257654   2.091   3.090  12.305  0.2224 -1.1692 -0.9199
12055TIP3   OH257655   2.056   1.010  12.905  0.0696  0.5542 -0.3747
12055TIP3    H157656   2.106   0.963  12.838  0.3988 -0.3736  0.4993
12055TIP3    H257657   2.114   1.080  12.934  0.8521 -0.4520  0.5557
12056TIP3   OH257658   5.845   5.657  11.514  0.2471  0.0808 -0.1453
12056TIP3    H157659   5.849   5.684  11.606 -0.3973 -0.8710  0.1847
12056TIP3    H257660   5.824   5.564  11.517  2.0636 -0.4141 -1.2435
12057TIP3   OH257661   3.121   4.645  16.506 -0.4306 -0.3293  0.5078
12057TIP3    H157662   3.071   4.565  16.493 -0.8273 -0.1214  0.7526
12057TIP3    H257663   3.080   4.688  16.581 -0.0066 -0.0647  0.5922
12058TIP3   OH257664   5.289   5.632  13.149  0.0356  0.4538  0.5335
12058TIP3    H157665   5.254   5.716  13.119 -1.5774 -0.8622 -1.6290
12058TIP3    H257666   5.315   5.587  13.068  1.2374 -0.9831  1.6632
12059TIP3   OH257667   1.442   2.133  16.029  0.1406 -0.2577 -0.7317
12059TIP3    H157668   1.418   2.185  15.952 -0.2870  0.3511 -0.2064
12059TIP3    H257669   1.503   2.067  15.996  0.5378  0.4568 -1.4570
12060TIP3   OH257670   2.549   0.370  13.102  0.1222  0.1924  0.4356
12060TIP3    H157671   2.621   0.321  13.143 -0.3975 -1.6231 -0.7028
12060TIP3    H257672   2.592   0.442  13.056  1.1271 -0.3338  0.5203
12061TIP3   OH257673   2.938   6.771  15.728  0.3878  0.3128  0.3721
12061TIP3    H157674   3.010   6.828  15.754 -0.2919  0.8432  1.1425
12061TIP3    H257675   2.861   6.807  15.772 -0.2024 -0.7474  0.2555
12062TIP3   OH257676   2.217   0.295  12.493 -0.0208  0.2300  0.2926
12062TIP3    H157677   2.214   0.374  12.548 -0.8952 -0.1876  0.8522
12062TIP3    H257678   2.143   0.242  12.521  1.5697 -1.6511  1.1830
12063TIP3   OH257679   6.636   0.384  11.927 -0.2256 -0.7199 -0.0202
12063TIP3    H157680   6.563   0.443  11.909 -0.0712 -1.2250 -2.7026
12063TIP3    H257681   6.602   0.297  11.910  0.9961 -0.9579 -1.4482
12064TIP3   OH257682   4.277   3.154  16.467 -0.2201 -0.1886  0.3792
12064TIP3    H157683   4.368   3.178  16.487  0.0628 -0.6258 -0.3493
12064TIP3    H257684   4.237   3.236  16.439  0.0665 -0.0765  0.2876
12065TIP3   OH257685   4.825   1.980   4.138  0.3948 -0.4778 -0.2336
12065TIP3    H157686   4.756   2.045   4.151 -0.4773 -1.1143 -1.5234
12065TIP3    H257687   4.902   2.018   4.180 -0.9695 -0.2418  2.2517
12066TIP3   OH257688   3.455   1.270   5.630  0.1974  0.0856 -0.2892
12066TIP3    H157689   3.391   1.199   5.630 -1.1697  1.1785  2.5457
12066TIP3    H257690   3.537   1.229   5.656 -0.1690 -0.7181 -0.3785
12067TIP3   OH257691   0.367   2.999   4.911 -0.1521  0.2133 -0.5880
12067TIP3    H157692   0.281   3.001   4.951 -0.7403  1.2273 -1.8268
12067TIP3    H257693   0.350   3.003   4.817  1.2341  0.1779 -0.8631
12068TIP3   OH257694   4.325   4.999  14.134 -0.2075 -0.5480 -0.2714
12068TIP3    H157695   4.240   4.995  14.089 -0.2187 -1.3820 -0.1860
12068TIP3    H257696   4.362   5.082  14.106 -1.1800 -0.0326 -0.0846
12069TIP3   OH257697   1.266   2.093   5.864 -0.3784  0.2826 -0.0092
12069TIP3    H157698   1.189   2.123   5.816 -1.8980 -0.6633  1.6935
12069TIP3    H257699   1.239   2.095   5.956  1.8397  0.4439  0.7015
12070TIP3   OH257700   5.831   1.877   3.146 -0.5100 -0.0584 -0.4729
12070TIP3    H157701   5.747   1.921   3.158  0.4509  1.5060  1.1300
12070TIP3    H257702   5.826   1.800   3.203 -0.9515 -0.1084 -0.5758
12071TIP3   OH257703   5.742   3.601   2.702 -0.1447  0.5140  0.1603
12071TIP3    H157704   5.683   3.553   2.759 -0.8678 -0.6862 -1.4956
12071TIP3    H257705   5.829   3.583   2.737 -0.5635 -0.1902  0.8769
12072TIP3   OH257706   2.732   1.535  14.952 -0.6057 -0.7462  0.0532
12072TIP3    H157707   2.793   1.604  14.927 -0.4745 -0.9064 -0.0706
12072TIP3    H257708   2.703   1.559  15.040  0.5091 -1.2593  0.5814
12073TIP3   OH257709   0.242   4.016  12.465 -0.1708  0.0504 -0.4517
12073TIP3    H157710   0.212   3.933  12.427 -0.5818  0.3752 -0.8559
12073TIP3    H257711   0.267   4.069  12.390  0.8849  0.0002 -0.1459
12074TIP3   OH257712   1.329   0.399   2.542  0.2523 -0.0590 -0.6388
12074TIP3    H157713   1.239   0.369   2.530 -0.2880  1.3133 -0.1266
12074TIP3    H257714   1.344   0.460   2.470  0.3842  0.5835 -0.0706
12075TIP3   OH257715   0.901   1.632   6.515  0.0064 -0.1595 -0.1500
12075TIP3    H157716   0.896   1.711   6.461  1.3943 -1.0513 -1.7181
12075TIP3    H257717   0.813   1.620   6.548 -0.6934  0.9865 -1.4680
12076TIP3   OH257718   1.379   2.796  17.076  0.3748  0.5034  0.4733
12076TIP3    H157719   1.289   2.772  17.094  0.1955  2.0335  1.8560
12076TIP3    H257720   1.411   2.728  17.017 -1.5617 -0.2473  0.2303
12077TIP3   OH257721   0.244   3.563   1.633 -0.1114 -0.3675  0.1195
12077TIP3    H157722   0.165   3.519   1.600 -1.0524 -0.6478  2.5376
12077TIP3    H257723   0.253   3.640   1.577 -1.9384 -0.4923 -0.4137
12078TIP3   OH257724   2.213   3.191  13.583 -0.2300  0.1788 -0.3202
12078TIP3    H157725   2.174   3.171  13.668 -1.3739  1.4464 -0.5211
12078TIP3    H257726   2.296   3.234  13.604 -1.1355  1.7514  0.2231
12079TIP3   OH257727   4.965   5.816  14.264  0.5664 -0.0209 -0.6400
12079TIP3    H157728   5.027   5.886  14.242 -2.0269  2.4119 -0.6302
12079TIP3    H257729   4.972   5.807  14.359 -0.1240  1.3195 -0.4415
12080TIP3   OH257730   2.064   4.652   3.562 -0.6838 -0.1953 -0.2905
12080TIP3    H157731   2.057   4.671   3.468  0.0377  1.2227 -0.0959
12080TIP3    H257732   2.081   4.738   3.602  0.6648 -0.9969  0.9489
12081TIP3   OH257733   3.140   5.318  12.587 -0.1798 -0.4964  0.0777
12081TIP3    H157734   3.184   5.356  12.511 -0.7003  1.2553  0.6198
12081TIP3    H257735   3.063   5.274  12.551 -0.5712  0.5550 -0.3913
12082TIP3   OH257736   2.604   1.515   2.486  0.2516 -0.1243  0.2549
12082TIP3    H157737   2.638   1.428   2.507 -0.9774 -0.8069 -0.4624
12082TIP3    H257738   2.545   1.537   2.558 -0.2519 -0.3584 -0.0798
12083TIP3   OH257739   3.617   0.303   1.604 -0.4713 -0.0722 -0.4384
12083TIP3    H157740   3.595   0.292   1.511  0.1030 -1.1382 -0.4652
12083TIP3    H257741   3.648   0.217   1.631 -1.8415 -0.1259  1.0999
12084TIP3   OH257742   0.935   6.628  11.079 -0.0185 -0.6112  0.0509
12084TIP3    H157743   0.899   6.611  10.993  1.8933  0.6870 -1.0923
12084TIP3    H257744   0.863   6.668  11.128 -0.8401 -0.3627 -1.3056
12085TIP3   OH257745   0.152   5.192  14.015 -0.6580 -0.0517 -0.1224
12085TIP3    H157746   0.182   5.104  14.037 -1.8132 -0.2631  0.7175
12085TIP3    H257747   0.134   5.189  13.921  0.2308 -0.4217 -0.2852
12086TIP3   OH257748   5.060   2.651   0.628 -0.0771 -0.0006  0.1011
12086TIP3    H157749   5.111   2.732   0.639 -0.1835  0.4170 -1.9969
12086TIP3    H257750   5.050   2.642   0.533 -1.7608 -1.4390  0.3638
12087TIP3   OH257751   2.822   6.505   4.593 -0.6465 -0.3933  0.2399
12087TIP3    H157752   2.757   6.509   4.664  0.3645 -0.2069  1.1836
12087TIP3    H257753   2.858   6.594   4.589  1.6345 -1.1540  1.7766
12088TIP3   OH257754   3.046   2.481  15.312  0.4867 -0.2702 -0.0742
12088TIP3    H157755   3.024   2.396  15.274 -0.8091 -0.0922  0.2127
12088TIP3    H257756   3.141   2.480  15.321  0.4885 -1.7128 -0.0365
12089TIP3   OH257757   4.011   5.253  15.485  0.4102  0.3063 -0.0513
12089TIP3    H157758   4.027   5.242  15.391 -0.8066 -0.7121 -0.1586
12089TIP3    H257759   4.072   5.191  15.527 -1.1819 -1.5575 -0.3444
12090TIP3   OH257760   0.871   6.362  13.620 -0.8249 -0.3206 -0.5046
12090TIP3    H157761   0.894   6.340  13.529  1.8035  1.5606 -0.4179
12090TIP3    H257762   0.895   6.284  13.670 -1.8308 -1.1900 -1.3388
12091TIP3   OH257763   1.186   4.494  10.366  0.0249 -0.3089  0.1660
12091TIP3    H157764   1.186   4.566  10.303  3.6787 -0.0099  0.2801
12091TIP3    H257765   1.225   4.421  10.319 -0.4308 -1.1609  1.0732
12092TIP3   OH257766   3.242   0.611  13.692  0.7811 -0.1942 -0.0661
12092TIP3    H157767   3.263   0.640  13.603 -0.1857  0.8331  0.0236
12092TIP3    H257768   3.288   0.527  13.701  1.5755  0.0900 -1.2320
12093TIP3   OH257769   2.964   4.123   1.957 -0.4505  0.1217 -0.2454
12093TIP3    H157770   2.931   4.210   1.977 -1.4277 -0.2497 -0.1606
12093TIP3    H257771   2.940   4.070   2.033 -0.2950 -0.3195 -0.4979
12094TIP3   OH257772   3.644   4.586   4.056  0.6265 -0.1181  0.1551
12094TIP3    H157773   3.690   4.578   4.140  0.1123 -1.0414  0.3576
12094TIP3    H257774   3.705   4.553   3.991  1.1781  0.9648  0.1007
12095TIP3   OH257775   0.862   0.829   1.405 -0.2370  0.2433 -0.3862
12095TIP3    H157776   0.825   0.887   1.339 -0.8454 -0.3338 -0.5711
12095TIP3    H257777   0.954   0.822   1.381 -0.1970  0.9779 -0.4676
12096TIP3   OH257778   4.297   0.976  12.105  0.0688  0.5146 -0.4834
12096TIP3    H157779   4.207   0.952  12.126 -0.0157  1.6740  0.6056
12096TIP3    H257780   4.289   1.035  12.030  0.0423 -0.3910 -1.2087
12097TIP3   OH257781   5.228   1.761   1.487 -0.2479  0.0179 -0.4598
12097TIP3    H157782   5.222   1.778   1.393  0.1463  0.0885 -0.4762
12097TIP3    H257783   5.181   1.834   1.527  1.3520  1.1573 -0.5336
12098TIP3   OH257784   6.481   3.574   5.331 -0.0187  0.2598  0.0887
12098TIP3    H157785   6.492   3.480   5.346  0.5145  0.3756  0.4730
12098TIP3    H257786   6.547   3.595   5.265  1.1871  0.7092  1.3927
12099TIP3   OH257787   0.291   4.866   4.335 -0.0279 -0.2604 -0.8527
12099TIP3    H157788   0.385   4.856   4.347  0.0334  1.5602  0.5723
12099TIP3    H257789   0.276   4.844   4.243  1.3761 -2.9056 -0.5413
12100TIP3   OH257790   4.304   0.917   3.232 -0.0056  0.0659  0.5199
12100TIP3    H157791   4.222   0.961   3.253  0.2844  1.7243 -1.4648
12100TIP3    H257792   4.359   0.931   3.310 -0.6373  1.4881  0.7427
12101TIP3   OH257793   5.623   5.691  10.333 -0.9339  0.4370  0.1091
12101TIP3    H157794   5.639   5.692  10.428 -1.1660 -0.3005  0.1621
12101TIP3    H257795   5.659   5.774  10.302  0.8783 -0.1350  0.5545
12102TIP3   OH257796   4.946   3.275  12.016  0.1530  0.2369 -0.3912
12102TIP3    H157797   4.862   3.285  11.971 -0.5778  0.0393  0.8850
12102TIP3    H257798   4.936   3.324  12.097  0.5375 -1.4370  0.7155
12103TIP3   OH257799   0.781   4.329  11.955  0.1054 -0.5245  0.0506
12103TIP3    H157800   0.854   4.390  11.940  0.8807 -1.5305 -0.3804
12103TIP3    H257801   0.814   4.268  12.021 -1.0386  0.1011  1.2570
12104TIP3   OH257802   6.261   6.639   0.107  0.0719 -0.0210  0.2958
12104TIP3    H157803   6.263   6.735   0.107  4.0935  0.1543  3.0037
12104TIP3    H257804   6.198   6.617   0.175 -3.1417  0.4010 -2.3081
12105TIP3   OH257805   1.209   2.044   2.918  0.2398 -0.4730  0.1817
12105TIP3    H157806   1.170   1.981   2.858 -1.4831 -0.1193  0.8885
12105TIP3    H257807   1.160   2.035   2.999  0.6456  1.0322  0.6402
12106TIP3   OH257808   1.677   1.861  14.757  0.2014  0.1890 -0.6063
12106TIP3    H157809   1.734   1.800  14.711  0.3156  0.2508 -0.5463
12106TIP3    H257810   1.604   1.876  14.697  1.0081  1.3301 -1.3476
12107TIP3   OH257811   2.848   4.976  11.615  0.2075  0.1600 -0.7969
12107TIP3    H157812   2.893   4.941  11.692  0.2392  0.9515 -0.4473
12107TIP3    H257813   2.913   4.973  11.545 -0.0838 -1.3818 -1.0334
12108TIP3   OH257814   5.372   3.198  14.680 -0.0805  0.3996 -0.3263
12108TIP3    H157815   5.335   3.238  14.601  1.3531  2.1694 -0.1586
12108TIP3    H257816   5.467   3.199  14.665  0.4005  2.5345  2.1388
12109TIP3   OH257817   5.269   6.066   4.021  0.1152  0.0680 -0.2286
12109TIP3    H157818   5.233   5.978   4.012  0.9219 -0.0674 -3.0205
12109TIP3    H257819   5.229   6.100   4.101 -0.4518 -2.6933  0.7851
12110TIP3   OH257820   6.569   3.811   0.539 -0.3454 -0.2219  0.2034
12110TIP3    H157821   6.622   3.734   0.558 -0.2179  0.4032  2.8053
12110TIP3    H257822   6.562   3.857   0.623  1.2267  3.6737 -1.5424
12111TIP3   OH257823   4.084   3.252   6.013 -0.2890 -0.3089 -0.7404
12111TIP3    H157824   4.168   3.253   6.060 -0.6178 -2.9047  0.0668
12111TIP3    H257825   4.019   3.232   6.080 -1.7294  2.1606 -1.2544
12112TIP3   OH257826   3.205   3.249   2.577  0.0177 -0.2334 -0.4994
12112TIP3    H157827   3.246   3.319   2.526  1.1505 -1.3320 -1.1675
12112TIP3    H257828   3.157   3.198   2.512 -0.1648 -0.5116 -0.1484
12113TIP3   OH257829   3.390   5.268  14.083 -0.1231 -0.2666 -0.1841
12113TIP3    H157830   3.300   5.239  14.087 -0.2720  0.0349 -1.0637
12113TIP3    H257831   3.441   5.196  14.120 -0.7984  0.0137  1.3532
12114TIP3   OH257832   2.952   3.765   1.382  0.4937 -0.1713 -0.0229
12114TIP3    H157833   2.930   3.850   1.420 -2.9244  0.0471 -2.0889
12114TIP3    H257834   3.009   3.786   1.308  1.3179  0.0672  0.6605
12115TIP3   OH257835   1.991   6.660  11.720 -0.4078  0.7555  0.4714
12115TIP3    H157836   1.945   6.579  11.699 -0.5357  1.0414 -0.3671
12115TIP3    H257837   1.923   6.720  11.750 -0.6259  1.2182 -0.8857
12116TIP3   OH257838   5.821   3.470   2.434 -0.3454  0.8933  0.7717
12116TIP3    H157839   5.825   3.387   2.482 -2.3011  0.6085  0.5029
12116TIP3    H257840   5.790   3.533   2.499  0.8743  1.3880  0.9020
12117TIP3   OH257841   2.434   5.327  14.998 -0.2853 -0.3726 -0.2965
12117TIP3    H157842   2.397   5.241  15.016 -0.4167 -0.3593 -0.4934
12117TIP3    H257843   2.493   5.312  14.924 -2.5817  0.2227 -2.3976
12118TIP3   OH257844   2.655   5.161  13.191 -0.0125 -0.1477 -0.1888
12118TIP3    H157845   2.699   5.231  13.239 -2.2452  0.7210  0.7017
12118TIP3    H257846   2.647   5.194  13.101  0.0941  0.1630 -0.0832
12119TIP3   OH257847   4.263   3.653  11.263 -0.4573  0.1446 -0.0684
12119TIP3    H157848   4.276   3.735  11.215  0.0441  0.7043  0.9775
12119TIP3    H257849   4.274   3.678  11.355  1.2010 -1.3920  0.1977
12120TIP3   OH257850   6.581   4.495  14.942  0.0809 -0.4999  0.3087
12120TIP3    H157851   6.563   4.445  14.863 -0.1847 -0.7947  0.5560
12120TIP3    H257852   6.541   4.445  15.013 -0.7842  0.3968  0.4792
12121TIP3   OH257853   6.609   2.939   2.021 -0.5163 -0.2608  0.5465
12121TIP3    H157854   6.589   2.972   2.109 -1.4437  0.0477  0.2340
12121TIP3    H257855   6.687   2.988   1.995 -0.9004  0.4859  0.7575
12122TIP3   OH257856   0.058   0.103   3.858 -0.1153 -0.7164 -0.0404
12122TIP3    H157857   0.054   0.198   3.870  0.4362 -0.3781 -2.0745
12122TIP3    H257858   0.129   0.074   3.915 -1.1578 -0.1331  1.6207
12123TIP3   OH257859   3.249   1.437   4.542  0.5234 -0.3544  0.2144
12123TIP3    H157860   3.233   1.343   4.550 -1.2624 -0.0056  1.4744
12123TIP3    H257861   3.327   1.453   4.594  0.0416 -0.9711  1.1565
12124TIP3   OH257862   3.628   3.211  14.220 -0.1201 -0.3297  0.2457
12124TIP3    H157863   3.602   3.265  14.295  0.1930 -1.9062  1.5553
12124TIP3    H257864   3.548   3.163  14.197 -0.0796 -0.2372 -0.0821
12125TIP3   OH257865   6.353   0.996   4.927 -0.1712  0.0078  0.2544
12125TIP3    H157866   6.350   1.064   4.860 -0.3558  1.0882  1.3393
12125TIP3    H257867   6.435   0.949   4.909  1.6266  2.4995  1.3461
12126TIP3   OH257868   0.177   3.021  12.293  0.2054  0.3045  0.2261
12126TIP3    H157869   0.186   3.088  12.361  0.8130  1.1192 -0.6324
12126TIP3    H257870   0.206   3.064  12.213  0.1739 -0.8589 -0.4313
12127TIP3   OH257871   1.436   6.787  15.086  0.3016  0.2917  0.8917
12127TIP3    H157872   1.414   6.808  15.177 -0.9807  0.9483  0.4450
12127TIP3    H257873   1.385   6.709  15.066 -0.8060  1.1545  0.2120
12128TIP3   OH257874   4.726   6.008   4.802  0.2174 -0.5120  0.0795
12128TIP3    H157875   4.788   6.076   4.830 -0.2312 -0.9091  2.1746
12128TIP3    H257876   4.672   5.991   4.879 -2.9520  0.2267 -1.7877
12129TIP3   OH257877   5.936   2.595  12.337 -0.1828  0.0474 -0.1603
12129TIP3    H157878   6.018   2.558  12.370 -0.7767  0.0157  1.3710
12129TIP3    H257879   5.877   2.519  12.331  0.1324 -0.1057 -2.1978
12130TIP3   OH257880   0.982   0.058  15.671 -0.0097  0.3776  0.4160
12130TIP3    H157881   1.032   0.138  15.653 -0.0654  0.1264 -0.9822
12130TIP3    H257882   0.927   0.080  15.746 -1.4570  2.3420 -1.1175
12131TIP3   OH257883   6.382   0.761   3.471  0.5066  0.6785 -0.2934
12131TIP3    H157884   6.398   0.745   3.378  0.7993  2.1595 -0.5270
12131TIP3    H257885   6.292   0.794   3.475  0.4589  0.5195 -0.0434
12132TIP3   OH257886   4.278   4.582   3.494  0.0197  0.2064 -0.0447
12132TIP3    H157887   4.202   4.613   3.542  0.0195 -0.4346  0.3940
12132TIP3    H257888   4.317   4.660   3.455 -1.9144  0.3452 -1.8701
12133TIP3   OH257889   5.928   6.501  15.728 -0.0695  0.4828 -0.4257
12133TIP3    H157890   5.917   6.596  15.721  0.8465  0.7235  0.9294
12133TIP3    H257891   5.983   6.489  15.806  0.7003 -1.1115 -1.1693
12134TIP3   OH257892   5.925   6.298   1.811 -0.1263  0.0805  0.2290
12134TIP3    H157893   5.880   6.221   1.846  1.0548 -0.7228  0.0363
12134TIP3    H257894   6.017   6.286   1.835  0.3746  0.5610 -1.2828
12135TIP3   OH257895   5.235   5.007  16.708 -0.0401 -0.0844 -0.1075
12135TIP3    H157896   5.223   5.058  16.788 -0.6281  2.3702 -1.6751
12135TIP3    H257897   5.224   4.916  16.736  0.7315  0.6110  2.7498
12136TIP3   OH257898   5.189   4.414   0.588  0.1594  0.0547  0.6545
12136TIP3    H157899   5.173   4.467   0.509 -0.8669  2.6189  2.4395
12136TIP3    H257900   5.262   4.458   0.631  0.6991 -1.3089  1.1853
12137TIP3   OH257901   3.617   1.494   5.785 -0.4662  0.0793 -0.7695
12137TIP3    H157902   3.660   1.410   5.771  0.2561  0.2279  0.4262
12137TIP3    H257903   3.523   1.474   5.784 -0.3005 -0.7524 -0.3642
12138TIP3   OH257904   6.552   6.324   3.461  0.6473  0.1450  0.0813
12138TIP3    H157905   6.468   6.369   3.451  1.0273  0.5979 -1.2137
12138TIP3    H257906   6.584   6.351   3.547 -1.0455 -0.9379  1.1212
12139TIP3   OH257907   5.748   6.376   4.970 -0.8812  0.3282  0.4248
12139TIP3    H157908   5.748   6.448   5.033 -0.3760  0.2033  0.5696
12139TIP3    H257909   5.811   6.312   5.005 -3.3395 -1.5123  1.7832
12140TIP3   OH257910   3.101   4.051  16.992 -0.0078 -0.6420 -0.1959
12140TIP3    H157911   3.125   4.066  16.901 -3.3010  0.0832 -1.0461
12140TIP3    H257912   3.151   4.116  17.041 -0.7753  1.3519 -1.9077
12141TIP3   OH257913   5.283   0.787   0.475 -0.0744  0.2712  0.4662
12141TIP3    H157914   5.271   0.752   0.563 -0.5545 -1.4593 -0.2332
12141TIP3    H257915   5.225   0.863   0.471 -0.7548 -0.1877  1.3482
12142TIP3   OH257916   3.699   3.716  17.097 -0.6599  0.2835 -0.3346
12142TIP3    H157917   3.749   3.792  17.127  0.9704 -1.7413  2.5496
12142TIP3    H257918   3.643   3.751  17.028  0.1375  4.0378  0.6594
12143TIP3   OH257919   5.180   3.667   0.636  0.2378  0.3831  0.2583
12143TIP3    H157920   5.226   3.732   0.689  0.5623  0.5197 -0.1830
12143TIP3    H257921   5.247   3.602   0.613 -0.2639 -0.5683  1.3916
12144TIP3   OH257922   6.211   5.903   1.491 -0.8307  0.1759  0.4004
12144TIP3    H157923   6.241   5.938   1.407  1.8649 -1.4377  0.5510
12144TIP3    H257924   6.197   5.979   1.546  0.4042  1.1818 -0.6142
12145TIP3   OH257925   3.770   3.373   4.992  0.1341 -0.2982  0.2965
12145TIP3    H157926   3.719   3.437   5.040 -0.1194  0.4024 -0.8591
12145TIP3    H257927   3.861   3.393   5.014  0.0874  0.7860 -0.4012
12146TIP3   OH257928   6.626   4.860   4.651 -0.1320 -0.5019  0.1108
12146TIP3    H157929   6.630   4.801   4.726  0.4593  2.8082  2.9498
12146TIP3    H257930   6.543   4.907   4.662 -0.1651 -0.1378 -1.5025
12147TIP3   OH257931   4.723   0.827  13.295  0.6835  0.6395 -0.2710
12147TIP3    H157932   4.730   0.880  13.215  0.1640 -0.4090 -1.0361
12147TIP3    H257933   4.811   0.791  13.307  0.9671  1.4165  0.0947
12148TIP3   OH257934   5.139   5.107   5.284  0.2378 -0.6535  0.1583
12148TIP3    H157935   5.072   5.115   5.216  1.1742 -1.8846 -0.9635
12148TIP3    H257936   5.099   5.146   5.362 -1.3454 -0.3497 -0.7638
12149TIP3   OH257937   1.768   5.905   1.460  0.1788  0.4721 -0.1822
12149TIP3    H157938   1.677   5.882   1.440  0.7692 -0.9873 -1.3324
12149TIP3    H257939   1.762   5.992   1.500 -1.6080  0.9054 -1.2867
12150TIP3   OH257940   5.972   6.362   3.544 -0.0071 -0.0940 -0.4555
12150TIP3    H157941   6.044   6.377   3.606  1.1120 -0.7839 -1.5331
12150TIP3    H257942   5.894   6.392   3.590  1.2002  2.7245 -0.0457
12151TIP3   OH257943   2.258   3.726  17.037  0.1171  0.6413  0.0923
12151TIP3    H157944   2.191   3.684  16.984  0.5237 -0.7396  0.6029
12151TIP3    H257945   2.283   3.804  16.988 -0.7181  0.3103 -0.8929
12152TIP3   OH257946   3.158   3.193   1.309 -0.2556 -0.0230 -0.3922
12152TIP3    H157947   3.253   3.200   1.316 -0.2008 -1.1393  0.3818
12152TIP3    H257948   3.138   3.217   1.219  0.6103  1.5255 -0.1985
12153TIP3   OH257949   5.959   5.180   4.782 -0.1172  0.1830  0.2858
12153TIP3    H157950   6.042   5.229   4.779 -0.4420  0.7019 -0.7353
12153TIP3    H257951   5.922   5.202   4.867  0.9379 -0.3053  0.8907
12154TIP3   OH257952   0.769   2.749  11.996  0.2895  0.3649  0.3815
12154TIP3    H157953   0.860   2.763  12.024  0.7222  0.0367 -0.7989
12154TIP3    H257954   0.768   2.658  11.965  0.0366  0.9121 -1.3210
12155TIP3   OH257955   5.033   1.036  12.439 -0.2891 -0.0657 -0.1836
12155TIP3    H157956   5.094   1.104  12.410  0.8774 -0.7966  0.4867
12155TIP3    H257957   4.975   1.080  12.501  0.0890  0.4494 -0.1944
12156TIP3   OH257958   6.284   0.156   2.671 -0.1023  0.3028 -0.2046
12156TIP3    H157959   6.206   0.163   2.616 -0.2521  0.0192 -0.0320
12156TIP3    H257960   6.346   0.105   2.619 -0.5985 -0.8152  0.2642
12157TIP3   OH257961   3.186   4.742  12.418  0.2304  0.0163  0.4590
12157TIP3    H157962   3.181   4.715  12.510 -1.7416  0.6592  0.5875
12157TIP3    H257963   3.124   4.685  12.373 -0.1513  0.8957 -0.1549
12158TIP3   OH257964   3.871   5.729  13.515 -0.5146  0.3335  0.1102
12158TIP3    H157965   3.947   5.672  13.516 -0.5790  0.1397 -1.9182
12158TIP3    H257966   3.904   5.812  13.480 -0.4987  1.4842  2.6668
12159TIP3   OH257967   6.227   3.907  16.002 -0.4601  0.2323  0.7101
12159TIP3    H157968   6.315   3.937  16.023  0.2015 -0.2778 -1.0900
12159TIP3    H257969   6.170   3.981  16.022  0.3246  0.4681  2.1566
12160TIP3   OH257970   1.253   3.703   5.414  0.2642  0.7510  0.7551
12160TIP3    H157971   1.328   3.758   5.437 -0.1757  1.7419 -0.0777
12160TIP3    H257972   1.200   3.701   5.494  1.0266  0.2722  1.2622
12161TIP3   OH257973   0.556   4.278  15.667  0.0710 -0.2421  0.0359
12161TIP3    H157974   0.470   4.240  15.684 -0.3192  0.5181 -0.2213
12161TIP3    H257975   0.568   4.268  15.572 -0.5869  1.3992 -0.2433
12162TIP3   OH257976   3.440   1.465   4.737  0.4311  0.0987 -0.0192
12162TIP3    H157977   3.443   1.561   4.742  1.1139  0.1374 -0.8591
12162TIP3    H257978   3.507   1.436   4.798  0.5716  0.1707 -0.1393
12163TIP3   OH257979   5.689   1.210  11.985 -0.2654 -0.0212  0.3389
12163TIP3    H157980   5.732   1.197  11.900 -0.8662 -1.2404  0.1908
12163TIP3    H257981   5.601   1.238  11.963 -0.1865  0.4290  0.5874
12164TIP3   OH257982   0.297   3.563   0.489  0.5588  0.0735  0.1424
12164TIP3    H157983   0.377   3.569   0.541  0.3377 -0.0848  0.5050
12164TIP3    H257984   0.260   3.651   0.491  1.0805  0.3162 -0.6042
12165TIP3   OH257985   4.054   4.920  11.895 -0.3576 -0.3624  0.6300
12165TIP3    H157986   4.087   4.913  11.985  0.0679 -0.6587  0.4581
12165TIP3    H257987   4.046   4.829  11.866 -2.0624 -0.3289  0.9165
12166TIP3   OH257988   0.748   4.705  11.701  0.1870  0.0361 -0.0150
12166TIP3    H157989   0.684   4.763  11.744 -0.3353 -0.4220 -0.1650
12166TIP3    H257990   0.769   4.749  11.619  1.5310  1.1445  0.8894
12167TIP3   OH257991   1.132   6.212   5.823 -0.2465 -0.2916  0.3360
12167TIP3    H157992   1.185   6.144   5.781 -0.8757  0.2121 -1.3833
12167TIP3    H257993   1.177   6.294   5.804 -0.8994  0.0093  0.0240
12168TIP3   OH257994   3.137   3.701  12.895 -0.0729 -0.0735  0.6293
12168TIP3    H157995   3.180   3.715  12.980  2.3653  0.7898 -0.6572
12168TIP3    H257996   3.207   3.668  12.838 -1.7469 -1.0266 -0.9708
12169TIP3   OH257997   3.407   6.677  13.018 -0.3732  0.3302 -0.1400
12169TIP3    H157998   3.434   6.612  12.952  0.7322 -0.0566  0.6762
12169TIP3    H257999   3.469   6.749  13.007  0.8810 -0.4367  1.5492
12170TIP3   OH258000   5.531   6.198  16.898  0.3847  0.2070  0.4160
12170TIP3    H158001   5.512   6.269  16.838 -0.9876  0.4895  1.1311
12170TIP3    H258002   5.502   6.230  16.984  0.1059 -1.0517  0.8274
12171TIP3   OH258003   5.189   0.332  15.941  0.2141 -0.3360  0.1804
12171TIP3    H158004   5.244   0.354  15.866 -2.2427 -1.8782 -2.2862
12171TIP3    H258005   5.190   0.411  15.995  1.1238  1.3730 -2.1262
12172TIP3   OH258006   0.638   6.529  15.026 -0.2694 -0.5556 -0.1193
12172TIP3    H158007   0.658   6.466  14.957  1.6942 -1.3042  1.0659
12172TIP3    H258008   0.575   6.484  15.082 -1.1194 -0.3146 -0.8549
12173TIP3   OH258009   2.351   3.624   5.020 -0.2900 -0.2347  0.7182
12173TIP3    H158010   2.426   3.669   5.059 -0.3237 -0.0744  0.5942
12173TIP3    H258011   2.300   3.593   5.095 -0.5453  0.3870  0.8002
12174TIP3   OH258012   0.743   0.819  14.205  0.3929 -0.3319  0.3650
12174TIP3    H158013   0.789   0.864  14.134  1.8425 -0.1134  1.4065
12174TIP3    H258014   0.725   0.887  14.269 -1.3920 -0.4224  0.0228
12175TIP3   OH258015   5.584   6.789  16.074  0.4851 -0.6612 -0.0244
12175TIP3    H158016   5.658   6.734  16.099  0.4487 -0.2803  0.9451
12175TIP3    H258017   5.514   6.765  16.135  0.8158  1.2321  1.1848
12176TIP3   OH258018   1.969   4.742  15.314 -0.1062 -0.0841 -0.4452
12176TIP3    H158019   1.889   4.795  15.303  0.5488  1.4965  1.8475
12176TIP3    H258020   2.012   4.747  15.228 -0.4644  2.5341 -0.5653
12177TIP3   OH258021   1.260   0.043   0.689 -0.0431  0.4348  0.3028
12177TIP3    H158022   1.202   0.000   0.752 -0.6206 -0.8147 -1.0132
12177TIP3    H258023   1.231   0.010   0.604  1.3926  1.2566 -0.5408
12178TIP3   OH258024   5.334   5.284  12.447 -0.0133  0.1032 -0.6857
12178TIP3    H158025   5.312   5.202  12.403 -1.1929 -0.2613  0.5283
12178TIP3    H258026   5.285   5.351  12.399  1.4089  0.2238 -2.0500
12179TIP3   OH258027   5.253   3.953  13.565  0.4979  0.0029 -0.5299
12179TIP3    H158028   5.179   3.894  13.552  1.5918 -1.4669 -0.4689
12179TIP3    H258029   5.221   4.021  13.624 -0.8866 -0.4184 -0.7808
12180TIP3   OH258030   5.025   2.388  13.975  0.2625  0.2299  0.1216
12180TIP3    H158031   5.069   2.311  13.938  0.9803  0.8888 -0.4337
12180TIP3    H258032   4.938   2.386  13.937  0.0313 -0.6955  0.6665
12181TIP3   OH258033   6.333   6.826   3.663  0.5128  0.1944  0.3090
12181TIP3    H158034   6.241   6.833   3.636  0.0659 -0.2399  1.6319
12181TIP3    H258035   6.335   6.751   3.722  1.6465  0.4435  0.6062
12182TIP3   OH258036   6.274   5.953  15.378 -0.6053 -0.0446 -0.4208
12182TIP3    H158037   6.269   6.047  15.398  0.7400  0.2092 -1.1203
12182TIP3    H258038   6.336   5.919  15.443  0.4760 -0.0305 -1.4024
12183TIP3   OH258039   3.987   2.993   4.257  0.0161  0.3886  0.1540
12183TIP3    H158040   3.918   2.978   4.192  0.2948  0.3558 -0.1362
12183TIP3    H258041   4.046   3.055   4.215  0.0654  0.5573  0.4755
12184TIP3   OH258042   6.321   1.024   4.466  0.1644  0.3428 -0.2022
12184TIP3    H158043   6.417   1.025   4.472  0.1647 -0.7911  0.2618
12184TIP3    H258044   6.297   0.935   4.491 -1.0033  0.5478 -0.5484
12185TIP3   OH258045   3.849   2.864  14.813 -0.3942 -0.2448 -0.2423
12185TIP3    H158046   3.847   2.957  14.835 -0.4981 -0.0588 -1.0133
12185TIP3    H258047   3.804   2.858  14.729  0.5866 -0.8234 -0.7523
12186TIP3   OH258048   1.999   6.490  11.958 -0.3202  0.6787 -0.4588
12186TIP3    H158049   1.921   6.527  11.999 -0.8477  0.4432 -1.2159
12186TIP3    H258050   2.072   6.527  12.007 -0.8834  1.4983 -0.2120
12187TIP3   OH258051   3.940   4.971   4.245  0.2298  0.3407  0.0929
12187TIP3    H158052   3.923   5.032   4.316  0.6443  0.7217 -0.1275
12187TIP3    H258053   3.898   5.011   4.168  1.9702  1.2483 -0.4368
12188TIP3   OH258054   3.518   3.880  14.540  0.0080  0.1917 -0.0079
12188TIP3    H158055   3.443   3.820  14.535  0.7406 -0.6268 -2.7727
12188TIP3    H258056   3.592   3.823  14.559  0.4109  0.4978 -0.6330
12189TIP3   OH258057   1.678   5.652   4.290  0.2136  0.2172 -0.0890
12189TIP3    H158058   1.763   5.639   4.332  0.0818 -0.2965  0.0289
12189TIP3    H258059   1.679   5.591   4.216 -0.0603  0.1909 -0.0732
12190TIP3   OH258060   2.097   4.184  11.601 -0.0251  0.3758  0.2552
12190TIP3    H158061   2.146   4.129  11.662 -0.1487  1.1138  1.0395
12190TIP3    H258062   2.009   4.146  11.600  0.1020  0.0767  0.1588
12191TIP3   OH258063   0.125   3.750   4.448 -0.7291  0.3200  0.1344
12191TIP3    H158064   0.079   3.790   4.523 -1.5915 -0.4955  0.0590
12191TIP3    H258065   0.064   3.685   4.415  1.3150 -2.4046  1.3635
12192TIP3   OH258066   5.436   6.124  13.688  0.4751  0.1716  0.3960
12192TIP3    H158067   5.503   6.135  13.755  1.4392 -0.5265 -0.4227
12192TIP3    H258068   5.469   6.174  13.613  0.6868 -1.1402 -0.4156
12193TIP3   OH258069   1.859   6.800  13.832 -0.0080  0.0882 -0.6603
12193TIP3    H158070   1.915   6.723  13.821  0.8285  0.6645 -0.5593
12193TIP3    H258071   1.800   6.798  13.757  0.3519 -0.3637 -0.9404
12194TIP3   OH258072   0.225   6.789  16.563  0.4867 -0.3826  0.0910
12194TIP3    H158073   0.294   6.749  16.510  0.5668  0.6248 -0.6025
12194TIP3    H258074   0.214   6.877  16.525  0.5596  0.3762  1.7489
12195TIP3   OH258075   1.101   6.319  16.691  0.1397 -0.3349  0.2679
12195TIP3    H158076   1.146   6.291  16.611 -0.0382  1.2380 -0.4222
12195TIP3    H258077   1.023   6.364  16.660  0.0452  0.2665  1.3298
12196TIP3   OH258078   3.530   3.035   0.913  0.2390  0.6287 -0.1042
12196TIP3    H158079   3.523   3.114   0.859  1.4750  1.0906  0.3754
12196TIP3    H258080   3.498   2.964   0.856  0.6778  1.2329 -1.1351
12197TIP3   OH258081   5.567   5.644  13.562 -0.6132 -0.1079 -0.4645
12197TIP3    H158082   5.629   5.614  13.495  0.6841  1.3732 -0.0092
12197TIP3    H258083   5.570   5.740  13.556  0.0746  0.1206  2.1262
12198TIP3   OH258084   1.626   4.432  15.993 -0.0315  0.3386  0.4589
12198TIP3    H158085   1.612   4.505  15.933 -0.5433 -0.6747 -0.6727
12198TIP3    H258086   1.695   4.463  16.052 -0.3954  1.8137  0.1455
12199TIP3   OH258087   3.484   2.872  16.716  0.1586 -0.1383 -0.7467
12199TIP3    H158088   3.515   2.849  16.628  0.9626  0.9816 -0.7732
12199TIP3    H258089   3.465   2.965  16.712 -1.7075 -0.4528 -0.2509
12200TIP3   OH258090   1.985   0.635   4.507 -0.5122 -0.5690  0.0475
12200TIP3    H158091   2.071   0.599   4.529  0.5568  0.8906 -1.4637
12200TIP3    H258092   2.003   0.721   4.469 -2.6450 -0.2181 -0.3437
12201TIP3   OH258093   5.687   2.681  13.627 -0.2797 -0.1984  0.1852
12201TIP3    H158094   5.738   2.749  13.584  2.1458 -0.5217  2.3017
12201TIP3    H258095   5.634   2.728  13.692 -0.7839 -0.0888 -0.3012
12202TIP3   OH258096   0.879   3.725   3.673 -0.1418  0.4052 -0.1594
12202TIP3    H158097   0.872   3.799   3.734  0.7684 -0.8631  1.5871
12202TIP3    H258098   0.809   3.740   3.609  1.2158  3.8014 -1.0892
12203TIP3   OH258099   5.491   6.016  15.952  0.5576  0.1569 -0.0262
12203TIP3    H158100   5.568   6.059  15.914  1.2943 -1.3256 -0.3276
12203TIP3    H258101   5.486   6.050  16.042 -0.6450  2.9916 -1.0477
12204TIP3   OH258102   2.943   4.942  11.227  0.0977 -0.3528 -0.1223
12204TIP3    H158103   2.854   4.970  11.207  0.7208  1.0590 -1.0889
12204TIP3    H258104   2.998   5.017  11.203  1.4180 -0.5310  2.0678
12205TIP3   OH258105   1.816   3.180  13.599 -0.6168 -0.1904 -0.2050
12205TIP3    H158106   1.852   3.266  13.620  0.0013 -0.3427 -0.6327
12205TIP3    H258107   1.796   3.141  13.684  2.6641 -1.1517  0.2385
12206TIP3   OH258108   5.829   1.262  14.503 -0.7279 -0.1260 -0.1997
12206TIP3    H158109   5.783   1.329  14.554  1.4314 -0.0975  1.8722
12206TIP3    H258110   5.762   1.197  14.483 -2.0295  0.7006  1.2576
12207TIP3   OH258111   4.227   4.759  16.799 -0.6352  0.3585 -0.0136
12207TIP3    H158112   4.211   4.672  16.761  1.7755 -1.2518  2.2880
12207TIP3    H258113   4.173   4.760  16.879  1.6144 -0.3810  1.6022
12208TIP3   OH258114   3.762   6.279   4.249  0.5346 -0.0381 -0.4457
12208TIP3    H158115   3.672   6.298   4.276 -0.5678 -1.6892 -2.6337
12208TIP3    H258116   3.791   6.209   4.307  0.6731  0.9254  0.6772
12209TIP3   OH258117   0.130   0.948  12.503 -0.2672 -0.0974 -0.0891
12209TIP3    H158118   0.199   0.925  12.441 -1.4198  0.7484 -1.7543
12209TIP3    H258119   0.112   0.867  12.551  1.9041 -0.3071  0.4519
12210TIP3   OH258120   0.953   1.466   5.525 -0.3256 -0.0599  0.2415
12210TIP3    H158121   0.882   1.405   5.546 -0.1323 -0.2801  0.2549
12210TIP3    H258122   1.028   1.410   5.505 -1.0792 -0.0238 -3.3653
12211TIP3   OH258123   0.673   3.524  16.520 -0.0091  0.1110 -0.3309
12211TIP3    H158124   0.702   3.449  16.467 -0.6253 -1.6102  1.6390
12211TIP3    H258125   0.754   3.564  16.551  0.4417 -2.2923  1.9248
12212TIP3   OH258126   4.705   6.059  13.083 -0.2755 -0.3784 -0.4868
12212TIP3    H158127   4.648   6.119  13.131  0.5470  0.9593 -1.1235
12212TIP3    H258128   4.699   6.089  12.992  0.2822 -1.1692 -0.7965
12213TIP3   OH258129   6.455   6.615  15.442  0.5003 -0.4337 -0.6150
12213TIP3    H158130   6.381   6.563  15.471 -0.0940  0.8431  0.2588
12213TIP3    H258131   6.529   6.583  15.495 -0.3137  1.0132  1.5096
12214TIP3   OH258132   2.625   6.737   3.517 -1.0864  0.6217 -0.1204
12214TIP3    H158133   2.714   6.712   3.492 -0.8028  0.2887  1.1629
12214TIP3    H258134   2.570   6.702   3.447 -0.6105 -2.7845  1.0129
12215TIP3   OH258135   5.987   5.399   1.579 -0.2943 -0.2695  0.2159
12215TIP3    H158136   5.984   5.435   1.490  1.7755 -0.7514 -0.0940
12215TIP3    H258137   5.906   5.430   1.620 -0.3291  1.6555 -1.1811
12216TIP3   OH258138   0.545   2.703   5.561 -0.3193  0.5843 -0.1124
12216TIP3    H158139   0.597   2.627   5.588 -0.7194  0.2960 -0.1436
12216TIP3    H258140   0.468   2.665   5.518 -0.4527  1.0120 -0.2542
12217TIP3   OH258141   1.054   5.189   5.043 -0.1266 -0.3616  0.4170
12217TIP3    H158142   1.036   5.270   5.092 -1.2250 -0.2103 -0.2140
12217TIP3    H258143   0.968   5.148   5.033  0.1071 -0.4895 -1.2193
12218TIP3   OH258144   1.376   0.397   5.785 -0.0970 -0.1100 -0.3440
12218TIP3    H158145   1.334   0.441   5.858  2.3388  1.1249  0.4160
12218TIP3    H258146   1.372   0.460   5.713 -1.2284 -0.7650 -0.8780
12219TIP3   OH258147   2.377   1.410  16.753 -0.2919  0.0665  0.1958
12219TIP3    H158148   2.419   1.486  16.794  1.3415 -0.4577 -0.3859
12219TIP3    H258149   2.367   1.436  16.661 -2.0016  0.4592  0.4626
12220TIP3   OH258150   5.101   0.400  15.464 -0.0070  0.5480  0.1852
12220TIP3    H158151   5.028   0.396  15.525 -0.2177  1.3005  0.0010
12220TIP3    H258152   5.153   0.322  15.482  0.1949  0.9960  1.6478
12221TIP3   OH258153   0.208   3.535   3.841 -0.1620 -0.1609 -0.5737
12221TIP3    H158154   0.149   3.496   3.777 -0.8505 -1.0994  0.5702
12221TIP3    H258155   0.292   3.493   3.824 -0.1499  0.1647 -1.3431
12222TIP3   OH258156   1.694   2.535   3.500 -0.2003  0.0796  0.2418
12222TIP3    H158157   1.604   2.524   3.470 -0.1685 -1.3582  0.5908
12222TIP3    H258158   1.748   2.503   3.427  0.0369  0.8002  0.0899
12223TIP3   OH258159   4.112   2.809  15.014 -0.0557  0.1026  0.0401
12223TIP3    H158160   4.087   2.814  15.106 -1.6827  0.2323 -0.3889
12223TIP3    H258161   4.031   2.790  14.968  0.8118 -0.3929 -1.3421
12224TIP3   OH258162   5.835   4.593   1.935  0.0362 -0.3997 -0.1641
12224TIP3    H158163   5.777   4.523   1.906 -1.2800 -0.9094  3.2261
12224TIP3    H258164   5.923   4.555   1.928 -0.4139 -1.3778 -0.8649
12225TIP3   OH258165   1.135   5.038   0.116 -0.4170  0.7878  0.3035
12225TIP3    H158166   1.188   5.112   0.087  0.5533  0.9671  2.3096
12225TIP3    H258167   1.185   4.961   0.089 -1.4657  0.8073 -1.8550
12226TIP3   OH258168   2.890   5.649   5.928  0.3736 -0.8572 -0.1503
12226TIP3    H158169   2.869   5.700   6.005  0.0576 -1.0700 -0.0927
12226TIP3    H258170   2.982   5.625   5.939  0.2803 -1.0438  0.2554
12227TIP3   OH258171   6.675   0.783  12.145  0.5306 -0.3849  0.4287
12227TIP3    H158172   6.684   0.868  12.188 -0.9368  0.3153 -0.5844
12227TIP3    H258173   6.604   0.740  12.192  0.2708 -0.4357 -0.0047
12228TIP3   OH258174   3.451   2.859   3.373  0.2545  0.2860 -0.4932
12228TIP3    H158175   3.478   2.846   3.464 -1.1411 -0.6868 -0.1822
12228TIP3    H258176   3.438   2.953   3.365  2.1267  0.6186 -0.2375
12229TIP3   OH258177   4.988   1.292   2.954 -0.4359  0.0924  0.6424
12229TIP3    H158178   5.064   1.293   2.896 -0.1414  0.3142  1.0344
12229TIP3    H258179   4.959   1.200   2.954  0.1716 -0.1036  0.9425
12230TIP3   OH258180   3.006   3.227   5.835 -0.3423 -0.2083  0.0920
12230TIP3    H158181   2.912   3.212   5.821 -0.7941  1.8556  0.6135
12230TIP3    H258182   3.015   3.234   5.930  0.8597 -3.1192  0.2871
12231TIP3   OH258183   5.247   5.076   0.856 -0.1841 -0.1197 -0.0541
12231TIP3    H158184   5.161   5.080   0.898  0.0298  2.0710  0.2668
12231TIP3    H258185   5.268   5.166   0.834  1.6245 -0.7210 -1.0159
12232TIP3   OH258186   0.159   0.274   4.063  0.1629 -0.1677  0.3171
12232TIP3    H158187   0.242   0.302   4.023 -0.1135  0.1548 -0.0351
12232TIP3    H258188   0.122   0.355   4.100 -1.0324  0.1148 -1.4039
12233TIP3   OH258189   3.907   5.920  11.982  0.2073  0.3672  0.3774
12233TIP3    H158190   3.999   5.924  11.955 -0.1948 -1.0798 -1.4141
12233TIP3    H258191   3.859   5.902  11.902 -1.6120  0.6298  1.3517
12234TIP3   OH258192   0.465   1.989   4.627 -0.0884 -0.1691 -0.4605
12234TIP3    H158193   0.473   2.078   4.660 -0.6440 -0.0341 -0.6692
12234TIP3    H258194   0.535   1.981   4.563  0.4490 -0.1450  0.1143
12235TIP3   OH258195   3.218   1.871   0.520  0.1139  0.1663 -0.4787
12235TIP3    H158196   3.154   1.847   0.454  0.4605 -2.5079  0.0569
12235TIP3    H258197   3.169   1.875   0.602  0.6501 -2.7684  0.0872
12236TIP3   OH258198   3.517   0.431   5.409 -0.2896  0.0031  0.0834
12236TIP3    H158199   3.450   0.381   5.456 -0.8284  0.7053  0.0833
12236TIP3    H258200   3.542   0.374   5.336  1.6963 -1.7940  2.0135
12237TIP3   OH258201   0.533   3.512   0.981  0.0905 -0.0292 -0.0400
12237TIP3    H158202   0.443   3.539   1.003  0.1196 -0.3685  0.5122
12237TIP3    H258203   0.539   3.422   1.013  0.1953 -0.4861 -1.2948
12238TIP3   OH258204   1.445   4.173  13.058  0.5292  0.3749 -0.6742
12238TIP3    H158205   1.443   4.173  13.154  2.1565  0.6507 -0.6035
12238TIP3    H258206   1.386   4.102  13.033 -0.9833  1.1738  0.4655
12239TIP3   OH258207   0.140   2.144  14.127 -0.0827 -0.2124 -0.1744
12239TIP3    H158208   0.171   2.054  14.118 -1.1135 -0.5635 -0.4069
12239TIP3    H258209   0.045   2.137  14.118 -0.1601  0.9239 -0.3710
12240TIP3   OH258210   1.336   2.508  15.749 -0.6257 -0.1843 -0.0168
12240TIP3    H158211   1.333   2.522  15.655  2.6098 -2.1449 -0.5716
12240TIP3    H258212   1.321   2.414  15.759  1.5291 -0.4564  1.1314
12241TIP3   OH258213   4.740   6.296  16.140  0.0721 -0.0140 -0.1246
12241TIP3    H158214   4.824   6.264  16.106  0.5669  0.9783  0.1231
12241TIP3    H258215   4.687   6.312  16.061  0.1025 -0.6656 -0.2805
12242TIP3   OH258216   2.649   3.138   1.877  0.2142  0.1403 -0.3328
12242TIP3    H158217   2.578   3.119   1.939  0.5427  0.1002  0.0382
12242TIP3    H258218   2.722   3.086   1.908  0.0442 -0.8014 -1.4522
12243TIP3   OH258219   1.720   3.921   1.836  0.4273 -0.1365  0.1957
12243TIP3    H158220   1.812   3.928   1.863 -0.0918 -0.5178  2.2029
12243TIP3    H258221   1.683   3.855   1.894 -1.7115  1.8143  1.1731
12244TIP3   OH258222   5.218   3.741   0.976 -0.1516  0.6117  0.6889
12244TIP3    H158223   5.229   3.801   0.902 -0.4742  0.3265  0.4087
12244TIP3    H258224   5.218   3.654   0.937 -0.1209  0.4466  1.0491
12245TIP3   OH258225   5.405   5.312   0.379 -0.0114  0.3835 -0.0852
12245TIP3    H158226   5.392   5.231   0.429 -0.9707  0.0577 -0.8144
12245TIP3    H258227   5.324   5.362   0.393 -0.2281  0.3581 -1.1500
12246TIP3   OH258228   3.630   2.714  12.843 -0.5759  0.1978 -0.5538
12246TIP3    H158229   3.612   2.772  12.769  0.7581  0.8456 -0.4128
12246TIP3    H258230   3.577   2.750  12.914  0.1900  1.2653 -0.4843
12247TIP3   OH258231   4.180   0.526  16.922 -0.4591  0.5480 -0.5918
12247TIP3    H158232   4.230   0.446  16.938 -0.3589  0.7259 -0.0170
12247TIP3    H258233   4.116   0.500  16.855  0.7299  0.4566 -1.7334
12248TIP3   OH258234   1.887   0.012   5.756 -0.4803 -0.1721  0.4113
12248TIP3    H158235   1.851   0.069   5.688  2.0005  1.1570  0.0638
12248TIP3    H258236   1.932  -0.057   5.707  0.7498  0.4165  0.6772
12249TIP3   OH258237   6.592   3.839   2.838  0.1099 -0.1129 -0.4803
12249TIP3    H158238   6.678   3.798   2.824 -0.5679 -1.5391 -0.6007
12249TIP3    H258239   6.580   3.896   2.763  1.1123  0.3871 -0.2786
12250TIP3   OH258240   4.285   1.361   4.047  0.1935  0.2717  0.1855
12250TIP3    H158241   4.366   1.400   4.081  0.1084 -0.2641  1.0604
12250TIP3    H258242   4.239   1.433   4.006  1.4277  0.4461 -0.9454
12251TIP3   OH258243   6.196   3.863  10.535  0.5344  0.0538 -0.1428
12251TIP3    H158244   6.115   3.836  10.493 -0.3068  0.0167  1.4175
12251TIP3    H258245   6.248   3.783  10.542  1.5057  0.3791 -2.7007
12252TIP3   OH258246   6.486   4.064  13.106 -0.3355 -1.3133  0.2702
12252TIP3    H158247   6.548   4.100  13.170 -1.2931  0.6626  0.1700
12252TIP3    H258248   6.532   3.990  13.068  2.7268  0.9792 -0.9525
12253TIP3   OH258249   2.203   6.129   2.089  0.3378 -0.6097  0.5463
12253TIP3    H158250   2.115   6.136   2.127  0.0789 -1.7692  0.2090
12253TIP3    H258251   2.260   6.109   2.164  0.1584 -0.8532  0.6166
12254TIP3   OH258252   6.684   6.753   2.742  0.0891  0.2145 -0.0678
12254TIP3    H158253   6.607   6.782   2.694  0.6997  0.5698 -0.8664
12254TIP3    H258254   6.678   6.657   2.743  0.3338  0.1577 -1.3645
12255TIP3   OH258255   4.279   6.428   0.019  0.0719  0.1420 -0.0342
12255TIP3    H158256   4.184   6.426   0.029 -0.2038 -2.9275 -1.9318
12255TIP3    H258257   4.293   6.475  -0.063  0.0877 -0.2628 -0.2678
12256TIP3   OH258258   5.005   2.026   3.852  0.1117 -0.1120  0.5354
12256TIP3    H158259   5.037   1.939   3.830 -3.5629 -1.4687 -0.2912
12256TIP3    H258260   4.922   2.010   3.897 -0.3315  2.9645  1.0536
12257TIP3   OH258261   4.725   3.482   3.824 -0.0257  0.9536 -0.7328
12257TIP3    H158262   4.658   3.422   3.856  1.3553 -0.1126  0.2040
12257TIP3    H258263   4.721   3.557   3.884  0.7425  0.1399  0.3662
12258TIP3   OH258264   5.734   0.563   5.606 -0.1987  0.0247 -0.4862
12258TIP3    H158265   5.644   0.587   5.630  0.1184  0.6163  0.1641
12258TIP3    H258266   5.781   0.562   5.689  0.6197  0.7317 -0.9277
12259TIP3   OH258267   3.062   6.717   3.007 -0.0616 -0.0782  0.7927
12259TIP3    H158268   3.068   6.627   3.040  0.2167 -0.6485 -0.7406
12259TIP3    H258269   3.014   6.764   3.075 -1.2231 -1.6510  1.1156
12260TIP3   OH258270   6.816   0.052  15.864  0.3633 -0.2420  0.2723
12260TIP3    H158271   6.840   0.145  15.873 -1.6748  0.3746 -0.1733
12260TIP3    H258272   6.804   0.040  15.770  0.2451 -0.8587  0.3633
12261TIP3   OH258273   5.658   3.282  15.132  0.2150  0.0937 -0.5188
12261TIP3    H158274   5.632   3.206  15.184  0.0760 -0.4371 -1.3381
12261TIP3    H258275   5.680   3.245  15.046  1.9374  0.7419 -0.3903
12262TIP3   OH258276   3.472   5.035   0.350 -0.0780 -0.1616 -0.1083
12262TIP3    H158277   3.513   5.115   0.382  0.1551 -0.1291 -0.4866
12262TIP3    H258278   3.490   5.034   0.256 -0.6142 -0.3444 -0.2125
12263TIP3   OH258279   6.116   5.913   0.132  0.0286  0.0891  0.2449
12263TIP3    H158280   6.109   6.008   0.120  0.3969  0.0373 -0.4237
12263TIP3    H258281   6.209   5.894   0.119 -0.3401 -0.6192 -1.6654
12264TIP3   OH258282   1.006   0.479   2.361  0.3599 -0.5254 -0.5040
12264TIP3    H158283   0.969   0.398   2.324  3.0743 -1.7894 -0.6769
12264TIP3    H258284   1.037   0.454   2.448 -0.7836  0.9711  0.3807
12265TIP3   OH258285   4.916   6.049  11.268  0.4507  0.1039  0.5813
12265TIP3    H158286   5.011   6.047  11.274  0.4088 -0.6231  1.0409
12265TIP3    H258287   4.892   6.132  11.310  0.9106  0.5777 -0.0715
12266TIP3   OH258288   6.628   4.971  12.042 -0.2974 -0.8327 -0.9766
12266TIP3    H158289   6.719   4.940  12.043  0.7815  1.6927  3.1672
12266TIP3    H258290   6.634   5.064  12.022 -1.8027 -0.4179  0.2613
12267TIP3   OH258291   4.421   5.647  16.278 -0.2895 -0.2812 -0.1956
12267TIP3    H158292   4.401   5.709  16.208  0.1976 -0.4940 -0.5232
12267TIP3    H258293   4.370   5.569  16.258 -0.5628 -0.1519 -0.0189
12268TIP3   OH258294   6.753   6.598  14.751 -0.9375  0.1436  0.3120
12268TIP3    H158295   6.760   6.504  14.765  1.9834  0.2165 -0.1065
12268TIP3    H258296   6.706   6.606  14.667  1.3337 -1.1198 -1.1834
12269TIP3   OH258297   6.544   1.200   5.847 -0.1933  0.3493  0.2594
12269TIP3    H158298   6.470   1.151   5.882 -0.8107  1.2975  0.3302
12269TIP3    H258299   6.518   1.224   5.759 -0.4401  1.6025  0.6544
12270TIP3   OH258300   2.604   6.645   4.407  0.1750 -0.4233 -0.8482
12270TIP3    H158301   2.647   6.726   4.382 -4.1599  2.1832 -0.7938
12270TIP3    H258302   2.640   6.625   4.494  0.7202  1.9518 -0.4607
12271TIP3   OH258303   3.136   2.019  12.894  0.2268  0.3487  0.2619
12271TIP3    H158304   3.119   2.047  12.804  2.2988  0.5040 -0.1287
12271TIP3    H258305   3.074   1.947  12.908 -0.6824  0.8431 -0.9879
12272TIP3   OH258306   0.261   0.421   2.036  0.5602 -0.2700  0.1829
12272TIP3    H158307   0.188   0.397   2.092  1.0056  0.1381  0.9620
12272TIP3    H258308   0.261   0.517   2.036  0.8864 -0.2671 -0.0846
12273TIP3   OH258309   6.609   2.750   1.346  0.4542  0.4109 -0.4945
12273TIP3    H158310   6.636   2.729   1.256  0.7401  1.8639 -0.7773
12273TIP3    H258311   6.659   2.828   1.368  1.2038 -0.5573  1.3687
12274TIP3   OH258312   2.581   5.291  14.765 -0.1714  0.1755  0.2390
12274TIP3    H158313   2.607   5.349  14.694 -0.5395 -1.2762 -1.1340
12274TIP3    H258314   2.648   5.223  14.766 -0.4666 -0.1187  0.9462
12275TIP3   OH258315   0.720   4.105  14.962  0.3171  0.2806 -0.0834
12275TIP3    H158316   0.661   4.148  14.900  0.2746  0.0978 -0.1702
12275TIP3    H258317   0.802   4.155  14.955  0.4242  0.0441 -0.5434
12276TIP3   OH258318   1.010   5.759   1.419  0.4577  0.1349 -0.3941
12276TIP3    H158319   1.081   5.695   1.419  0.4639  0.1223  0.7699
12276TIP3    H258320   1.020   5.806   1.335  2.2571  0.5949  0.0244
12277TIP3   OH258321   6.096   6.169   2.996 -0.3036  0.6192 -0.2241
12277TIP3    H158322   6.062   6.258   2.992 -1.1598  0.2554 -1.4841
12277TIP3    H258323   6.185   6.179   3.031 -1.3984  1.6446  2.5546
12278TIP3   OH258324   1.003   3.645  10.906 -0.5970  0.3939 -0.2204
12278TIP3    H158325   0.939   3.715  10.894  1.0529  1.6866 -2.0708
12278TIP3    H258326   1.069   3.661  10.838  1.1551 -1.4701  0.9437
12279TIP3   OH258327   2.491   5.557   4.919 -0.0389 -0.0010  0.1602
12279TIP3    H158328   2.427   5.627   4.906  1.7148  1.6792  0.1995
12279TIP3    H258329   2.509   5.558   5.013  1.4975  0.9382 -0.1114
12280TIP3   OH258330   5.104   2.123  12.111 -0.3752 -0.2861  0.2544
12280TIP3    H158331   5.153   2.192  12.157 -0.2621 -0.7068  0.7740
12280TIP3    H258332   5.093   2.157  12.023  1.6959 -0.5614 -0.1718
12281TIP3   OH258333   1.713   2.690  16.958  0.8308 -0.2014  0.3567
12281TIP3    H158334   1.783   2.639  16.999  1.8402  1.4349  0.7467
12281TIP3    H258335   1.758   2.751  16.900 -0.2381  1.1021  0.8582
12282TIP3   OH258336   5.576   2.811   2.851 -0.3292 -0.1923 -0.7424
12282TIP3    H158337   5.495   2.860   2.860 -0.2968 -0.3628  0.8278
12282TIP3    H258338   5.627   2.860   2.787 -1.4646  0.1882 -1.3778
12283TIP3   OH258339   3.099   5.983   4.396  0.1417 -0.4638  0.0825
12283TIP3    H158340   3.164   5.933   4.446 -1.1878  0.0909  2.4700
12283TIP3    H258341   3.086   5.931   4.317  3.4534 -0.5991 -0.5556
12284TIP3   OH258342   2.238   4.547   2.826 -0.6037 -0.3333  0.0183
12284TIP3    H158343   2.301   4.516   2.762 -0.1997  0.7066 -0.1082
12284TIP3    H258344   2.222   4.638   2.802 -2.3060 -0.6193 -0.0736
12285TIP3   OH258345   1.230   5.127  16.616 -0.4777 -0.2312  0.0121
12285TIP3    H158346   1.159   5.187  16.590 -0.4641 -0.2076  0.0286
12285TIP3    H258347   1.198   5.040  16.592  0.3966 -0.0492 -2.0665
12286TIP3   OH258348   1.031   4.022   4.121  0.1484  0.1961 -0.3364
12286TIP3    H158349   0.943   4.050   4.147 -0.0216  0.4334 -1.1341
12286TIP3    H258350   1.084   4.102   4.127  0.2584  0.1100 -0.1169
12287TIP3   OH258351   6.589   1.901   5.152  0.3731 -0.4453 -0.6225
12287TIP3    H158352   6.650   1.827   5.152 -0.1394 -0.8969  0.7982
12287TIP3    H258353   6.628   1.963   5.214 -0.9617 -1.0854  0.9321
12288TIP3   OH258354   5.311   3.055  13.215  0.3624 -0.0890  0.1722
12288TIP3    H158355   5.376   3.067  13.284 -0.5886  2.5933  0.7063
12288TIP3    H258356   5.360   3.063  13.133  0.9371  0.3569  0.5556
12289TIP3   OH258357   0.095   5.207  16.527  0.0688 -0.4513 -0.4751
12289TIP3    H158358   0.190   5.205  16.512  0.3033  1.3563  0.4895
12289TIP3    H258359   0.078   5.132  16.583  1.0790 -0.3183  0.0328
12290TIP3   OH258360   3.582   4.833  14.109 -0.1342 -0.4342  0.8125
12290TIP3    H158361   3.546   4.800  14.026 -2.1326  1.0119  1.0187
12290TIP3    H258362   3.553   4.770  14.174 -2.6020  0.7346  0.9868
12291TIP3   OH258363   0.728   1.999   0.365  0.2666  0.2712  0.1402
12291TIP3    H158364   0.711   2.085   0.404  1.4439 -0.4361  2.3358
12291TIP3    H258365   0.697   1.937   0.430 -0.6836 -1.0227 -1.4726
12292TIP3   OH258366   5.654   3.548  13.746  0.4264 -0.5228 -0.8209
12292TIP3    H158367   5.691   3.511  13.665 -0.6911  0.7094 -1.9558
12292TIP3    H258368   5.605   3.476  13.785  2.0664 -1.5253 -0.4858
12293TIP3   OH258369   3.158   3.066  16.460 -0.7728  0.0002 -0.2824
12293TIP3    H158370   3.155   2.970  16.463  0.4688 -0.0485 -0.1421
12293TIP3    H258371   3.156   3.088  16.367 -0.8269 -0.1696 -0.3209
12294TIP3   OH258372   5.326   5.571  12.882  0.1907  0.1166 -0.2422
12294TIP3    H158373   5.338   5.497  12.822 -0.4776 -2.3014  2.3692
12294TIP3    H258374   5.241   5.608  12.859 -0.3530 -1.1926 -0.4062
12295TIP3   OH258375   3.007   1.770  15.596 -0.2220 -0.4832  0.4544
12295TIP3    H158376   2.950   1.743  15.668  2.1103  0.2667  2.7020
12295TIP3    H258377   3.042   1.688  15.561  1.0213 -0.7825  2.2823
12296TIP3   OH258378   4.848   4.890  15.952 -0.3361  0.5656 -0.3970
12296TIP3    H158379   4.807   4.968  15.914  1.1724  1.3312 -0.4928
12296TIP3    H258380   4.917   4.866  15.890  2.1163  1.7566  1.7056
12297TIP3   OH258381   4.973   1.223   4.081 -0.0798 -0.0990 -0.1977
12297TIP3    H158382   4.941   1.187   3.998  0.6161  0.2654 -0.6311
12297TIP3    H258383   5.018   1.150   4.123 -0.4669 -0.2955 -0.1153
12298TIP3   OH258384   6.341   5.043   1.698  0.4397  0.1125  0.4044
12298TIP3    H158385   6.262   5.094   1.682 -0.6808 -1.2606  1.2234
12298TIP3    H258386   6.310   4.953   1.706  2.0210 -0.4064  1.2617
12299TIP3   OH258387   3.172   4.390  13.854  0.1220  0.0389 -0.0933
12299TIP3    H158388   3.168   4.368  13.947  0.4057  0.4264  0.0166
12299TIP3    H258389   3.265   4.383  13.832  0.0769  0.1089 -0.3093
12300TIP3   OH258390   1.204   5.764  16.850 -0.3706 -0.0235  0.0941
12300TIP3    H158391   1.127   5.817  16.831  0.1929  0.6894 -0.2588
12300TIP3    H258392   1.183   5.677  16.817 -0.9625  0.2002 -0.1272
12301TIP3   OH258393   1.148   6.502   1.802 -0.4247  0.1547  0.0720
12301TIP3    H158394   1.135   6.594   1.825 -0.5187  0.3175 -0.6162
12301TIP3    H258395   1.193   6.504   1.718 -0.7134 -0.4280 -0.1051
12302TIP3   OH258396   1.941   3.075  14.118 -0.1089  0.3413  0.6693
12302TIP3    H158397   1.996   3.016  14.066 -2.3756 -0.3899 -1.0823
12302TIP3    H258398   1.903   3.018  14.185 -1.5721 -0.0736 -0.4506
12303TIP3   OH258399   3.334   4.083  10.688 -0.3674 -0.6013 -0.3896
12303TIP3    H158400   3.396   4.011  10.677  0.5166  0.3223 -1.7680
12303TIP3    H258401   3.307   4.105  10.599 -1.1162  0.3471  0.0584
12304TIP3   OH258402   2.694   2.337   3.635 -0.0552  0.0745  0.0717
12304TIP3    H158403   2.633   2.361   3.704 -0.0170 -1.7145  0.7689
12304TIP3    H258404   2.764   2.290   3.680 -0.1822 -1.3953 -1.1871
12305TIP3   OH258405   3.217   2.254   0.998  0.2295  0.2359  0.0494
12305TIP3    H158406   3.251   2.206   0.922 -2.2074 -3.0035  0.7810
12305TIP3    H258407   3.284   2.244   1.065  0.1548 -1.5525 -0.0964
12306TIP3   OH258408   1.054   6.335   5.285 -0.5051  0.9107  0.2692
12306TIP3    H158409   0.981   6.347   5.225 -0.6083 -1.3161 -0.1426
12306TIP3    H258410   1.024   6.269   5.347  1.7685 -1.7289 -1.1836
12307TIP3   OH258411   4.403   4.083  13.106 -0.3568 -0.3211  0.2790
12307TIP3    H158412   4.474   4.022  13.084  0.8351  0.3543  1.9810
12307TIP3    H258413   4.341   4.030  13.155  0.0269 -0.4630  0.6194
12308TIP3   OH258414   5.403   0.800   2.363 -0.7901 -0.0282  0.0442
12308TIP3    H158415   5.407   0.889   2.398 -0.6723  0.4257 -1.0765
12308TIP3    H258416   5.406   0.744   2.440 -0.8366  0.9357  0.7707
12309TIP3   OH258417   3.280   6.618  14.664 -0.1482 -0.8378 -0.2999
12309TIP3    H158418   3.194   6.649  14.637 -0.1166 -0.9177 -0.4941
12309TIP3    H258419   3.265   6.529  14.696 -0.1514 -0.8200 -0.2517
12310TIP3   OH258420   6.184   5.457   2.029  0.1795  0.0160 -0.2145
12310TIP3    H158421   6.260   5.511   2.049  0.2388  1.0691 -2.9588
12310TIP3    H258422   6.220   5.369   2.018  0.8072  0.2785 -0.2982
12311TIP3   OH258423   6.661   0.807  13.308 -0.2896  0.2714  0.4795
12311TIP3    H158424   6.639   0.721  13.272 -0.9769  0.6610 -0.0645
12311TIP3    H258425   6.577   0.849  13.322  0.0452  0.9012  0.6322
12312TIP3   OH258426   6.762   6.469   5.643  0.1352 -0.7009 -0.1345
12312TIP3    H158427   6.689   6.530   5.637  0.9805  0.2320 -1.5401
12312TIP3    H258428   6.821   6.509   5.708  1.1301  0.5473 -1.7226
12313TIP3   OH258429   4.215   4.888  10.946  0.0057  0.5052 -0.9021
12313TIP3    H158430   4.310   4.876  10.950 -0.3372 -3.4733  2.9852
12313TIP3    H258431   4.196   4.953  11.014 -0.1525 -0.3711 -0.0943
12314TIP3   OH258432   2.213   3.943  15.767 -0.3970 -0.0539 -0.4386
12314TIP3    H158433   2.162   3.965  15.845 -1.0932 -1.1549 -0.5612
12314TIP3    H258434   2.300   3.921  15.800 -0.1048  1.3541 -0.1796
12315TIP3   OH258435   3.899   3.634  11.842 -0.5547  0.1748  0.0307
12315TIP3    H158436   3.962   3.687  11.891 -0.8775 -0.2870  0.9741
12315TIP3    H258437   3.822   3.689  11.835 -0.7243  0.0217  0.6010
12316TIP3   OH258438   4.014   4.723  14.998  0.0378 -0.1412  0.1411
12316TIP3    H158439   4.069   4.791  15.037  0.6763  0.0965 -1.1052
12316TIP3    H258440   4.038   4.723  14.905 -0.0187 -2.0080  0.0844
12317TIP3   OH258441   0.385   5.326   3.023 -0.2874 -0.8502 -0.1007
12317TIP3    H158442   0.418   5.323   3.113 -0.8918 -2.7704  0.1228
12317TIP3    H258443   0.458   5.359   2.971  0.0475  0.3522  1.0892
12318TIP3   OH258444   4.016   4.128  14.103  0.2561  0.1978 -0.2678
12318TIP3    H158445   4.056   4.041  14.105  0.4565  0.2950  0.1109
12318TIP3    H258446   4.080   4.183  14.057  1.2307  0.6680  1.5486
12319TIP3   OH258447   4.704   6.402  15.137 -0.0712 -0.2930  0.1690
12319TIP3    H158448   4.755   6.418  15.058  0.5252 -1.3568  0.3275
12319TIP3    H258449   4.756   6.441  15.208  0.0666 -0.5500  0.2102
12320TIP3   OH258450   5.242   5.110  13.299 -0.3475  0.0860  0.3678
12320TIP3    H158451   5.277   5.044  13.359 -1.8663 -2.2625 -1.1651
12320TIP3    H258452   5.247   5.070  13.213 -3.0938  1.1607 -0.4126
12321TIP3   OH258453   1.811   3.370   1.157  0.2693  0.1479  0.2291
12321TIP3    H158454   1.841   3.413   1.237  0.5850  1.4883 -0.5836
12321TIP3    H258455   1.887   3.321   1.126 -0.3338 -1.7890  1.6124
12322TIP3   OH258456   4.241   3.146   4.156 -0.4690  0.0822  0.1598
12322TIP3    H158457   4.245   3.196   4.075  2.0217 -0.8710 -0.4064
12322TIP3    H258458   4.302   3.190   4.215 -0.0418 -0.8740  0.4633
12323TIP3   OH258459   6.599   1.085   4.638 -0.6048 -0.4926 -0.4757
12323TIP3    H158460   6.575   0.998   4.672 -2.5239 -0.2304 -1.0403
12323TIP3    H258461   6.646   1.126   4.710  1.9005 -2.5906 -0.7727
12324TIP3   OH258462   3.539   1.700  13.303  0.0160 -0.0110  0.7092
12324TIP3    H158463   3.527   1.666  13.214 -0.5357  0.2989  0.6596
12324TIP3    H258464   3.633   1.714  13.311 -0.1580  3.6794 -1.2615
12325TIP3   OH258465   3.029   5.559   0.593  0.0332 -0.1835 -0.0713
12325TIP3    H158466   3.069   5.645   0.604  1.2088 -0.6543 -0.5114
12325TIP3    H258467   2.942   5.577   0.557  0.6836  0.7840 -1.2069
12326TIP3   OH258468   5.514   6.527  13.764  0.4612 -0.4114  0.1945
12326TIP3    H158469   5.599   6.487  13.745  0.6469  0.1582 -0.1851
12326TIP3    H258470   5.533   6.595  13.828  0.4466  0.3349 -0.5662
12327TIP3   OH258471   0.331   0.008  13.844 -0.0451  0.4275 -0.4599
12327TIP3    H158472   0.238  -0.011  13.850  0.4080 -1.9763 -0.1027
12327TIP3    H258473   0.351   0.058  13.923 -1.0679  1.2906 -0.7238
12328TIP3   OH258474   1.002   2.896  10.596  0.0722  0.2431  0.1607
12328TIP3    H158475   1.069   2.846  10.550  1.5518  1.5416  0.8080
12328TIP3    H258476   0.926   2.893  10.538  1.3139  0.3628 -1.5486
12329TIP3   OH258477   5.356   5.675   5.823 -0.0412 -0.4642  0.0328
12329TIP3    H158478   5.344   5.674   5.918  1.6675  1.8190  0.3581
12329TIP3    H258479   5.436   5.623   5.809  0.4230  0.2591 -0.0122
12330TIP3   OH258480   4.702   5.613  13.365  0.4128 -0.1134  0.4191
12330TIP3    H158481   4.666   5.525  13.359 -0.3196  0.2024  0.1460
12330TIP3    H258482   4.678   5.655  13.283 -0.2686  0.7257  1.0378
12331TIP3   OH258483   3.196   0.731   3.708 -0.0317 -0.0146  0.3784
12331TIP3    H158484   3.289   0.751   3.708 -0.6303  3.5496 -1.3136
12331TIP3    H258485   3.153   0.814   3.731 -2.8281 -1.0467 -0.6004
12332TIP3   OH258486   3.276   3.991   3.359 -0.4084  0.4097 -0.6904
12332TIP3    H158487   3.299   4.078   3.327  0.9726  0.0559 -0.7353
12332TIP3    H258488   3.220   4.007   3.435  0.7186  1.3704 -0.0299
12333TIP3   OH258489   0.958   5.569  13.601  0.0935  0.2637  0.2433
12333TIP3    H158490   0.891   5.603  13.542  2.9305  1.8810 -2.3201
12333TIP3    H258491   1.019   5.642  13.614  2.4777 -1.6455  0.6541
12334TIP3   OH258492   5.411   0.743  12.140 -0.2164  0.4761  0.1062
12334TIP3    H158493   5.343   0.809  12.149 -0.5561  0.1748 -0.1908
12334TIP3    H258494   5.452   0.762  12.056 -0.9992 -0.2994 -0.4756
12335TIP3   OH258495   0.031   5.093  15.294  0.1718  0.0347 -0.0519
12335TIP3    H158496  -0.043   5.096  15.233  0.1667  0.1252 -0.0403
12335TIP3    H258497   0.082   5.171  15.272 -0.1960  0.4471  0.5290
12336TIP3   OH258498   2.310   2.558   1.107 -0.1390 -0.0968 -0.0233
12336TIP3    H158499   2.303   2.653   1.113 -0.6857 -0.1318 -0.0585
12336TIP3    H258500   2.314   2.528   1.198  0.7404  0.0035 -0.0214
12337TIP3   OH258501   0.292   4.429  12.260  0.5572  0.5033 -0.0528
12337TIP3    H158502   0.369   4.415  12.315  1.4047  0.6073 -1.1940
12337TIP3    H258503   0.218   4.419  12.321  1.3550 -1.7565  0.6617
12338TIP3   OH258504   4.495   3.333   0.766 -0.2946  0.1584 -0.4914
12338TIP3    H158505   4.422   3.362   0.820  0.3033 -1.2018  1.1691
12338TIP3    H258506   4.455   3.300   0.686 -1.2596  1.7654 -0.7099
12339TIP3   OH258507   5.930   3.451  17.065 -0.4811 -0.2808 -0.1422
12339TIP3    H158508   5.981   3.371  17.048 -0.8363 -0.3346 -1.0222
12339TIP3    H258509   5.973   3.517  17.011  1.2672  0.7298  2.3465
12340TIP3   OH258510   0.169   1.314   2.946 -0.1463  0.2800  0.4492
12340TIP3    H158511   0.074   1.325   2.943 -0.1092  1.0358  1.4362
12340TIP3    H258512   0.194   1.293   2.856 -1.3123 -0.5379  0.2927
12341TIP3   OH258513   3.386   2.329   5.828 -0.7375  0.1490  0.6468
12341TIP3    H158514   3.447   2.296   5.895  0.7227  0.1661 -0.6234
12341TIP3    H258515   3.417   2.418   5.809 -1.4721  0.3443  0.3217
12342TIP3   OH258516   2.409   3.384   0.396 -0.3816  0.2268  0.3358
12342TIP3    H158517   2.434   3.322   0.327  0.0817 -0.2983  0.9592
12342TIP3    H258518   2.361   3.453   0.350  1.9814  1.1624 -0.9003
12343TIP3   OH258519   2.799   3.158   4.420 -0.1391  0.5686 -0.0541
12343TIP3    H158520   2.803   3.216   4.497 -0.9816 -1.2089  1.4097
12343TIP3    H258521   2.724   3.190   4.370  0.2717  1.6097 -0.0340
12344TIP3   OH258522   3.810   6.849   3.451  0.3944  0.5075 -0.0639
12344TIP3    H158523   3.772   6.769   3.489  2.1805 -0.2682  0.2185
12344TIP3    H258524   3.742   6.915   3.459 -0.8803 -0.8205  0.3588
12345TIP3   OH258525   1.727   0.249   0.535 -0.3276  0.0371  0.1168
12345TIP3    H158526   1.637   0.229   0.559 -0.7785  0.8503 -0.8135
12345TIP3    H258527   1.746   0.188   0.463  0.3779 -1.1191  1.2458
12346TIP3   OH258528   2.902   1.331  16.327  0.2389 -0.1192 -0.2378
12346TIP3    H158529   2.875   1.390  16.256 -0.5048 -1.2856 -0.9515
12346TIP3    H258530   2.860   1.367  16.405 -0.3894  0.1740 -0.6990
12347TIP3   OH258531   2.245   1.830   3.021  0.2621 -0.6067 -0.0339
12347TIP3    H158532   2.322   1.874   3.057 -0.7091  0.8745  0.3518
12347TIP3    H258533   2.264   1.820   2.928  0.4707  0.8159 -0.1674
12348TIP3   OH258534   4.678   4.911  15.564  0.9059 -0.1575  0.5934
12348TIP3    H158535   4.687   5.006  15.558 -0.0936 -0.0638  0.3778
12348TIP3    H258536   4.768   4.878  15.565  1.3235  0.5716 -2.7615
12349TIP3   OH258537   5.805   6.820  13.774 -0.1511  0.0414 -0.1934
12349TIP3    H158538   5.830   6.913  13.774  0.5127 -0.1241 -0.8082
12349TIP3    H258539   5.749   6.810  13.851  2.5487  0.2441  1.9925
12350TIP3   OH258540   1.291   1.999   4.642 -0.0070 -1.0737  0.4495
12350TIP3    H158541   1.196   1.986   4.647  0.0909 -1.3456  2.6305
12350TIP3    H258542   1.328   1.912   4.660  0.6765 -1.1277 -1.1197
12351TIP3   OH258543   5.094   4.005  12.694 -0.0953 -0.5483  0.3457
12351TIP3    H158544   5.007   4.026  12.659  0.9525 -0.4298 -2.4046
12351TIP3    H258545   5.141   4.089  12.694  0.9984 -1.1298 -1.2769
12352TIP3   OH258546   4.454   5.354   6.231  0.1330  0.0222 -0.1426
12352TIP3    H158547   4.387   5.286   6.220 -0.6710  1.0729 -2.3080
12352TIP3    H258548   4.415   5.418   6.289  0.4393 -0.7694  0.9638
12353TIP3   OH258549   1.357   6.287  15.379  0.8875  0.3516 -0.1218
12353TIP3    H158550   1.271   6.294  15.420  1.8430  1.9449  1.7762
12353TIP3    H258551   1.365   6.366  15.326 -0.4180 -1.7717 -3.8496
12354TIP3   OH258552   3.137   3.302  16.587  0.6286 -0.3234 -0.4303
12354TIP3    H158553   3.164   3.222  16.543 -1.0940 -0.8398 -0.6363
12354TIP3    H258554   3.083   3.272  16.660 -0.8647  0.6446 -1.0780
12355TIP3   OH258555   5.878   2.693  12.663 -0.2153 -0.3057 -0.1076
12355TIP3    H158556   5.935   2.649  12.726 -0.0129 -0.7539 -0.5958
12355TIP3    H258557   5.937   2.722  12.594 -0.4453  0.1325 -0.1236
12356TIP3   OH258558   4.126   3.971  11.651  0.1450  0.1155  0.0360
12356TIP3    H158559   4.178   3.919  11.713 -1.1265  0.1770  1.1847
12356TIP3    H258560   4.186   4.039  11.620  1.2987 -0.9310 -0.1128
12357TIP3   OH258561   6.225   1.046   5.541  0.1841  0.0681  0.1024
12357TIP3    H158562   6.284   1.121   5.552 -0.1390  0.0594  2.6902
12357TIP3    H258563   6.231   1.000   5.624  0.4255 -2.8939 -1.4480
12358TIP3   OH258564   0.950   6.057   0.872  0.1913 -0.3803 -0.1552
12358TIP3    H158565   0.884   5.988   0.869  0.6356 -0.8033 -0.4917
12358TIP3    H258566   1.024   6.021   0.822  0.4813  0.2836 -0.2096
12359TIP3   OH258567   5.841   0.479  11.386  0.0850 -0.1653  0.6761
12359TIP3    H158568   5.800   0.469  11.300  1.7368 -0.3976 -0.1256
12359TIP3    H258569   5.875   0.392  11.407 -0.3675 -0.1240  1.6033
12360TIP3   OH258570   2.946   4.248  15.340 -0.3096  0.2781 -0.2681
12360TIP3    H158571   2.876   4.225  15.279 -0.7575  1.8410 -0.3922
12360TIP3    H258572   2.942   4.343  15.346 -0.3567  0.1948  2.2992
12361TIP3   OH258573   2.589   3.306  14.734  0.3328  0.4260  0.2700
12361TIP3    H158574   2.573   3.235  14.795 -1.0307  0.4894  0.0203
12361TIP3    H258575   2.682   3.325  14.743  0.5471 -0.8414  0.9194
12362TIP3   OH258576   5.974   4.763  17.036  0.5273 -0.0775 -0.4704
12362TIP3    H158577   5.928   4.806  17.109  1.4529 -0.4098  0.3266
12362TIP3    H258578   5.919   4.688  17.015  0.7395 -0.5277  0.5407
12363TIP3   OH258579   1.592   4.142   2.945 -0.1684 -0.2049 -0.0692
12363TIP3    H158580   1.590   4.052   2.979  0.5155 -1.7067 -3.6216
12363TIP3    H258581   1.501   4.170   2.946 -0.5116 -1.2849  0.2754
12364TIP3   OH258582   4.220   5.280   3.309  0.2379  0.8237 -0.0885
12364TIP3    H158583   4.167   5.360   3.307  1.1728  1.7031  3.4437
12364TIP3    H258584   4.157   5.209   3.296 -0.9541  2.0197 -1.1169
12365TIP3   OH258585   3.116   6.746  16.098 -0.7880 -0.2883 -0.5416
12365TIP3    H158586   3.137   6.684  16.029 -1.0391 -1.9950  0.8281
12365TIP3    H258587   3.161   6.712  16.176  0.2886  2.0865 -0.0243
12366TIP3   OH258588   3.479   6.047  16.531 -0.2538 -0.4210 -0.2610
12366TIP3    H158589   3.559   6.024  16.577 -0.1365 -0.8315 -0.6664
12366TIP3    H258590   3.424   6.089  16.598  1.3719  2.4481 -0.5656
12367TIP3   OH258591   1.588   5.903   4.550  0.4198 -0.2241  0.0327
12367TIP3    H158592   1.494   5.888   4.561 -0.0843  0.4462 -2.5403
12367TIP3    H258593   1.630   5.841   4.610 -1.6191  0.2612  2.0842
12368TIP3   OH258594   5.794   3.787  13.344  0.1736  0.3690 -0.6866
12368TIP3    H158595   5.703   3.776  13.373  0.8692  0.8513  1.8941
12368TIP3    H258596   5.841   3.714  13.384  0.7620 -0.6888 -3.1343
12369TIP3   OH258597   6.378   0.876  14.566  0.2547 -0.6157 -0.0119
12369TIP3    H158598   6.377   0.971  14.579 -2.3424 -0.5897  0.1198
12369TIP3    H258599   6.355   0.864  14.474  2.2725 -1.1500 -0.5045
12370TIP3   OH258600   4.460   4.821  15.735 -0.0866  0.0672  0.5180
12370TIP3    H158601   4.515   4.821  15.657 -1.2685  0.6324 -0.3297
12370TIP3    H258602   4.509   4.874  15.798  1.2197 -0.9883  0.4426
12371TIP3   OH258603   1.858   6.289   1.725 -0.1401  0.1067  0.0121
12371TIP3    H158604   1.890   6.378   1.714  1.4915 -0.6559 -1.9119
12371TIP3    H258605   1.852   6.253   1.637 -0.1204 -1.9007  0.7587
12372TIP3   OH258606   4.692   4.083   2.051 -0.4203 -0.5513  0.3066
12372TIP3    H158607   4.703   4.108   1.960  0.1304 -1.0701  0.2275
12372TIP3    H258608   4.655   4.161   2.093 -0.4282 -0.2226 -0.2997
12373TIP3   OH258609   4.804   0.943   1.623 -0.3268 -0.4168  0.1086
12373TIP3    H158610   4.806   0.957   1.528 -0.4572  1.3386  0.3253
12373TIP3    H258611   4.885   0.984   1.654 -0.5177 -0.5570  0.8023
12374TIP3   OH258612   3.081   3.474  15.054  0.2910  0.5151  0.4127
12374TIP3    H158613   3.140   3.546  15.076 -1.1125  1.5696  0.7959
12374TIP3    H258614   3.122   3.434  14.977  1.7844  0.8655  0.9796
12375TIP3   OH258615   6.544   2.947   5.425  0.2998 -0.2936 -0.2837
12375TIP3    H158616   6.564   2.919   5.514  0.7413 -0.4370 -0.4282
12375TIP3    H258617   6.476   2.886   5.396  1.5823 -1.5534 -0.7663
12376TIP3   OH258618   5.509   0.245  14.096  0.6474 -0.4007  0.0511
12376TIP3    H158619   5.493   0.279  14.009 -0.4213  1.4350  0.9108
12376TIP3    H258620   5.487   0.317  14.155 -0.0742 -2.0533  1.9167
12377TIP3   OH258621   1.321   3.461   5.778  0.1945 -0.4223 -0.2333
12377TIP3    H158622   1.290   3.371   5.789 -1.8725  0.3369  0.8600
12377TIP3    H258623   1.416   3.456   5.785  0.0733 -2.4211  0.4902
12378TIP3   OH258624   5.023   3.677   4.238 -0.2934 -0.5735 -0.1521
12378TIP3    H158625   4.957   3.723   4.290  0.7487  3.3506 -1.8929
12378TIP3    H258626   4.972   3.628   4.173 -1.6463  1.9307 -1.1120
12379TIP3   OH258627   6.011   6.726   1.388 -0.2075  0.0884 -0.0370
12379TIP3    H158628   6.067   6.670   1.442 -1.5234  1.7102  3.3399
12379TIP3    H258629   6.072   6.772   1.329  1.8177  0.2798  2.0434
12380TIP3   OH258630   6.086   1.484   4.377  0.5829  0.1863  0.3640
12380TIP3    H158631   6.131   1.487   4.293 -0.2314 -1.4329 -0.1624
12380TIP3    H258632   6.025   1.410   4.370 -0.1270  0.5564  2.0612
12381TIP3   OH258633   6.336   0.296  16.472  0.2361  0.3614  0.1998
12381TIP3    H158634   6.251   0.315  16.431  0.3251 -2.0841 -1.3456
12381TIP3    H258635   6.359   0.376  16.517 -1.5598  2.0888 -1.7062
12382TIP3   OH258636   4.399   5.217   1.823 -0.4848 -0.5214 -0.1085
12382TIP3    H158637   4.345   5.217   1.744  0.7781 -1.4595 -1.0127
12382TIP3    H258638   4.479   5.172   1.797  0.0908 -0.5691  1.6321
12383TIP3   OH258639   1.506   1.198  10.406 -1.5389  0.3018 -0.1567
12383TIP3    H158640   1.441   1.164  10.469 -2.5535  0.0855 -1.2764
12383TIP3    H258641   1.587   1.204  10.456 -2.3337  0.2122  1.1941
12384TIP3   OH258642   0.312   1.891   3.976  0.1646 -0.2085 -0.3501
12384TIP3    H158643   0.348   1.942   3.902 -1.1638  0.4692 -0.5503
12384TIP3    H258644   0.363   1.921   4.052  2.0173 -1.3972 -1.0449
12385TIP3   OH258645   2.009   1.209  15.248  0.3875 -0.3935 -0.0134
12385TIP3    H158646   1.985   1.279  15.188  2.0873 -0.6456 -1.0525
12385TIP3    H258647   2.048   1.142  15.193  0.1721 -1.5185  1.1491
12386TIP3   OH258648   3.247   0.543   5.470 -0.4809  0.6418 -0.4673
12386TIP3    H158649   3.267   0.577   5.383 -0.0619  1.7932  0.0597
12386TIP3    H258650   3.331   0.538   5.514 -0.5048 -1.2691 -0.5607
12387TIP3   OH258651   1.374   5.992   1.088 -0.6141 -0.2116  0.6825
12387TIP3    H158652   1.425   5.963   1.012 -1.0610  2.2789 -0.6904
12387TIP3    H258653   1.420   5.956   1.164 -0.0219 -2.6088 -0.7384
12388TIP3   OH258654   2.268   0.747   0.078 -0.7435  0.2072  1.0076
12388TIP3    H158655   2.293   0.664   0.117 -1.1697 -0.5068 -0.1766
12388TIP3    H258656   2.347   0.778   0.034 -1.1318 -0.6384 -0.3318
12389TIP3   OH258657   4.798   1.634   2.072 -0.0779  0.3022 -0.2226
12389TIP3    H158658   4.768   1.603   2.158  1.0238  0.6673  0.3037
12389TIP3    H258659   4.883   1.675   2.089  0.1810  0.3325 -1.5011
12390TIP3   OH258660   0.329   6.131   5.399  0.3807 -0.2325  0.2465
12390TIP3    H158661   0.304   6.058   5.455  2.3243 -0.7195  0.5558
12390TIP3    H258662   0.249   6.181   5.388 -0.6521 -1.5833  1.2777
12391TIP3   OH258663   5.741   2.543   5.522  0.0202  0.4474 -0.1043
12391TIP3    H158664   5.664   2.490   5.500 -1.1398  1.8117  0.5640
12391TIP3    H258665   5.754   2.528   5.616 -0.6155  1.6774  0.2011
12392TIP3   OH258666   6.174   1.446  14.089  0.4469  0.3722  0.1135
12392TIP3    H158667   6.080   1.427  14.081  0.4979  0.7867 -3.7844
12392TIP3    H258668   6.177   1.539  14.111 -0.0347  0.2342  0.7986
12393TIP3   OH258669   5.512   4.038   0.206  0.1279 -0.0570 -0.3449
12393TIP3    H158670   5.467   3.980   0.144  0.0563  0.1158 -0.4561
12393TIP3    H258671   5.588   4.070   0.157 -0.1797  0.4418 -0.5060
12394TIP3   OH258672   4.708   1.608  14.829 -0.0084  0.1593  0.5193
12394TIP3    H158673   4.632   1.560  14.861  1.8573 -1.8544  2.2587
12394TIP3    H258674   4.758   1.628  14.908  1.2868  1.4215 -0.5693
12395TIP3   OH258675   5.489   6.236  15.404  0.1296  0.8021 -0.6809
12395TIP3    H158676   5.562   6.175  15.406 -1.6209 -1.4028 -0.7501
12395TIP3    H258677   5.470   6.253  15.496  0.2670  0.8451 -0.6587
12396TIP3   OH258678   6.181   0.091  15.027  0.9679  0.2305 -0.6560
12396TIP3    H158679   6.117   0.021  15.043  2.4344 -1.2336 -0.9251
12396TIP3    H258680   6.129   0.162  14.989 -0.6892 -0.4359  0.2439
12397TIP3   OH258681   6.010   6.510  14.788 -0.2889  0.1653 -0.4013
12397TIP3    H158682   6.052   6.453  14.724 -0.4278 -2.1911  1.4436
12397TIP3    H258683   5.916   6.502  14.771 -0.2900  0.1426 -0.3855
12398TIP3   OH258684   5.726   0.934  15.671  0.0117 -0.4129  0.1693
12398TIP3    H158685   5.806   0.881  15.668  0.0742 -0.2791 -1.2309
12398TIP3    H258686   5.756   1.020  15.700  0.2903 -0.5039  0.1552
12399TIP3   OH258687   1.215   6.224   0.502  0.3909 -0.2890  0.1234
12399TIP3    H158688   1.133   6.198   0.458  1.1641 -1.7045 -0.5311
12399TIP3    H258689   1.186   6.260   0.586 -0.8410 -2.4010  0.6769
12400TIP3   OH258690   0.096   2.444   2.710 -0.0728  0.1678 -0.9141
12400TIP3    H158691   0.127   2.372   2.656  0.1059  0.5649 -1.3484
12400TIP3    H258692   0.138   2.522   2.674  2.2428  0.1780  1.4667
12401TIP3   OH258693   3.279   3.704  14.114  0.2410  0.0345  0.3962
12401TIP3    H158694   3.343   3.738  14.051  1.0944 -2.0255  0.0536
12401TIP3    H258695   3.307   3.613  14.128 -0.7458  0.0383  2.7124
12402TIP3   OH258696   5.174   5.919  14.908  0.0270  0.3528 -0.2409
12402TIP3    H158697   5.108   5.983  14.882  0.2580  1.1270  0.9989
12402TIP3    H258698   5.145   5.888  14.994  1.0617  0.4134  0.1406
12403TIP3   OH258699   5.937   1.165  11.624  0.3146 -0.1504  0.2807
12403TIP3    H158700   5.940   1.254  11.590  1.4517 -0.5147 -0.6520
12403TIP3    H258701   6.004   1.163  11.693 -0.0116 -0.1634  0.5966
12404TIP3   OH258702   2.847   2.131  12.079  0.3014 -0.6899 -0.4136
12404TIP3    H158703   2.877   2.188  12.150  0.1307 -1.0779 -0.0268
12404TIP3    H258704   2.911   2.144  12.009  1.7142 -1.9124  0.5948
12405TIP3   OH258705   5.593   2.524   5.278 -0.1974 -0.2206 -0.7816
12405TIP3    H158706   5.671   2.477   5.249 -0.1213 -0.0612 -0.8366
12405TIP3    H258707   5.522   2.460   5.271  0.2742 -1.0533  1.3351
12406TIP3   OH258708   4.349   1.694  15.875  0.4181  0.0453  0.0209
12406TIP3    H158709   4.347   1.741  15.792 -1.1063 -1.6366 -0.9794
12406TIP3    H258710   4.276   1.632  15.869  2.1207 -2.2282  1.3553
12407TIP3   OH258711   1.852   0.195   5.090  0.0778 -0.4514 -0.3041
12407TIP3    H158712   1.903   0.266   5.050  0.6316  0.6756  2.2108
12407TIP3    H258713   1.887   0.188   5.179 -4.1269  0.4740  1.6882
12408TIP3   OH258714   4.938   0.726   5.295 -0.4027  0.7081  0.0275
12408TIP3    H158715   4.905   0.815   5.278  0.1069  0.8330 -0.3473
12408TIP3    H258716   5.021   0.740   5.340  1.5234  0.5871 -3.1171
12409TIP3   OH258717   4.628   3.039   0.900  0.0725  0.0790 -0.1129
12409TIP3    H158718   4.603   3.110   0.842 -0.2540 -0.3796 -0.5404
12409TIP3    H258719   4.545   3.011   0.940  0.0614 -0.6633 -0.6421
12410TIP3   OH258720   0.398   2.531  12.097  0.5892 -0.7542 -0.5355
12410TIP3    H158721   0.338   2.458  12.107 -0.5941 -0.0828 -2.2450
12410TIP3    H258722   0.375   2.570  12.012  1.0282  1.7136  0.3931
12411TIP3   OH258723   4.640   0.377  12.194  0.4887  0.2951 -0.7427
12411TIP3    H158724   4.561   0.423  12.219  0.3699 -0.0372 -0.4956
12411TIP3    H258725   4.711   0.440  12.208  0.5289 -0.1542  1.2625
12412TIP3   OH258726   4.935   6.403  16.655 -0.3535 -0.0323  0.5884
12412TIP3    H158727   4.852   6.423  16.700  0.1367 -1.0735  2.0193
12412TIP3    H258728   4.913   6.409  16.562 -2.4003 -1.5544  0.8965
12413TIP3   OH258729   1.063   1.045  14.678 -0.4813  0.6021  0.3733
12413TIP3    H158730   1.158   1.058  14.685 -0.1113 -0.8747 -1.2837
12413TIP3    H258731   1.040   1.087  14.595 -0.9771 -0.4451 -0.0291
12414TIP3   OH258732   5.986   0.517   2.714  0.5089  0.1313  0.2071
12414TIP3    H158733   6.046   0.458   2.759  2.1992  2.2439  0.8934
12414TIP3    H258734   5.934   0.558   2.783 -0.1520 -0.0322 -0.1846
12415TIP3   OH258735   2.530   0.637  13.608 -0.4674 -0.2745 -0.2095
12415TIP3    H158736   2.454   0.625  13.550 -0.6078 -0.3033 -0.0198
12415TIP3    H258737   2.519   0.571  13.676 -1.1446  0.7742  0.7272
12416TIP3   OH258738   5.288   4.800   1.496  0.4275  0.6998  0.2228
12416TIP3    H158739   5.356   4.844   1.547 -0.2660  0.9296  0.9735
12416TIP3    H258740   5.301   4.831   1.406  1.6468  0.3147  0.2459
12417TIP3   OH258741   2.283   2.553   0.344 -0.2807 -0.4437  0.3209
12417TIP3    H158742   2.188   2.562   0.345 -0.6341 -3.3412  0.1731
12417TIP3    H258743   2.306   2.534   0.435  0.0792 -0.4815  0.2229
12418TIP3   OH258744   6.044   5.250  15.599  0.7476  0.0818 -0.2795
12418TIP3    H158745   6.075   5.339  15.588  1.2413 -0.1598 -0.9120
12418TIP3    H258746   6.118   5.195  15.573  0.5427 -0.5156  0.3526
12419TIP3   OH258747   0.678   4.775  15.122  0.1038 -0.7125 -0.4600
12419TIP3    H158748   0.740   4.710  15.090  0.4906 -0.7323  0.2940
12419TIP3    H258749   0.716   4.859  15.095  0.6667 -0.7033  0.2928
12420TIP3   OH258750   1.481   1.900  17.060 -0.3157 -0.0569 -0.1587
12420TIP3    H158751   1.396   1.904  17.104  0.3351  0.5948  1.0859
12420TIP3    H258752   1.472   1.959  16.985 -1.0852 -0.3318 -0.2926
12421TIP3   OH258753   3.609   3.288   2.180 -0.2725 -0.1670  0.3730
12421TIP3    H158754   3.601   3.229   2.105  0.6555  0.5212 -0.2893
12421TIP3    H258755   3.583   3.374   2.147  0.5270  0.2220  0.7260
12422TIP3   OH258756   6.824   1.517   4.847 -0.6168 -0.1393  0.4974
12422TIP3    H158757   6.797   1.554   4.931  1.8049  3.8346 -0.2224
12422TIP3    H258758   6.900   1.462   4.868 -0.5109  0.1953  0.9966
12423TIP3   OH258759   2.628   1.847   5.524 -0.0351  0.1649  0.4797
12423TIP3    H158760   2.599   1.840   5.615 -1.4258 -0.9319 -0.0127
12423TIP3    H258761   2.610   1.761   5.487  1.2052  0.3689 -0.6558
12424TIP3   OH258762   6.621   0.164  16.037  0.4140 -0.7833 -0.1562
12424TIP3    H158763   6.643   0.110  16.113  0.6583 -0.9793 -0.3647
12424TIP3    H258764   6.682   0.136  15.969  1.6084  0.8395  0.1791
12425TIP3   OH258765   6.637   1.342   5.100  0.0715 -0.0674  0.0116
12425TIP3    H158766   6.666   1.431   5.119  0.2357 -0.1079 -0.0480
12425TIP3    H258767   6.584   1.318   5.176  0.7790 -0.2501  0.4633
12426TIP3   OH258768   4.256   3.676   1.284  0.0776 -0.3098  0.0360
12426TIP3    H158769   4.249   3.718   1.198  0.7445 -0.9171 -0.3241
12426TIP3    H258770   4.177   3.622   1.290 -1.3898  1.7950  0.9906
12427TIP3   OH258771   2.070   0.493  12.784 -0.0668 -0.0068 -0.9029
12427TIP3    H158772   2.030   0.515  12.868 -1.5030 -0.1900 -1.5121
12427TIP3    H258773   2.161   0.472  12.806 -0.8396 -1.8458  0.8941
12428TIP3   OH258774   1.771   0.168  14.191 -0.0733  0.2658 -0.2343
12428TIP3    H158775   1.857   0.163  14.151  0.5078  1.5181  0.7541
12428TIP3    H258776   1.728   0.242  14.148 -0.6263 -0.2900 -0.6553
12429TIP3   OH258777   0.845   6.347   1.337 -0.1133 -0.1983  0.0657
12429TIP3    H158778   0.902   6.423   1.334 -2.0724  1.4135  1.0410
12429TIP3    H258779   0.881   6.287   1.271  2.7304  0.6159  0.7568
12430TIP3   OH258780   2.869   4.895   1.216 -0.4473  0.6099 -0.5444
12430TIP3    H158781   2.804   4.916   1.149  1.3033  0.8308 -2.2474
12430TIP3    H258782   2.952   4.888   1.169  0.6113 -0.8563  1.3570
12431TIP3   OH258783   2.204   3.914   5.538  0.6595  0.0952 -0.4378
12431TIP3    H158784   2.275   3.870   5.491  0.5540  0.1238 -0.6276
12431TIP3    H258785   2.246   3.987   5.582  1.1278 -1.1135  1.2032
12432TIP3   OH258786   0.882   6.516  15.185  0.2647  1.0604 -0.5647
12432TIP3    H158787   0.925   6.452  15.128  0.7551 -0.5609  1.4854
12432TIP3    H258788   0.793   6.524  15.149 -0.1083 -1.5111 -0.3972
12433TIP3   OH258789   4.775   5.503   5.131 -0.6242  0.6735  0.0895
12433TIP3    H158790   4.770   5.591   5.093  0.2914  1.3970  1.5320
12433TIP3    H258791   4.847   5.461   5.084  0.1167  1.3520  0.5775
12434TIP3   OH258792   3.189   3.753   3.561  0.7128 -0.0864 -0.0454
12434TIP3    H158793   3.119   3.697   3.526  1.5070 -0.2014 -1.5174
12434TIP3    H258794   3.145   3.807   3.627 -0.6470 -0.5392 -0.5328
12435TIP3   OH258795   2.001   1.371   0.299  0.1075  0.5936 -0.1309
12435TIP3    H158796   2.087   1.397   0.266  0.4191 -0.1617  0.0715
12435TIP3    H258797   1.951   1.452   0.301  0.9065  1.0921  0.0246
12436TIP3   OH258798   0.103   6.389   5.441 -0.4386  0.1799 -0.5653
12436TIP3    H158799   0.031   6.412   5.499  0.6452 -1.0386  1.3776
12436TIP3    H258800   0.178   6.438   5.476  1.1896 -3.5613  1.7812
12437TIP3   OH258801   4.093   1.686   1.882 -0.5560  0.5880  0.1771
12437TIP3    H158802   4.123   1.733   1.804 -0.1791  0.3919  0.2025
12437TIP3    H258803   4.048   1.753   1.934  1.9985  1.5315  1.3324
12438TIP3   OH258804   1.643   4.691  12.999 -0.6753 -0.3985  0.2893
12438TIP3    H158805   1.698   4.730  13.067 -0.5500 -0.7071  0.3637
12438TIP3    H258806   1.572   4.648  13.047 -1.3849  0.6011  0.1730
12439TIP3   OH258807   6.005   4.602   2.545  0.1099  0.4554  0.0447
12439TIP3    H158808   5.918   4.618   2.507  1.5548  0.0912 -3.8496
12439TIP3    H258809   6.004   4.510   2.570 -0.5828  0.4294 -0.0598
12440TIP3   OH258810   4.423   5.512  13.341 -0.0258 -0.3395  0.1496
12440TIP3    H158811   4.339   5.467  13.344 -0.1593 -0.0477  1.1213
12440TIP3    H258812   4.475   5.461  13.279  0.3048 -2.7238  2.1978
12441TIP3   OH258813   1.875   6.217  15.668  0.4217  0.4181  0.1608
12441TIP3    H158814   1.785   6.185  15.661  0.5388  0.3835 -2.1877
12441TIP3    H258815   1.921   6.151  15.719 -0.7340  0.0840  0.7891
12442TIP3   OH258816   6.255   1.129  16.719  0.1568  0.0446  0.2027
12442TIP3    H158817   6.179   1.122  16.778  0.6095  0.6382  0.8741
12442TIP3    H258818   6.306   1.050  16.736  0.3004  0.2274  0.6342
12443TIP3   OH258819   1.283   1.298   2.608  0.6535 -0.1284  0.2829
12443TIP3    H158820   1.268   1.385   2.571 -2.0826 -0.8378 -0.4799
12443TIP3    H258821   1.333   1.251   2.542 -1.7863 -0.4963 -1.4295
12444TIP3   OH258822   2.834   3.424   4.052  0.3862 -0.0135 -0.2154
12444TIP3    H158823   2.764   3.438   3.988  0.0045  0.8730  0.3773
12444TIP3    H258824   2.875   3.341   4.026 -0.3982 -0.1576 -1.0128
12445TIP3   OH258825   2.956   3.203   3.944  0.1404  0.2608  0.0469
12445TIP3    H158826   3.008   3.210   4.024  0.3171 -0.3613 -0.0066
12445TIP3    H258827   2.955   3.109   3.924 -1.8406  0.1170  0.6081
12446TIP3   OH258828   1.942   5.382   5.623 -0.2725 -0.0788 -0.2944
12446TIP3    H158829   1.933   5.360   5.716  1.0805 -2.9555 -0.7188
12446TIP3    H258830   2.019   5.439   5.620 -2.3222  2.9725  0.5948
12447TIP3   OH258831   4.812   3.171   4.995  0.2155  0.3602  0.4396
12447TIP3    H158832   4.826   3.232   4.923 -0.7367 -0.5509 -0.5604
12447TIP3    H258833   4.720   3.145   4.987  0.4049 -0.6485  1.2857
12448TIP3   OH258834   4.500   0.439   1.706 -0.5125  0.0403 -0.3000
12448TIP3    H158835   4.515   0.382   1.781 -1.3411  1.1098  0.7004
12448TIP3    H258836   4.427   0.495   1.731 -0.3512  0.9096 -1.6264
12449TIP3   OH258837   4.379   4.125   3.741  0.1786  0.1843  0.3937
12449TIP3    H158838   4.456   4.108   3.794 -1.0343 -0.9014  1.8818
12449TIP3    H258839   4.359   4.042   3.699 -1.0715  0.0163  1.2717
12450TIP3   OH258840   6.168   4.819   0.314  0.2879  0.7937 -0.0782
12450TIP3    H158841   6.160   4.724   0.306  0.1187  0.9144 -1.7333
12450TIP3    H258842   6.252   4.833   0.357 -0.5576 -0.1167  2.0189
12451TIP3   OH258843   1.562   2.890   3.978 -0.3392 -0.1973  0.1344
12451TIP3    H158844   1.568   2.874   3.883 -0.0732 -0.4876  0.2005
12451TIP3    H258845   1.585   2.983   3.987 -1.5348  0.1544 -0.2083
12452TIP3   OH258846   2.757   4.938  16.623 -0.2733 -0.0323 -0.1345
12452TIP3    H158847   2.836   4.986  16.648  0.6520 -2.1071  1.1822
12452TIP3    H258848   2.741   4.964  16.532  1.9755  0.4011 -0.4580
12453TIP3   OH258849   3.814   6.095  16.565  0.7502  0.2189  0.2465
12453TIP3    H158850   3.767   6.023  16.607  1.0203  0.0476  0.2515
12453TIP3    H258851   3.873   6.128  16.633  1.0711  0.0464  0.0542
12454TIP3   OH258852   4.493   6.121   0.790 -0.0491  0.0969 -0.2083
12454TIP3    H158853   4.504   6.093   0.699 -2.8554 -1.0668 -0.2997
12454TIP3    H258854   4.580   6.109   0.830  1.2228  0.5882 -2.6752
12455TIP3   OH258855   2.511   2.883   4.816  0.2169  0.2159 -0.5698
12455TIP3    H158856   2.594   2.838   4.799 -0.4148 -0.7324 -1.3313
12455TIP3    H258857   2.497   2.937   4.738 -1.3599 -2.0467 -2.0094
12456TIP3   OH258858   5.956   6.848   0.280 -0.6129 -0.4465  1.2178
12456TIP3    H158859   6.041   6.867   0.241 -1.5123 -0.2696 -0.7856
12456TIP3    H258860   5.975   6.791   0.354  1.1454 -1.5153 -0.0003
12457TIP3   OH258861   6.067   6.511   3.891 -0.0611  0.3506 -0.3695
12457TIP3    H158862   6.074   6.589   3.947 -1.3432 -0.4446  0.9611
12457TIP3    H258863   5.974   6.488   3.893  0.3990 -1.6676 -0.0648
12458TIP3   OH258864   4.860   2.569  13.681  0.4155 -0.6929 -0.0373
12458TIP3    H158865   4.885   2.616  13.761  0.4151 -2.9722  1.3882
12458TIP3    H258866   4.768   2.546  13.694  0.0509 -0.0110 -1.2819
12459TIP3   OH258867   1.628   0.151   3.102  0.9657 -0.3452 -0.0555
12459TIP3    H158868   1.552   0.124   3.153  0.8238  0.6133  0.2632
12459TIP3    H258869   1.633   0.246   3.114  1.0318 -0.1049 -1.6974
12460TIP3   OH258870   2.808   4.412  14.002 -0.5282  0.0391 -0.1036
12460TIP3    H158871   2.877   4.415  13.936  0.9591 -1.0673  1.3131
12460TIP3    H258872   2.769   4.325  13.991  0.9352 -0.8929  1.5485
12461TIP3   OH258873   2.126   0.442  11.483  0.2248 -0.1418 -0.1487
12461TIP3    H158874   2.133   0.538  11.486 -1.8461  0.0458  0.1937
12461TIP3    H258875   2.166   0.413  11.565 -1.0316  0.6092  0.7654
12462TIP3   OH258876   4.718   3.801   4.296  0.2606  0.3530 -0.7214
12462TIP3    H158877   4.686   3.756   4.217 -0.2146  0.9072 -0.8537
12462TIP3    H258878   4.696   3.893   4.281  0.0636  0.4480  0.1087
12463TIP3   OH258879   0.760   0.743  15.944  0.2440 -0.1790 -0.1448
12463TIP3    H158880   0.780   0.819  15.890  0.0894 -0.6856 -0.9320
12463TIP3    H258881   0.707   0.778  16.016 -0.0855  0.4116 -0.6626
12464TIP3   OH258882   4.712   2.090   6.158  0.6139  0.0066 -0.6260
12464TIP3    H158883   4.733   2.162   6.099  2.2249 -0.2091 -0.3802
12464TIP3    H258884   4.675   2.132   6.236  1.8759  0.6479 -0.3352
12465TIP3   OH258885   0.373   1.405   3.975  0.2811  0.4801 -0.0495
12465TIP3    H158886   0.363   1.373   4.065 -1.3813  0.2925 -0.2700
12465TIP3    H258887   0.409   1.330   3.927  0.6059  0.3894  0.3295
12466TIP3   OH258888   3.055   5.973  11.581  0.3433 -0.1089 -0.4444
12466TIP3    H158889   3.124   6.008  11.637 -0.5975  2.0762 -0.5163
12466TIP3    H258890   2.974   5.989  11.630 -0.2601 -0.8233 -1.1775
12467TIP3   OH258891   6.702   5.775  11.118 -0.1353 -0.3611  0.1019
12467TIP3    H158892   6.716   5.681  11.125  2.0717 -0.1236 -0.4677
12467TIP3    H258893   6.732   5.797  11.030  1.0123  1.1159  0.8240
12468TIP3   OH258894   6.014   2.911   1.496 -0.4548  0.4441  0.8964
12468TIP3    H158895   6.052   2.919   1.409  1.2838  0.0701  1.5699
12468TIP3    H258896   6.089   2.911   1.555 -1.5043 -0.4600  2.3141
12469TIP3   OH258897   0.917   1.965  15.150 -0.4168  0.4370  0.6779
12469TIP3    H158898   0.922   2.009  15.065  1.5934 -1.1012 -0.0910
12469TIP3    H258899   0.933   1.873  15.129 -2.6303 -0.4313  2.4385
12470TIP3   OH258900   5.875   4.509  15.171  0.1466 -0.1159 -0.2422
12470TIP3    H158901   5.916   4.578  15.117  0.5262  0.0670  0.2741
12470TIP3    H258902   5.854   4.553  15.253 -0.7773 -0.3013 -0.3698
12471TIP3   OH258903   3.160   0.474   3.049  0.3732  0.9413 -0.2035
12471TIP3    H158904   3.188   0.403   2.991  0.6311  1.3959 -0.6327
12471TIP3    H258905   3.241   0.514   3.080  0.4657 -1.4032  3.2149
12472TIP3   OH258906   1.092   3.167   3.650 -0.1899 -0.6692 -0.0312
12472TIP3    H158907   1.086   3.234   3.718  3.5086 -1.1844  0.9609
12472TIP3    H258908   1.097   3.084   3.697 -2.8393 -1.6146 -1.1988
12473TIP3   OH258909   2.086   1.299   0.817  0.2618 -0.3375  0.2299
12473TIP3    H158910   2.179   1.291   0.799  0.0324 -1.7829 -0.4564
12473TIP3    H258911   2.043   1.269   0.737 -0.8240  2.3424 -0.3028
12474TIP3   OH258912   1.560   6.767  14.840 -0.0817 -0.1082  0.2991
12474TIP3    H158913   1.548   6.774  14.934  0.7243 -0.2408  0.4198
12474TIP3    H258914   1.527   6.680  14.817  1.1523 -0.7020  0.7095
12475TIP3   OH258915   2.138   4.804  11.373  0.2895 -0.1808  0.2483
12475TIP3    H158916   2.188   4.877  11.412  0.2407  0.4189 -0.7689
12475TIP3    H258917   2.047   4.825  11.392  0.3246 -0.4105  0.6739
12476TIP3   OH258918   2.955   6.260  11.463 -0.1414 -0.6147 -0.2205
12476TIP3    H158919   3.002   6.244  11.545  1.3463 -0.6214 -1.0296
12476TIP3    H258920   2.903   6.338  11.480  1.0397  0.0708  0.3919
12477TIP3   OH258921   4.878   5.054  13.417 -0.3027 -0.3741  0.6654
12477TIP3    H158922   4.946   5.053  13.484  1.3927 -0.9216 -0.9731
12477TIP3    H258923   4.887   5.139  13.375 -0.5583 -0.4913  0.3701
12478TIP3   OH258924   3.562   0.780  14.044 -0.5676  0.5705 -0.2923
12478TIP3    H158925   3.493   0.777  13.979  0.4805 -1.1273 -1.3960
12478TIP3    H258926   3.517   0.802  14.126 -2.2387  0.4894 -1.1457
12479TIP3   OH258927   2.322   4.444  13.341 -0.1831 -0.2224 -0.7268
12479TIP3    H158928   2.232   4.476  13.335  0.1677  1.3652  1.2797
12479TIP3    H258929   2.364   4.472  13.260 -1.2768 -0.2413 -1.3101
12480TIP3   OH258930   6.807   2.145  16.989  0.3271  0.2666 -0.3726
12480TIP3    H158931   6.730   2.197  17.011  0.6897  1.7707 -2.3145
12480TIP3    H258932   6.876   2.177  17.048 -0.0491  0.3081  0.0460
12481TIP3   OH258933   5.213   4.028   5.659  0.2992 -0.3321 -0.7784
12481TIP3    H158934   5.251   3.972   5.591  2.4278 -0.1117  0.1688
12481TIP3    H258935   5.256   4.001   5.740 -2.8561 -1.2542  0.7606
12482TIP3   OH258936   3.402   1.107   4.712 -0.6568 -0.7055  0.0780
12482TIP3    H158937   3.476   1.131   4.768 -0.1391  1.4579 -1.3883
12482TIP3    H258938   3.428   1.025   4.671  0.6261 -0.3490  0.1339
12483TIP3   OH258939   0.480   1.126  12.094 -0.1559  0.0122  0.1542
12483TIP3    H158940   0.389   1.134  12.125  0.0423  2.9693  0.2213
12483TIP3    H258941   0.529   1.102  12.172 -0.1925  3.8421  1.5510
12484TIP3   OH258942   2.325   5.318  15.556 -0.3273 -0.1160  0.1415
12484TIP3    H158943   2.366   5.352  15.636 -0.9704  1.2425 -0.0819
12484TIP3    H258944   2.241   5.365  15.550  0.0134  0.3479 -1.6858
12485TIP3   OH258945   2.191   4.616  11.188  0.8032  1.0613  0.8956
12485TIP3    H158946   2.127   4.546  11.178  1.7125  0.2034  0.9877
12485TIP3    H258947   2.148   4.681  11.243 -0.3748  0.9868  0.0827
12486TIP3   OH258948   1.893   2.219  15.071  0.4278 -0.2813  0.7042
12486TIP3    H158949   1.829   2.260  15.128  0.9379  1.3948  0.1252
12486TIP3    H258950   1.919   2.139  15.117 -1.0189 -0.2656  1.5946
12487TIP3   OH258951   3.836   3.057  14.128 -0.2079 -0.7282 -0.1542
12487TIP3    H158952   3.782   3.127  14.164  1.6841  1.7633 -1.8044
12487TIP3    H258953   3.924   3.074  14.162  1.2265  0.5280 -3.9453
12488TIP3   OH258954   1.453   2.158   6.105 -0.7688  0.1733 -0.3279
12488TIP3    H158955   1.359   2.147   6.115 -0.6173 -1.1307 -0.1769
12488TIP3    H258956   1.491   2.109   6.178  0.0117  1.7953  0.4122
12489TIP3   OH258957   0.078   6.382  11.071  0.3722  0.7737  0.6207
12489TIP3    H158958   0.149   6.423  11.120  1.6636  1.6194 -1.7820
12489TIP3    H258959   0.121   6.339  10.997 -1.3369 -1.6169  0.8964
12490TIP3   OH258960   0.497   3.796  15.711 -0.5727 -0.5561  0.1696
12490TIP3    H158961   0.582   3.805  15.754 -0.6840 -0.4209  0.3599
12490TIP3    H258962   0.513   3.819  15.620 -0.6683  0.7036  0.4571
12491TIP3   OH258963   1.116   4.281   5.003 -0.8868 -0.4786  0.0721
12491TIP3    H158964   1.112   4.186   5.003  2.0451 -0.6818  1.0211
12491TIP3    H258965   1.027   4.308   4.977 -1.1722 -3.4321 -2.7375
12492TIP3   OH258966   5.040   0.573  13.523 -0.2998 -0.9874  0.1645
12492TIP3    H158967   5.038   0.653  13.470 -0.2648 -1.8683 -1.2148
12492TIP3    H258968   5.096   0.596  13.598 -0.3204  0.2856 -0.1780
12493TIP3   OH258969   0.961   6.670  15.500 -0.6325  0.3252  0.0675
12493TIP3    H158970   1.004   6.709  15.424 -1.6584  0.3797 -0.5008
12493TIP3    H258971   0.965   6.738  15.567  0.2483  0.2920  0.0641
12494TIP3   OH258972   3.898   0.144   0.853  0.0725 -0.0870 -0.2487
12494TIP3    H158973   3.895   0.102   0.939  2.4381  2.4958  1.2916
12494TIP3    H258974   3.807   0.142   0.822 -1.1298 -0.0843  2.8944
12495TIP3   OH258975   3.796   1.889  14.502 -0.3615 -0.2920  0.1061
12495TIP3    H158976   3.854   1.962  14.481  1.0903 -1.6262 -0.6561
12495TIP3    H258977   3.732   1.888  14.431  0.8120 -0.9573 -0.9755
12496TIP3   OH258978   4.105   1.721  16.309  0.3614  0.0617  0.2175
12496TIP3    H158979   4.053   1.735  16.230  2.3562  0.6363 -1.0550
12496TIP3    H258980   4.059   1.652  16.356 -2.5001  1.7209  0.0636
12497TIP3   OH258981   6.742   5.742  16.733 -0.2366  0.0656  0.3438
12497TIP3    H158982   6.680   5.813  16.750 -0.5046 -0.1180  0.1346
12497TIP3    H258983   6.721   5.712  16.645 -0.2878 -0.4386  0.5219
12498TIP3   OH258984   5.924   5.292   5.545 -0.7205  0.0759 -0.1361
12498TIP3    H158985   5.982   5.239   5.491  0.5562 -0.2740  1.5179
12498TIP3    H258986   5.858   5.230   5.578  0.7694 -0.5811  1.7954
12499TIP3   OH258987   4.708   2.489  14.255 -0.1334 -0.3357  0.0731
12499TIP3    H158988   4.687   2.460  14.344  1.6341 -2.2673 -0.0518
12499TIP3    H258989   4.678   2.417  14.199 -1.9641  1.2160 -1.0240
12500TIP3   OH258990   1.544   2.222   2.999  0.1123 -0.1895  0.2728
12500TIP3    H158991   1.480   2.177   3.054 -0.6215 -0.0686 -0.4734
12500TIP3    H258992   1.627   2.177   3.017 -0.5740 -1.7801 -0.3669
12501TIP3   OH258993   6.211   4.330   5.459 -0.4293 -0.3458 -0.5792
12501TIP3    H158994   6.259   4.260   5.416 -1.5715 -1.5909  0.0939
12501TIP3    H258995   6.179   4.385   5.388  0.9510 -0.1820 -1.0861
12502TIP3   OH258996   0.382   4.893  15.474 -0.2320  0.1275  0.1432
12502TIP3    H158997   0.444   4.880  15.403  1.4413 -3.4402  1.9562
12502TIP3    H258998   0.389   4.986  15.495  0.8309  0.8375 -2.8411
12503TIP3   OH258999   5.499   4.520   4.684 -0.1884 -0.3453  0.2919
12503TIP3    H159000   5.585   4.561   4.693 -0.2683 -0.2550  0.7025
12503TIP3    H259001   5.515   4.427   4.701  0.3162 -0.8524 -2.4474
12504TIP3   OH259002   5.654   2.120   2.779 -0.6433  0.1487  0.0539
12504TIP3    H159003   5.745   2.095   2.796 -0.9604 -0.6805  0.6099
12504TIP3    H259004   5.658   2.214   2.759  0.4754 -0.1422 -1.1890
12505TIP3   OH259005   3.327   0.966   4.019 -0.7130 -0.4459 -0.3468
12505TIP3    H159006   3.296   1.037   3.963 -2.8352 -0.1647  1.0653
12505TIP3    H259007   3.249   0.916   4.041  0.1537 -1.0586  1.6453
12506TIP3   OH259008   6.251   2.160  15.955  0.0980  0.1302  0.6465
12506TIP3    H159009   6.294   2.244  15.941  0.3054 -0.1609 -0.5940
12506TIP3    H259010   6.231   2.128  15.867  0.2394 -1.2377  1.0823
12507TIP3   OH259011   0.960   2.480   1.146 -0.1121 -0.0922 -0.2779
12507TIP3    H159012   1.039   2.524   1.115 -2.1606  3.3890 -1.0906
12507TIP3    H259013   0.923   2.437   1.069 -0.9279  1.5556 -0.8452
12508TIP3   OH259014   3.904   5.414  12.463  0.3933  0.2190  0.2744
12508TIP3    H159015   3.829   5.473  12.477  0.3001 -0.1085  1.2555
12508TIP3    H259016   3.916   5.412  12.368 -0.1293  1.1618  0.1792
12509TIP3   OH259017   1.052   0.737   3.267  0.2456  0.5935  0.5608
12509TIP3    H159018   1.091   0.815   3.226  0.7895  0.2305  0.3728
12509TIP3    H259019   1.029   0.681   3.193 -0.2527  0.6219  0.6912
12510TIP3   OH259020   1.579   0.416  15.667 -0.2176  0.7855 -0.2614
12510TIP3    H159021   1.604   0.393  15.756 -0.6281 -0.5811 -0.4748
12510TIP3    H259022   1.651   0.382  15.612  0.2115  1.9336 -0.4440
12511TIP3   OH259023   5.200   5.872  13.062 -0.2046  0.4331 -0.4753
12511TIP3    H159024   5.227   5.957  13.099  0.9246 -0.3185  0.5377
12511TIP3    H259025   5.131   5.893  13.000  1.7742  2.3945 -2.1742
12512TIP3   OH259026   1.281   2.850  16.358  0.1170 -0.1845 -0.2749
12512TIP3    H159027   1.241   2.924  16.404 -1.8178 -1.1366 -0.3472
12512TIP3    H259028   1.252   2.773  16.407  2.1357 -0.9404 -0.1806
12513TIP3   OH259029   3.629   5.918   4.040 -0.0753  0.4511 -0.4316
12513TIP3    H159030   3.593   5.947   4.124 -0.4036  0.6816 -0.6483
12513TIP3    H259031   3.698   5.982   4.020 -0.1979  0.5715 -0.4766
12514TIP3   OH259032   5.179   4.546   0.346  0.2135 -0.5118  0.2955
12514TIP3    H159033   5.119   4.492   0.294  1.3248 -0.7725 -0.7610
12514TIP3    H259034   5.183   4.630   0.300 -0.2652 -0.0626  1.0440
12515TIP3   OH259035   1.571   6.505  15.526 -0.3794  0.8733 -0.2648
12515TIP3    H159036   1.659   6.483  15.557 -0.3548 -0.3640 -1.1473
12515TIP3    H259037   1.584   6.536  15.437 -0.9005 -0.0348 -0.6666
12516TIP3   OH259038   2.670   0.107   2.333  0.5425 -0.1350 -0.4241
12516TIP3    H159039   2.649   0.190   2.375  1.9524  0.2353 -0.3914
12516TIP3    H259040   2.596   0.050   2.354 -0.4260  1.0923 -0.4280
12517TIP3   OH259041   0.585   4.760   5.050  0.2914 -0.3162  0.1756
12517TIP3    H159042   0.579   4.789   5.141  0.3895 -1.6390  0.6277
12517TIP3    H259043   0.658   4.699   5.050  0.2694 -0.3479 -0.7923
12518TIP3   OH259044   2.717   2.857  12.544  0.4380 -0.3982  0.5372
12518TIP3    H159045   2.780   2.870  12.473  1.7134 -1.1528  1.4837
12518TIP3    H259046   2.664   2.783  12.517 -0.8707  0.9675 -0.8014
12519TIP3   OH259047   3.114   3.161  15.708  0.6244  0.5253  0.3187
12519TIP3    H159048   3.109   3.222  15.781  1.7916  0.2746  0.6356
12519TIP3    H259049   3.205   3.166  15.678  0.3520  0.0863 -0.6494
12520TIP3   OH259050   6.196   3.643  14.600 -0.0769  0.0471  0.1762
12520TIP3    H159051   6.126   3.602  14.550 -0.6502  0.6853  0.4410
12520TIP3    H259052   6.185   3.609  14.689 -0.4136  0.5941  0.3459
12521TIP3   OH259053   4.805   3.913  15.617 -0.1097  0.2003  0.6854
12521TIP3    H159054   4.770   3.890  15.530  0.3604  2.7099 -0.2598
12521TIP3    H259055   4.750   3.866  15.678 -2.6516  0.9118 -0.8848
12522TIP3   OH259056   6.382   5.790   4.622  0.1426 -0.3693  0.1522
12522TIP3    H159057   6.413   5.833   4.543 -0.2220  1.9645  1.2028
12522TIP3    H259058   6.369   5.861   4.685 -2.7708 -1.7328  1.2754
12523TIP3   OH259059   4.611   3.796   2.050 -0.6785 -0.3408  0.0720
12523TIP3    H159060   4.635   3.888   2.045  0.5133 -0.5773  0.9991
12523TIP3    H259061   4.679   3.756   2.105 -0.6784 -1.9302 -0.9988
12524TIP3   OH259062   6.441   4.577   3.245  0.0520 -0.0142 -0.4391
12524TIP3    H159063   6.384   4.580   3.321  3.5106  0.5174  2.3787
12524TIP3    H259064   6.500   4.504   3.261 -0.2990 -1.1840 -3.6788
12525TIP3   OH259065   2.956   5.895   5.205  0.3737  0.3307  0.7368
12525TIP3    H159066   2.907   5.973   5.179 -1.0212 -0.9897 -0.8108
12525TIP3    H259067   2.951   5.895   5.301 -2.0717  0.6335  0.6611
12526TIP3   OH259068   2.383   1.686   6.589  0.6734  0.8373  0.2559
12526TIP3    H159069   2.346   1.599   6.574 -0.2679  0.6932  2.8630
12526TIP3    H259070   2.330   1.744   6.533  0.1841 -0.0367 -0.2099
12527TIP3   OH259071   6.323   3.506  11.376  0.2476  0.5366  0.2714
12527TIP3    H159072   6.292   3.453  11.450 -1.0908 -0.0949 -0.7000
12527TIP3    H259073   6.379   3.446  11.326 -0.3891  0.3584 -0.2403
12528TIP3   OH259074   2.973   5.591  14.967 -0.4269  0.1615  0.8439
12528TIP3    H159075   3.010   5.677  14.950 -0.0932  0.1264  1.3708
12528TIP3    H259076   3.027   5.531  14.916 -1.5167  0.3870 -0.6486
12529TIP3   OH259077   5.450   6.267   1.374  0.1977 -0.4687  0.1816
12529TIP3    H159078   5.522   6.328   1.354  0.8773 -1.9544 -2.3881
12529TIP3    H259079   5.480   6.221   1.452  1.1790  0.2079  0.2334
12530TIP3   OH259080   2.085   0.406  14.911  0.5016  0.1537  0.2102
12530TIP3    H159081   2.141   0.482  14.895  1.0972  0.4064  3.0172
12530TIP3    H259082   2.144   0.331  14.912  0.4942  0.1496  1.0851
12531TIP3   OH259083   6.286   1.792  14.344 -0.1033  0.2071 -0.3944
12531TIP3    H159084   6.260   1.853  14.413 -0.0984  0.0634 -0.2640
12531TIP3    H259085   6.378   1.811  14.327  0.2942 -0.6963  0.6336
12532TIP3   OH259086   2.155   5.774  10.992  0.0464 -0.0737 -0.0726
12532TIP3    H159087   2.116   5.755  10.906  2.4590  1.2875 -1.5581
12532TIP3    H259088   2.200   5.693  11.016 -0.3019 -0.3284 -0.2519
12533TIP3   OH259089   5.993   2.554  11.587 -0.5613 -0.4660  0.2577
12533TIP3    H159090   6.014   2.485  11.524  0.1481  0.9293 -1.1220
12533TIP3    H259091   5.979   2.632  11.533 -1.1688  0.5178  1.7684
12534TIP3   OH259092   0.930   1.521   2.662  0.2707 -0.4508 -0.3285
12534TIP3    H159093   1.002   1.563   2.616 -0.2100 -0.5662 -1.2076
12534TIP3    H259094   0.968   1.492   2.745  1.3312 -0.8297 -0.9267
12535TIP3   OH259095   0.713   4.491   1.020 -0.1771 -0.2861 -0.4412
12535TIP3    H159096   0.804   4.503   0.992 -0.6066  0.2379 -1.6975
12535TIP3    H259097   0.719   4.464   1.112  1.1755  1.6084  0.0861
12536TIP3   OH259098   4.948   4.667   3.619  0.4467  0.4202 -0.4262
12536TIP3    H159099   4.935   4.580   3.658 -0.3354 -0.0680 -1.7368
12536TIP3    H259100   5.043   4.676   3.611  0.6785  0.6819  1.8470
12537TIP3   OH259101   5.275   2.154  13.596  0.4260 -0.1219  0.2748
12537TIP3    H159102   5.272   2.059  13.609  0.6631 -0.0207  1.1709
12537TIP3    H259103   5.368   2.174  13.586  0.5602  0.2243  1.9688
12538TIP3   OH259104   3.392   5.913   2.623 -0.2293 -0.4893 -0.6415
12538TIP3    H159105   3.405   5.851   2.551  0.5545  0.2023 -1.1031
12538TIP3    H259106   3.445   5.989   2.600  0.1068 -0.2817  0.7150
12539TIP3   OH259107   3.993   4.458   2.444  0.0189 -0.5194 -0.1639
12539TIP3    H159108   3.991   4.366   2.418 -1.1987 -0.7378  0.6417
12539TIP3    H259109   3.939   4.503   2.378  0.4098 -0.4083 -0.4143
12540TIP3   OH259110   6.716   6.079   1.426 -0.2299  0.0081 -0.0139
12540TIP3    H159111   6.638   6.070   1.371  0.3813 -1.3312 -0.6976
12540TIP3    H259112   6.713   6.002   1.483  1.7738 -1.3660 -1.6146
12541TIP3   OH259113   1.378   5.262  10.424 -0.3350  0.5495  0.2264
12541TIP3    H159114   1.303   5.204  10.425  0.2681 -0.2954  2.4731
12541TIP3    H259115   1.454   5.204  10.431  0.3338  1.5099  1.3949
12542TIP3   OH259116   5.139   6.290   4.449  0.2144 -0.1368 -0.5652
12542TIP3    H159117   5.096   6.371   4.476  0.0836 -0.4871  0.3276
12542TIP3    H259118   5.152   6.300   4.355 -0.9163  0.3990 -0.6858
12543TIP3   OH259119   6.255   6.447  11.842 -0.3601 -0.0731  0.2710
12543TIP3    H159120   6.188   6.380  11.825 -0.8524  0.0781  1.5319
12543TIP3    H259121   6.260   6.453  11.937  0.7048  0.6806  0.1877
12544TIP3   OH259122   0.614   6.280   2.867 -0.1932 -0.3048  0.0510
12544TIP3    H159123   0.680   6.235   2.920  0.2076  0.2098 -0.0011
12544TIP3    H259124   0.662   6.351   2.824 -0.5682 -0.5565 -0.8028
12545TIP3   OH259125   3.195   5.453  14.879  0.2564  0.3380  0.5844
12545TIP3    H159126   3.283   5.454  14.840  0.9001 -1.9440  1.8032
12545TIP3    H259127   3.208   5.486  14.967 -0.1431  0.1691  0.7064
12546TIP3   OH259128   1.347   0.316   3.080 -1.0001  0.2939 -0.6511
12546TIP3    H159129   1.411   0.341   3.014 -0.3403  1.0673  0.2484
12546TIP3    H259130   1.304   0.238   3.045  0.2034 -0.0395 -1.4135
12547TIP3   OH259131   5.807   6.501  13.775 -0.5903  0.0650 -0.1834
12547TIP3    H159132   5.817   6.596  13.765 -0.4192 -0.0819 -1.5824
12547TIP3    H259133   5.865   6.479  13.847 -1.2208  1.1276  0.6858
12548TIP3   OH259134   4.167   5.707  14.070 -0.4162  0.4334 -0.3996
12548TIP3    H159135   4.140   5.708  13.978  1.2153  0.5149 -0.9162
12548TIP3    H259136   4.209   5.791  14.084 -0.5727  0.3888  0.4095
12549TIP3   OH259137   6.017   2.608   5.018  0.0470  0.5983 -0.0154
12549TIP3    H159138   6.004   2.687   5.071  0.9775  1.3805 -0.8892
12549TIP3    H259139   5.951   2.614   4.950 -0.0546  0.4856  0.0738
12550TIP3   OH259140   0.117   5.035   4.496  0.0554 -0.4933 -0.2406
12550TIP3    H159141   0.120   5.130   4.485 -1.5251 -0.5600 -1.9115
12550TIP3    H259142   0.157   5.000   4.416 -0.7871 -1.1899 -0.3891
12551TIP3   OH259143   1.605   0.036  13.254  0.3428 -0.0036  0.3429
12551TIP3    H159144   1.698   0.054  13.271  0.2167  1.3586 -0.2546
12551TIP3    H259145   1.579   0.105  13.193 -0.6208 -1.4092 -0.8927
12552TIP3   OH259146   0.252   4.776  16.209  0.8740 -0.1985 -0.1560
12552TIP3    H159147   0.276   4.727  16.130 -0.4370  2.0456 -2.0390
12552TIP3    H259148   0.157   4.775  16.210  0.8418 -1.2823  2.1998
12553TIP3   OH259149   5.377   0.400  16.905 -0.2209 -0.3503  0.0063
12553TIP3    H159150   5.381   0.454  16.984 -0.4950  0.5810 -0.6024
12553TIP3    H259151   5.468   0.371  16.891  0.2231  1.1764 -0.4722
12554TIP3   OH259152   4.158   6.038   4.186  0.5428  0.0727  0.7415
12554TIP3    H159153   4.139   6.109   4.125 -1.1401 -1.5311 -0.7328
12554TIP3    H259154   4.084   6.037   4.246 -0.6197 -1.7187 -0.6064
12555TIP3   OH259155   5.933   6.147  13.867  0.4335  0.2567  0.6711
12555TIP3    H159156   5.978   6.120  13.787 -0.1304 -1.3457  0.8540
12555TIP3    H259157   5.963   6.087  13.934 -0.6890  0.2166  1.1722
12556TIP3   OH259158   1.585   1.311  15.873 -0.0282  0.4645 -0.4178
12556TIP3    H159159   1.626   1.394  15.849  0.7586  0.5788  1.1903
12556TIP3    H259160   1.603   1.253  15.799  0.4456  1.3765 -1.0355
12557TIP3   OH259161   2.506   5.567  15.773  0.4666 -0.2121  0.0195
12557TIP3    H159162   2.530   5.474  15.767 -1.0264 -0.6861  0.9413
12557TIP3    H259163   2.452   5.573  15.852  2.0969  1.8091  1.1084
12558TIP3   OH259164   5.220   0.232  14.892  0.5776  0.0590  0.2926
12558TIP3    H159165   5.211   0.312  14.840 -0.4717  0.4156  0.9957
12558TIP3    H259166   5.267   0.259  14.971  0.0654  0.0239  0.6133
12559TIP3   OH259167   4.584   6.126   0.517 -0.5277  0.4770 -0.2440
12559TIP3    H159168   4.535   6.202   0.488 -0.5378  0.8574  0.7571
12559TIP3    H259169   4.596   6.074   0.437  0.1237  1.8700 -1.0871
12560TIP3   OH259170   0.634   5.793  16.737  0.0648 -0.0761  0.2197
12560TIP3    H159171   0.544   5.817  16.716  0.8389  1.5444 -1.5818
12560TIP3    H259172   0.685   5.871  16.715  1.9494 -1.0559  0.9142
12561TIP3   OH259173   4.056   0.888   1.649 -0.3423 -0.2194 -0.1875
12561TIP3    H159174   4.140   0.885   1.696 -0.2975 -0.0657 -0.2567
12561TIP3    H259175   4.028   0.979   1.656 -0.7214 -0.3679  0.2138
12562TIP3   OH259176   5.725   1.448  15.868 -0.1521 -0.0026  0.3392
12562TIP3    H159177   5.808   1.453  15.821 -0.1117  0.7281  0.4722
12562TIP3    H259178   5.659   1.443  15.799  0.0036 -0.7090  0.2357
12563TIP3   OH259179   3.446   2.801   5.080  0.0877 -1.1524  0.2792
12563TIP3    H159180   3.525   2.772   5.126 -0.0994 -1.1766  0.5957
12563TIP3    H259181   3.374   2.763   5.132 -0.1288 -1.1276 -0.0017
12564TIP3   OH259182   5.483   0.575  13.182 -0.9052  0.6000  0.4446
12564TIP3    H159183   5.421   0.577  13.110 -1.1936 -0.0303  0.6661
12564TIP3    H259184   5.543   0.504  13.160 -0.2010  1.2620  0.1902
12565TIP3   OH259185   1.608   4.364   2.400 -0.2623  0.1352  0.3312
12565TIP3    H159186   1.682   4.376   2.340 -1.0685  0.0932 -0.6999
12565TIP3    H259187   1.603   4.446   2.449  0.6272  0.0366  0.6030
12566TIP3   OH259188   2.825   4.560   4.116  0.1542 -0.3727  0.4408
12566TIP3    H159189   2.833   4.655   4.126 -1.1047 -0.4671  3.1120
12566TIP3    H259190   2.910   4.526   4.142 -0.2104 -0.0639  2.1401
12567TIP3   OH259191   1.135   2.016   2.003 -0.1572 -0.0268 -0.0057
12567TIP3    H159192   1.167   2.021   1.913 -1.4589  0.6319 -0.4538
12567TIP3    H259193   1.211   1.987   2.053  1.1304  1.4365 -1.0124
12568TIP3   OH259194   3.937   3.961  12.741 -0.4450  0.1050  0.4313
12568TIP3    H159195   3.887   3.972  12.661 -0.8994 -1.2432  0.5125
12568TIP3    H259196   3.998   4.035  12.742 -0.4643  0.1556 -1.1151
12569TIP3   OH259197   4.327   6.774  12.651 -0.4038  0.3680  0.1749
12569TIP3    H159198   4.420   6.758  12.666 -0.7177 -1.7030  0.2217
12569TIP3    H259199   4.323   6.824  12.570  0.7182 -0.0482 -0.1480
12570TIP3   OH259200   2.044   6.449   4.579  0.2575 -0.1700 -0.6248
12570TIP3    H159201   1.973   6.477   4.637 -1.2181  1.9034 -3.2357
12570TIP3    H259202   2.123   6.457   4.633 -1.2290 -0.5563  1.7443
12571TIP3   OH259203   5.008   0.143   2.072 -0.2271  0.3528  0.0244
12571TIP3    H159204   5.011   0.159   2.166 -1.5555  2.0001 -0.1656
12571TIP3    H259205   5.058   0.215   2.033  0.1678 -0.2200 -0.5522
12572TIP3   OH259206   2.541   3.586  10.428 -0.4721  0.2615 -0.0322
12572TIP3    H159207   2.614   3.646  10.411  0.1013  0.3808  2.4575
12572TIP3    H259208   2.550   3.517  10.362  2.6605 -0.3661  0.8925
12573TIP3   OH259209   6.193   0.652   3.007 -0.7159  0.3616  0.3802
12573TIP3    H159210   6.153   0.617   3.086 -1.2045  0.9331  0.3960
12573TIP3    H259211   6.246   0.726   3.038  1.7418 -1.3582  0.5861
12574TIP3   OH259212   3.829   3.055  13.112 -0.3972 -0.1750 -0.4114
12574TIP3    H159213   3.776   3.129  13.143 -2.4301 -1.0560 -1.5919
12574TIP3    H259214   3.918   3.077  13.138 -0.8427  2.9265 -1.1289
12575TIP3   OH259215   5.223   1.877  16.964  0.4591 -0.1712 -0.3280
12575TIP3    H159216   5.161   1.855  17.033 -0.7295  0.7207 -1.0784
12575TIP3    H259217   5.291   1.927  17.008 -0.5364  0.8097  0.1315
12576TIP3   OH259218   0.435   5.350   4.663  0.1670  0.0361  0.2961
12576TIP3    H159219   0.392   5.314   4.585  0.0045  3.0271 -1.1354
12576TIP3    H259220   0.516   5.299   4.671 -0.9291 -1.8885 -0.3961
12577TIP3   OH259221   2.053   3.740   5.716  0.2375 -0.1595 -0.1854
12577TIP3    H159222   2.098   3.784   5.787 -1.0480  1.8825 -0.5534
12577TIP3    H259223   2.106   3.759   5.638 -0.6438  1.3598 -0.4481
12578TIP3   OH259224   5.199   5.396   3.382 -0.9625  0.5250  0.0635
12578TIP3    H159225   5.129   5.387   3.447 -0.8843 -2.1206 -0.1028
12578TIP3    H259226   5.167   5.346   3.307  1.1998 -1.0151  0.1005
12579TIP3   OH259227   6.846   0.134  15.598  0.5306  0.4015 -0.1069
12579TIP3    H159228   6.818   0.204  15.539  0.0622 -1.4535 -2.2865
12579TIP3    H259229   6.938   0.121  15.577  0.1165 -0.9466 -1.3067
12580TIP3   OH259230   0.273   5.332   2.621 -0.1085 -0.0068  0.3462
12580TIP3    H159231   0.182   5.347   2.594 -0.2823 -0.4818  0.6592
12580TIP3    H259232   0.288   5.394   2.692  0.2608  1.0543 -0.6183
12581TIP3   OH259233   4.290   1.215  16.234 -0.2483  0.3030 -0.3213
12581TIP3    H159234   4.286   1.293  16.179  1.7378  0.4938 -0.2729
12581TIP3    H259235   4.216   1.162  16.206 -0.5610  1.3775 -1.6395
12582TIP3   OH259236   0.293   5.954   4.747 -0.2263 -0.3699  0.6803
12582TIP3    H159237   0.236   5.917   4.680  1.1723 -0.0957 -0.7202
12582TIP3    H259238   0.350   5.881   4.772 -0.3293 -0.3040  1.1059
12583TIP3   OH259239   3.463   6.851  17.069  0.0670  0.1511  0.2971
12583TIP3    H159240   3.546   6.803  17.066  0.4932  0.6794  2.1029
12583TIP3    H259241   3.466   6.912  16.995  0.4279 -1.1273 -0.7770
12584TIP3   OH259242   4.684   2.309   4.477  0.0918  0.4506  0.2994
12584TIP3    H159243   4.631   2.284   4.553  0.6954 -1.7332  0.0585
12584TIP3    H259244   4.774   2.305   4.508  0.2493  2.0396  0.1175
12585TIP3   OH259245   0.710   0.616   4.332 -0.0656  0.0646  0.0925
12585TIP3    H159246   0.705   0.711   4.320 -1.2247  0.0301  0.1357
12585TIP3    H259247   0.756   0.605   4.415 -1.8556  0.7019  1.2411
12586TIP3   OH259248   0.708   1.036   1.217 -0.0965 -0.2343 -0.2365
12586TIP3    H159249   0.714   1.112   1.158 -2.0913  0.0507 -0.1480
12586TIP3    H259250   0.642   1.061   1.281  1.8591 -0.6235  2.0718
12587TIP3   OH259251   2.401   3.876  11.195  0.0413  0.5091  0.6930
12587TIP3    H159252   2.322   3.826  11.173 -1.1667  2.7855 -0.5392
12587TIP3    H259253   2.393   3.894  11.288 -0.5615  0.1977  0.7041
12588TIP3   OH259254   5.721   5.958   0.281  0.5704 -0.1487  0.2468
12588TIP3    H159255   5.718   5.862   0.280  2.3085 -0.2722  1.6186
12588TIP3    H259256   5.634   5.985   0.252 -0.9819 -2.1720  2.6163
12589TIP3   OH259257   0.087   2.969   1.057  0.1359  0.2613  0.1016
12589TIP3    H159258  -0.002   3.001   1.071  0.5261  0.7541  1.7458
12589TIP3    H259259   0.086   2.879   1.090 -0.1838 -0.4190 -1.6377
12590TIP3   OH259260   0.341   5.081   4.127  0.2678  0.0103  0.1753
12590TIP3    H159261   0.289   5.001   4.113  0.5043  0.0860 -1.2196
12590TIP3    H259262   0.275   5.149   4.142  0.0428 -0.2954  0.6229
12591TIP3   OH259263   2.675   0.110   1.673  0.2715  0.4473 -0.7204
12591TIP3    H159264   2.637   0.182   1.622 -0.1582  0.9889  0.3505
12591TIP3    H259265   2.750   0.149   1.718 -0.5004  0.4795  0.5900
12592TIP3   OH259266   0.486   1.842  16.356 -0.0155 -0.4312  0.2035
12592TIP3    H159267   0.516   1.753  16.371 -0.4887 -0.4760  0.9150
12592TIP3    H259268   0.566   1.892  16.338  0.5591 -0.4678  2.3911
12593TIP3   OH259269   5.030   1.896  11.329  0.5188 -0.7157  0.5638
12593TIP3    H159270   4.943   1.881  11.291  1.2741 -1.3920 -0.9416
12593TIP3    H259271   5.028   1.988  11.356 -0.6556 -0.7218  0.5744
12594TIP3   OH259272   2.291   0.371  16.492 -0.1141 -0.0540 -0.5426
12594TIP3    H159273   2.210   0.324  16.472 -0.0043 -0.7366  0.5384
12594TIP3    H259274   2.275   0.410  16.578  1.4347 -2.0171  0.7411
12595TIP3   OH259275   0.344   3.239   3.764 -0.0205  0.2348  0.2036
12595TIP3    H159276   0.412   3.200   3.818 -0.1237  0.6535  0.6392
12595TIP3    H259277   0.387   3.256   3.680  0.3117  0.1728  0.3612
12596TIP3   OH259278   2.683   6.084   5.219 -0.0220 -0.0938 -0.3090
12596TIP3    H159279   2.671   6.170   5.260 -1.7071 -0.2984 -0.3254
12596TIP3    H259280   2.737   6.103   5.142 -2.4223  1.4392 -1.7500
12597TIP3   OH259281   6.031   5.597  14.761 -0.4064  0.4946 -0.0024
12597TIP3    H159282   5.945   5.632  14.739 -1.4419  0.1164  3.0050
12597TIP3    H259283   6.024   5.503  14.745 -0.7287  0.4037  0.6322
12598TIP3   OH259284   0.700   6.598   1.683  0.2051 -0.0164  0.0793
12598TIP3    H159285   0.765   6.661   1.650 -1.2289  0.8057 -1.3506
12598TIP3    H259286   0.724   6.515   1.640  0.6785  0.1125  0.0828
12599TIP3   OH259287   5.054   2.004  13.166  0.2761  0.1785  0.0575
12599TIP3    H159288   4.962   1.977  13.173  0.0307  1.1972  1.0377
12599TIP3    H259289   5.057   2.091  13.206  1.7700 -0.0483  0.5117
12600TIP3   OH259290   4.679   5.948  16.279 -0.4109  1.0251 -0.8494
12600TIP3    H159291   4.752   5.955  16.219 -0.2462 -0.4320 -0.8716
12600TIP3    H259292   4.604   5.925  16.224 -0.4378  0.5027 -0.6026
12601TIP3   OH259293   2.335   3.230   6.358  0.1790 -0.4877 -0.0819
12601TIP3    H159294   2.427   3.215   6.336  0.3524 -0.1049  0.3706
12601TIP3    H259295   2.296   3.142   6.358  0.5660 -0.6622 -0.1690
12602TIP3   OH259296   0.537   5.759   1.199  0.4747 -0.5693 -0.2938
12602TIP3    H159297   0.480   5.771   1.275 -0.1316 -0.6339 -0.7274
12602TIP3    H259298   0.624   5.781   1.231  0.1930 -0.3536  0.3542
12603TIP3   OH259299   3.173   3.175   4.555 -0.2445  0.2378 -0.2545
12603TIP3    H159300   3.149   3.099   4.608  1.6242 -0.7698 -0.7801
12603TIP3    H259301   3.141   3.155   4.467 -0.1953  0.2813 -0.2826
12604TIP3   OH259302   0.421   3.406   2.846 -0.0541 -0.4852 -0.1947
12604TIP3    H159303   0.494   3.400   2.784  0.0295 -1.8781  0.0098
12604TIP3    H259304   0.420   3.499   2.873  1.7819 -0.4680 -0.0413
12605TIP3   OH259305   6.766   6.055  14.354  0.1295 -0.4720 -0.9424
12605TIP3    H159306   6.773   5.964  14.381 -2.4273 -0.6398 -0.6229
12605TIP3    H259307   6.793   6.056  14.262  2.2634 -1.1154 -0.3656
12606TIP3   OH259308   3.253   1.287  15.404 -0.8386  0.0484  0.7029
12606TIP3    H159309   3.304   1.315  15.329  1.0931  0.6699  2.1611
12606TIP3    H259310   3.225   1.198  15.383  2.2260 -0.9770  0.4147
12607TIP3   OH259311   4.845   1.465   2.418 -0.2106  0.2129  0.4826
12607TIP3    H159312   4.789   1.418   2.355  0.4300  0.8396 -0.5897
12607TIP3    H259313   4.843   1.410   2.496 -0.9782 -0.6364 -0.0984
12608TIP3   OH259314   5.471   5.771   0.384  0.2445  0.4239  0.6093
12608TIP3    H159315   5.556   5.766   0.428  0.5343  0.1354  0.0327
12608TIP3    H259316   5.493   5.773   0.291 -0.4305 -0.9511  0.4056
12609TIP3   OH259317   5.800   2.028  13.607 -0.1890 -0.1761  0.6777
12609TIP3    H159318   5.765   2.061  13.689  1.3425 -0.9735  1.6936
12609TIP3    H259319   5.855   1.953  13.632  0.2556 -0.4837 -1.0708
12610TIP3   OH259320   4.920   4.531   4.500  0.2891 -0.4234 -0.5738
12610TIP3    H159321   4.986   4.566   4.559 -0.3678  0.9850 -0.6448
12610TIP3    H259322   4.862   4.605   4.481 -1.4497 -1.6524 -0.3309
12611TIP3   OH259323   3.657   6.753  15.024 -0.0689  0.0161 -0.0546
12611TIP3    H159324   3.700   6.702  14.956 -2.1961 -0.8240 -0.8536
12611TIP3    H259325   3.723   6.817  15.052  2.2402 -2.2608  0.0407
12612TIP3   OH259326   2.515   0.635  12.399  0.2664  0.0259  0.3080
12612TIP3    H159327   2.585   0.570  12.392  0.5469  0.2927  0.6239
12612TIP3    H259328   2.547   0.698  12.463  0.2687  0.8237 -0.4613
12613TIP3   OH259329   6.722   0.703   2.166 -0.1846 -0.5110 -0.6247
12613TIP3    H159330   6.762   0.618   2.182 -0.9208 -0.4341  2.0728
12613TIP3    H259331   6.629   0.690   2.184 -0.0393  1.2397  1.9178
12614TIP3   OH259332   3.407   0.388  13.048 -0.6241  0.0227 -0.1822
12614TIP3    H159333   3.334   0.330  13.069 -0.3304  0.4087  2.1514
12614TIP3    H259334   3.460   0.390  13.127  0.2082  2.2650 -0.7149
12615TIP3   OH259335   2.100   4.293  13.596 -0.1135 -0.0994  0.2600
12615TIP3    H159336   2.084   4.211  13.643 -1.0211 -1.0704 -1.6464
12615TIP3    H259337   2.196   4.303  13.599 -0.0544 -0.7602  1.2349
12616TIP3   OH259338   5.309   3.216  15.890  0.4260  0.3085  0.2528
12616TIP3    H159339   5.266   3.135  15.860  0.9572 -0.1166  0.6192
12616TIP3    H259340   5.385   3.185  15.940  1.1577  1.0464 -0.3733
12617TIP3   OH259341   1.801   4.386  15.730  0.2982  1.5157  0.4607
12617TIP3    H159342   1.773   4.474  15.754  0.6569  1.4801  1.0392
12617TIP3    H259343   1.826   4.393  15.638 -0.4261  1.8282  0.2783
12618TIP3   OH259344   2.042   6.706   4.830 -0.0584 -0.1666  0.0690
12618TIP3    H159345   1.976   6.745   4.887 -0.0399 -0.1456  0.0764
12618TIP3    H259346   2.016   6.615   4.821  0.3006 -0.3322  0.6423
12619TIP3   OH259347   2.807   4.370  11.813  0.2245  0.1561  0.3314
12619TIP3    H159348   2.720   4.340  11.789  0.1710  0.0499  0.6457
12619TIP3    H259349   2.817   4.454  11.768  0.5269 -0.4996 -0.8657
12620TIP3   OH259350   3.937   0.258   3.603 -0.2799  0.0767 -0.1543
12620TIP3    H159351   3.889   0.338   3.584  1.8776  1.3573 -0.5849
12620TIP3    H259352   3.952   0.218   3.517 -0.7242 -0.4135 -0.0069
12621TIP3   OH259353   6.487   4.970  11.774  0.4226 -0.3176 -0.2784
12621TIP3    H159354   6.517   5.018  11.851  1.7623 -3.3932  1.3069
12621TIP3    H259355   6.410   5.018  11.744  0.8925  1.9958  1.8615
12622TIP3   OH259356   1.434   5.189   4.845  0.6672 -0.2216 -0.0823
12622TIP3    H159357   1.384   5.119   4.887  0.1287  0.0038 -0.3301
12622TIP3    H259358   1.506   5.207   4.905  0.1218 -0.1619  0.5634
12623TIP3   OH259359   0.211   6.331   0.025 -0.1192 -0.4415  0.6937
12623TIP3    H159360   0.288   6.277   0.045 -0.9012 -1.2378  1.7311
12623TIP3    H259361   0.153   6.272  -0.023  0.2719  0.4322 -0.9247
12624TIP3   OH259362   0.660   5.366  13.669 -0.0571 -0.4274 -0.5148
12624TIP3    H159363   0.568   5.343  13.683 -0.3906  1.0701  0.0326
12624TIP3    H259364   0.669   5.373  13.574 -1.2741  1.9985 -0.5406
12625TIP3   OH259365   2.751   3.345   2.094 -0.3182  0.5762  0.5983
12625TIP3    H159366   2.768   3.426   2.046  0.7967  0.2717  0.4413
12625TIP3    H259367   2.686   3.299   2.041 -0.6381  1.1737  0.4641
12626TIP3   OH259368   1.247   3.991  12.977 -0.4586 -0.3226 -0.0478
12626TIP3    H159369   1.156   3.988  12.945 -0.3207 -1.2751 -0.3886
12626TIP3    H259370   1.247   3.930  13.051 -0.2799  0.2858  0.4551
12627TIP3   OH259371   4.820   6.619  17.023 -0.3612 -0.1368 -0.1403
12627TIP3    H159372   4.914   6.605  17.032 -0.5438 -0.1788  2.6878
12627TIP3    H259373   4.811   6.712  17.003  0.2908  0.2113  1.0539
12628TIP3   OH259374   3.179   5.517  11.806 -0.2375  0.1205  0.1081
12628TIP3    H159375   3.217   5.429  11.812 -2.6536 -0.9823  0.4628
12628TIP3    H259376   3.160   5.530  11.713 -0.0616  0.1802  0.0810
12629TIP3   OH259377   2.361   5.105  11.727  0.6422 -0.0935  0.3993
12629TIP3    H159378   2.409   5.105  11.645  1.9853 -0.3721  1.1563
12629TIP3    H259379   2.350   5.198  11.749  4.0126  0.0995  1.9422
12630TIP3   OH259380   5.582   1.227  14.671 -0.4270  0.1026 -0.4426
12630TIP3    H159381   5.617   1.142  14.697  2.0287  1.2358  0.1496
12630TIP3    H259382   5.569   1.274  14.753  0.1762  1.0104 -0.8561
12631TIP3   OH259383   2.588   3.258   3.868  0.6354  0.1042 -0.1830
12631TIP3    H159384   2.497   3.243   3.894  1.0692  0.6475  1.8093
12631TIP3    H259385   2.626   3.171   3.863 -0.3856 -0.2798 -2.8209
12632TIP3   OH259386   0.139   1.547  13.333  0.6200  0.8602 -0.0570
12632TIP3    H159387   0.211   1.533  13.394 -1.1848  0.4579  2.1038
12632TIP3    H259388   0.114   1.459  13.304 -0.7235  0.7223  1.3812
12633TIP3   OH259389   4.727   2.908   3.750  0.4669  0.1409 -0.8411
12633TIP3    H159390   4.737   2.880   3.658 -0.3390  1.1403 -1.2413
12633TIP3    H259391   4.740   2.827   3.800  1.7471 -0.2752 -1.7754
12634TIP3   OH259392   4.508   0.634  11.893  0.4027 -0.9655 -0.0920
12634TIP3    H159393   4.583   0.575  11.901  0.8136 -0.2541  1.9409
12634TIP3    H259394   4.510   0.662  11.802  2.6535 -0.9535 -0.1136
12635TIP3   OH259395   6.194   6.459   2.759 -0.2609 -0.2304  0.2892
12635TIP3    H159396   6.136   6.409   2.816 -1.3937  0.2952 -0.3724
12635TIP3    H259397   6.173   6.428   2.671  0.6672 -0.2213  0.0491
12636TIP3   OH259398   5.134   3.034  15.592  0.1550 -0.2386 -0.1061
12636TIP3    H159399   5.216   3.010  15.636  0.0021 -0.8984 -0.1642
12636TIP3    H259400   5.068   3.031  15.661 -0.0202 -0.8972 -0.2978
12637TIP3   OH259401   2.185   6.625  12.178  0.7745 -0.3633 -0.1133
12637TIP3    H159402   2.278   6.621  12.202  0.5856  2.3116  1.5649
12637TIP3    H259403   2.139   6.597  12.257  0.0679 -2.6046 -1.2368
12638TIP3   OH259404   1.287   5.193   0.840 -0.1189  0.2232  0.3020
12638TIP3    H159405   1.355   5.234   0.786  0.5966 -0.0029  1.0126
12638TIP3    H259406   1.289   5.242   0.922 -2.4836  1.8189 -0.4676
12639TIP3   OH259407   2.193   5.862   5.445  0.0131  0.1517 -0.2643
12639TIP3    H159408   2.184   5.795   5.377  1.6137 -0.1227 -0.2500
12639TIP3    H259409   2.140   5.829   5.518 -0.3233 -0.4193 -0.7590
12640TIP3   OH259410   1.709   6.605  13.152  0.3413  0.3600  0.1418
12640TIP3    H159411   1.777   6.604  13.085  1.7456  0.8752  1.4904
12640TIP3    H259412   1.688   6.698  13.165 -1.1455  0.1837 -0.7153
12641TIP3   OH259413   0.871   5.932   2.919 -0.2537 -0.7246  0.2397
12641TIP3    H159414   0.893   5.856   2.974 -0.9149 -1.7797 -0.8952
12641TIP3    H259415   0.821   5.894   2.847  1.2348  0.5115 -1.5128
12642TIP3   OH259416   6.656   2.097  12.829 -0.3954 -0.0017  0.3814
12642TIP3    H159417   6.747   2.094  12.857  0.5226 -0.5693 -2.3459
12642TIP3    H259418   6.610   2.038  12.889  1.0602  0.0798  1.6373
12643TIP3   OH259419   3.658   4.233   5.801 -0.2644 -0.1465 -0.8381
12643TIP3    H159420   3.582   4.189   5.840 -1.6712  1.1247 -1.9732
12643TIP3    H259421   3.714   4.255   5.875 -0.7471 -1.5536 -0.0097
12644TIP3   OH259422   0.543   2.743  11.681  0.1100 -0.3220  0.1134
12644TIP3    H159423   0.468   2.748  11.740 -0.1944  0.6264 -0.3311
12644TIP3    H259424   0.560   2.649  11.672  0.2360 -0.4896  1.7651
12645TIP3   OH259425   4.323   2.901  16.371 -0.0982 -0.0952  0.2097
12645TIP3    H159426   4.240   2.854  16.362  0.0122 -0.6246  1.6348
12645TIP3    H259427   4.299   2.986  16.408 -0.1699  0.4903 -1.1390
12646TIP3   OH259428   3.511   2.912  10.779  0.5337 -0.2381  0.3513
12646TIP3    H159429   3.428   2.955  10.759  0.5366 -0.4580 -0.1689
12646TIP3    H259430   3.493   2.818  10.770  1.0198 -0.2621 -0.5803
12647TIP3   OH259431   6.147   3.520  15.481 -0.2980 -0.1375 -0.2564
12647TIP3    H159432   6.152   3.426  15.464  4.5376 -0.5651  1.8592
12647TIP3    H259433   6.208   3.559  15.418  1.3552  0.8661  1.8249
12648TIP3   OH259434   5.066   2.936  14.174 -0.1918  0.3252  0.9502
12648TIP3    H159435   5.018   2.858  14.204  0.0057 -0.0494  0.3000
12648TIP3    H259436   5.001   3.006  14.179 -0.8415 -0.1826  0.0410
12649TIP3   OH259437   2.779   2.294   5.172  0.1750  0.2134 -0.0603
12649TIP3    H159438   2.838   2.291   5.097 -0.6030  0.4947 -0.6955
12649TIP3    H259439   2.816   2.362   5.228 -0.6597  1.8938 -1.4476
12650TIP3   OH259440   1.472   6.483  14.714  0.7228  0.1679  0.2675
12650TIP3    H159441   1.561   6.447  14.714  0.3223 -0.9487 -1.3231
12650TIP3    H259442   1.416   6.409  14.738  0.1544  0.6680  0.5289
12651TIP3   OH259443   2.010   6.530   3.291 -0.2526 -0.0989 -0.0716
12651TIP3    H159444   1.980   6.440   3.304  0.0630 -0.4688 -1.6329
12651TIP3    H259445   2.006   6.542   3.196  0.0677  1.4110  0.0915
12652TIP3   OH259446   2.616   3.515  15.825 -0.2727 -0.1722  0.4098
12652TIP3    H159447   2.598   3.442  15.883  0.5280  0.2719  1.2450
12652TIP3    H259448   2.593   3.483  15.738  2.3871 -2.3148  0.3739
12653TIP3   OH259449   4.073   1.354   1.168 -0.6341 -0.1836 -0.2605
12653TIP3    H159450   4.136   1.344   1.097  0.6306 -1.1617  0.9247
12653TIP3    H259451   4.029   1.437   1.150  1.1397  0.6379 -1.0598
12654TIP3   OH259452   3.918   3.493  13.463 -0.2305 -0.9802 -0.0427
12654TIP3    H159453   4.001   3.457  13.430  0.6309 -1.1997  2.1522
12654TIP3    H259454   3.943   3.539  13.544 -1.8192  1.6115 -0.9074
12655TIP3   OH259455   3.266   1.937   3.184  0.1638  0.1448 -0.4179
12655TIP3    H159456   3.348   1.921   3.137 -0.9420 -3.7952 -1.3852
12655TIP3    H259457   3.289   1.928   3.276  0.5970 -3.2114 -0.7383
12656TIP3   OH259458   6.753   6.737   0.801 -0.4557  0.4432 -0.2976
12656TIP3    H159459   6.721   6.662   0.853 -2.1852  1.6817  0.5324
12656TIP3    H259460   6.817   6.699   0.741 -1.4998 -1.7658 -0.1209
12657TIP3   OH259461   1.035   6.665   4.785 -1.1397 -0.5426  0.1375
12657TIP3    H159462   0.970   6.616   4.835  0.9401 -3.0307  0.5878
12657TIP3    H259463   1.076   6.601   4.727  1.1206  0.8057  0.0835
12658TIP3   OH259464   1.492   2.438  16.283  0.0230  0.2992  0.6255
12658TIP3    H159465   1.439   2.495  16.228  1.7025  1.1439 -0.1983
12658TIP3    H259466   1.497   2.482  16.368  1.9582  1.8900 -0.2310
12659TIP3   OH259467   1.339   4.100  14.728  0.0262  0.5387 -0.8973
12659TIP3    H159468   1.373   4.142  14.807  1.4360 -1.0363 -0.6194
12659TIP3    H259469   1.356   4.163  14.658 -1.4525  2.0608  0.0202
12660TIP3   OH259470   1.778   2.254  17.054  0.4630 -0.0433 -0.3446
12660TIP3    H159471   1.790   2.257  17.148 -0.0671  0.3527 -0.2910
12660TIP3    H259472   1.691   2.291  17.039 -0.1929 -1.6881 -0.8389
12661TIP3   OH259473   6.765   3.363   0.155 -0.5094 -0.1110 -0.4536
12661TIP3    H159474   6.846   3.364   0.207  0.0086  3.0189 -1.1172
12661TIP3    H259475   6.793   3.336   0.068 -0.5341 -0.7316 -0.2780
12662TIP3   OH259476   3.238   5.951  12.884 -0.3724  0.2054  0.1667
12662TIP3    H159477   3.185   5.997  12.950 -1.6207 -0.5434 -0.2789
12662TIP3    H259478   3.178   5.937  12.811  0.2895 -1.1541 -0.1466
12663TIP3   OH259479   4.697   0.860   4.330  0.2575 -0.1213 -0.0735
12663TIP3    H159480   4.703   0.907   4.247 -0.9543  1.0686  0.4686
12663TIP3    H259481   4.704   0.928   4.397  0.8702 -1.0208  0.8071
12664TIP3   OH259482   5.676   2.579   5.801  0.5182  0.2105 -0.4701
12664TIP3    H159483   5.755   2.627   5.776  0.1700  0.8370 -0.3764
12664TIP3    H259484   5.678   2.577   5.897  0.9497 -0.6718 -0.4912
12665TIP3   OH259485   5.500   0.370   1.943  0.0649  0.3457 -0.1303
12665TIP3    H159486   5.489   0.380   1.848  1.9979  0.4383 -0.3927
12665TIP3    H259487   5.552   0.446   1.969  0.8702 -0.4623  0.7187
12666TIP3   OH259488   6.503   6.601   1.172  0.0901 -0.7277  0.0326
12666TIP3    H159489   6.534   6.514   1.198 -1.5484 -1.9187 -1.7543
12666TIP3    H259490   6.438   6.584   1.105  0.1467  1.9419 -0.7996
12667TIP3   OH259491   3.757   3.460  12.007 -0.2767 -0.1015 -0.7171
12667TIP3    H159492   3.799   3.527  11.952 -0.6136  1.1674  0.5332
12667TIP3    H259493   3.699   3.413  11.947  0.6182  0.1321 -1.8019
12668TIP3   OH259494   2.017   5.302   3.366 -0.3242  0.2783 -0.3023
12668TIP3    H159495   1.976   5.262   3.289  0.3768  0.5215 -0.8092
12668TIP3    H259496   2.100   5.338   3.334 -0.5380  1.3859  0.3199
12669TIP3   OH259497   5.331   0.527  15.300  0.0881 -0.0689  0.4011
12669TIP3    H159498   5.410   0.566  15.262 -0.5259 -0.4644 -1.3989
12669TIP3    H259499   5.332   0.437  15.268  0.4395 -1.0161  2.8519
12670TIP3   OH259500   0.720   2.306  15.919 -0.4260 -0.0282  0.1596
12670TIP3    H159501   0.742   2.213  15.914 -3.2841 -0.8704  1.2656
12670TIP3    H259502   0.666   2.322  15.841 -0.9718  0.3685  0.6105
12671TIP3   OH259503   1.748   3.945   3.498 -0.1322 -0.2667 -0.5441
12671TIP3    H159504   1.767   4.013   3.563 -0.7584 -0.1520 -0.4723
12671TIP3    H259505   1.653   3.946   3.490 -0.0172  0.4739 -2.2541
12672TIP3   OH259506   5.969   2.464  13.066 -0.0279  0.1237 -0.0283
12672TIP3    H159507   6.005   2.529  13.006 -0.7239 -0.6708 -1.3482
12672TIP3    H259508   5.905   2.416  13.014  0.0966 -1.2855  1.0532
12673TIP3   OH259509   3.665   1.828  10.506 -0.2470  0.2103  0.0750
12673TIP3    H159510   3.596   1.890  10.529 -1.8013 -1.2513 -0.5138
12673TIP3    H259511   3.713   1.816  10.588 -1.2092  0.6069  0.7184
12674TIP3   OH259512   3.520   6.308   3.429 -0.3065  0.8324 -0.1428
12674TIP3    H159513   3.587   6.313   3.362 -1.6687 -0.2135 -1.6556
12674TIP3    H259514   3.506   6.214   3.443 -1.4196  1.0214  0.1628
12675TIP3   OH259515   1.690   5.538   5.322  0.1220 -0.6795 -0.0559
12675TIP3    H159516   1.775   5.581   5.316 -0.0949 -0.2049  0.1700
12675TIP3    H259517   1.661   5.554   5.412  0.6219 -2.4567  0.4489
12676TIP3   OH259518   1.085   1.444  17.048  0.1703 -0.5739  0.4774
12676TIP3    H159519   1.177   1.432  17.026 -0.2058 -1.4474 -0.7137
12676TIP3    H259520   1.041   1.456  16.963 -0.8438 -0.3731  1.0144
12677TIP3   OH259521   1.703   4.706   5.524  0.1785 -0.5447 -0.1285
12677TIP3    H159522   1.762   4.705   5.599  0.4150  0.2698 -0.2954
12677TIP3    H259523   1.641   4.635   5.542  1.9156 -2.2717 -0.5569
12678TIP3   OH259524   3.450   2.870  11.746 -0.1771  0.4353 -0.4412
12678TIP3    H159525   3.545   2.866  11.743 -0.0978  2.0844 -2.3196
12678TIP3    H259526   3.429   2.900  11.834  1.0458  0.5084 -0.1591
12679TIP3   OH259527   0.633   2.816  13.556 -0.0632  0.1257  0.0699
12679TIP3    H159528   0.590   2.869  13.623  0.4224 -0.2493  0.6829
12679TIP3    H259529   0.678   2.747  13.604  0.1082 -0.2835 -0.6568
12680TIP3   OH259530   5.181   2.457  13.055 -0.0105 -0.5279  0.2372
12680TIP3    H159531   5.261   2.443  13.107  0.8525  2.8188  0.0596
12680TIP3    H259532   5.197   2.410  12.973  1.7436 -0.0518  0.2711
12681TIP3   OH259533   2.869   4.469   5.495  0.5665 -0.0457  0.3690
12681TIP3    H159534   2.849   4.554   5.533 -0.5383  1.2223 -2.7737
12681TIP3    H259535   2.965   4.466   5.491  0.6192  1.0106  0.6217
12682TIP3   OH259536   5.487   0.300   4.292  0.3078 -0.1478 -0.3738
12682TIP3    H159537   5.509   0.328   4.203  0.0266  0.2740 -0.3101
12682TIP3    H259538   5.445   0.214   4.280 -0.6873  0.3768 -0.7425
12683TIP3   OH259539   0.902   1.047   3.348 -0.0351  0.3484 -0.0904
12683TIP3    H159540   0.811   1.032   3.320  0.2666 -0.0370 -0.9024
12683TIP3    H259541   0.921   1.136   3.320  0.0393  0.2064 -0.5014
12684TIP3   OH259542   2.302   1.796   5.386 -0.6190 -0.1665  0.3428
12684TIP3    H159543   2.259   1.730   5.440 -1.7034  1.2862  1.3447
12684TIP3    H259544   2.347   1.746   5.318 -0.8808 -1.9464  1.4136
12685TIP3   OH259545   5.842   6.581   0.366  0.2029  0.3090 -0.1491
12685TIP3    H159546   5.833   6.486   0.376  2.1794 -0.3210 -3.0220
12685TIP3    H259547   5.754   6.610   0.342 -0.2687 -0.9103  0.0093
12686TIP3   OH259548   2.882   5.824  12.946 -0.0830  0.0704  0.4972
12686TIP3    H159549   2.969   5.785  12.934  0.6355  1.6661  0.3417
12686TIP3    H259550   2.826   5.778  12.883  0.2122 -2.1806  1.7824
12687TIP3   OH259551   3.342   3.013  13.446  0.0167  0.5476 -0.0289
12687TIP3    H159552   3.262   2.982  13.404 -0.1695  2.4955 -1.2610
12687TIP3    H259553   3.396   3.046  13.373  1.7779 -0.3275  0.8160
12688TIP3   OH259554   6.403   6.559  16.071  0.3777 -0.5232 -0.0948
12688TIP3    H159555   6.470   6.559  16.138 -0.9843  0.8763  1.3652
12688TIP3    H259556   6.353   6.478  16.086  1.0183 -1.0068 -0.4862
12689TIP3   OH259557   5.967   0.063  14.830 -0.5589 -0.0006  0.3567
12689TIP3    H159558   6.018  -0.016  14.848 -0.6382 -0.1035  0.1300
12689TIP3    H259559   5.972   0.074  14.735  0.5127  0.9838  0.5018
12690TIP3   OH259560   1.968   5.091  10.707 -0.0406 -0.2532  0.3350
12690TIP3    H159561   1.903   5.098  10.637  0.1103  0.9381  0.3024
12690TIP3    H259562   1.917   5.080  10.787 -0.2105 -2.1130  0.0189
12691TIP3   OH259563   2.324   4.501   3.087 -0.3856  0.0274  0.0930
12691TIP3    H159564   2.244   4.469   3.128 -1.5100 -0.0209 -1.9895
12691TIP3    H259565   2.302   4.506   2.994  2.0967 -0.1582 -0.5640
12692TIP3   OH259566   4.261   4.266   3.521  0.1539  0.4295  0.3735
12692TIP3    H159567   4.314   4.344   3.539  2.1705 -0.7147 -0.3144
12692TIP3    H259568   4.290   4.202   3.586 -1.3184  0.1327  0.7796
12693TIP3   OH259569   2.117   2.406  13.836 -0.1269 -0.1053 -0.4073
12693TIP3    H159570   2.178   2.374  13.903 -0.6686  0.1652  0.2186
12693TIP3    H259571   2.117   2.501  13.846 -2.3396 -0.1939  1.1291
12694TIP3   OH259572   2.045   0.103  14.683  0.1986 -0.3805  0.1225
12694TIP3    H159573   2.069   0.090  14.591 -1.9162 -0.4650 -0.4846
12694TIP3    H259574   1.976   0.170  14.680 -0.1249 -0.6103  1.6080
12695TIP3   OH259575   6.359   6.828   4.184  0.1716  0.0650  0.3299
12695TIP3    H159576   6.328   6.918   4.190  0.1814  0.5344 -3.9211
12695TIP3    H259577   6.450   6.832   4.214 -0.1699  1.1425  1.3047
12696TIP3   OH259578   1.811   4.003  14.776  0.6529 -0.1141  0.5058
12696TIP3    H159579   1.859   3.932  14.818  0.7495 -0.4504 -0.1700
12696TIP3    H259580   1.861   4.023  14.697  0.9612  1.1145  0.9776
12697TIP3   OH259581   5.526   3.443  14.013 -0.0512 -0.0958  0.5989
12697TIP3    H159582   5.489   3.355  14.012  1.1821 -0.6320 -0.1548
12697TIP3    H259583   5.600   3.438  14.073  0.6075  0.1668 -0.1773
12698TIP3   OH259584   0.568   6.453   6.405  0.3311 -0.2408 -0.2924
12698TIP3    H159585   0.643   6.471   6.461  2.5326 -2.4791 -2.2611
12698TIP3    H259586   0.542   6.538   6.371  0.0178  0.9426  2.6315
12699TIP3   OH259587   0.636   4.019   5.189 -0.5607 -0.1370  0.0678
12699TIP3    H159588   0.638   3.930   5.225 -0.7796 -0.5810 -0.9846
12699TIP3    H259589   0.543   4.037   5.177 -0.5205  0.2750  0.3524
12700TIP3   OH259590   5.443   2.442   0.505 -0.1212 -0.5511  0.2906
12700TIP3    H159591   5.424   2.496   0.428 -1.4858  0.0286  0.9915
12700TIP3    H259592   5.412   2.355   0.482  0.4385 -0.6253 -0.1928
12701TIP3   OH259593   3.676   2.738   2.638  0.3593 -0.2361  0.1134
12701TIP3    H159594   3.683   2.647   2.609 -0.7465 -0.0846 -0.7198
12701TIP3    H259595   3.589   2.744   2.677  1.1902 -0.0016  2.0293
12702TIP3   OH259596   4.189   4.193  13.429 -0.7324 -0.2529  0.7258
12702TIP3    H159597   4.247   4.264  13.456  0.9936 -0.9866 -0.8522
12702TIP3    H259598   4.182   4.202  13.334 -2.6910 -0.6142  0.7869
12703TIP3   OH259599   1.168   4.146  15.468  0.4197 -0.8493  0.1109
12703TIP3    H159600   1.182   4.213  15.400  0.0411  0.4566  1.2707
12703TIP3    H259601   1.230   4.077  15.446  1.7560  0.4553 -0.4098
12704TIP3   OH259602   5.258   6.042  16.420 -0.0165  0.4933 -0.1013
12704TIP3    H159603   5.176   6.005  16.455  0.0124  0.9024  0.4132
12704TIP3    H259604   5.323   6.022  16.487  0.0073  1.4311  0.1705
12705TIP3   OH259605   0.653   0.930   5.730  0.1022 -0.2096  0.1857
12705TIP3    H159606   0.566   0.895   5.710 -0.2514 -0.3088  1.7971
12705TIP3    H259607   0.664   0.917   5.824  2.1278 -0.7339 -0.0747
12706TIP3   OH259608   3.458   2.810  14.952  0.2247  0.5059 -0.4024
12706TIP3    H159609   3.406   2.827  14.873  1.7689 -1.7203 -2.0344
12706TIP3    H259610   3.531   2.872  14.946  0.4477  0.2060 -0.8571
12707TIP3   OH259611   1.436   6.670   0.900 -0.3081  0.2420 -0.2337
12707TIP3    H159612   1.500   6.731   0.865 -1.2058  1.3427 -0.0148
12707TIP3    H259613   1.360   6.678   0.842 -1.1484  0.7780  0.8880
12708TIP3   OH259614   1.878   4.643  11.006 -0.0976  0.1759  0.1817
12708TIP3    H159615   1.800   4.623  10.954  1.4827 -1.0823 -1.8864
12708TIP3    H259616   1.876   4.582  11.079  0.1621 -1.6396 -1.2529
12709TIP3   OH259617   5.938   6.538   1.982  0.1203 -0.0520 -0.1290
12709TIP3    H159618   5.887   6.513   2.059  0.1993  1.0321  0.3007
12709TIP3    H259619   5.907   6.479   1.913 -0.5174 -0.5200  0.5328
12710TIP3   OH259620   4.756   1.429  11.489  0.5483 -0.3466 -0.7663
12710TIP3    H159621   4.756   1.524  11.500  1.9714 -0.1785 -1.9763
12710TIP3    H259622   4.692   1.413  11.420 -0.1446 -0.3545 -0.1428
12711TIP3   OH259623   6.450   5.124  16.647  0.0199  0.0458 -0.3770
12711TIP3    H159624   6.378   5.170  16.690 -0.0331  0.8253 -1.2599
12711TIP3    H259625   6.517   5.191  16.635 -0.3789  0.1525 -2.4436
12712TIP3   OH259626   0.277   5.305  11.755 -0.5104 -0.1794 -0.2472
12712TIP3    H159627   0.186   5.298  11.728  0.0948  0.4934 -2.6976
12712TIP3    H259628   0.325   5.319  11.674  1.4454  2.6722  1.2388
12713TIP3   OH259629   2.916   2.979  11.735 -0.2565  0.1596 -0.2306
12713TIP3    H159630   2.952   2.892  11.751  1.6951  0.6234 -1.6650
12713TIP3    H259631   2.907   3.018  11.821  1.8628 -0.3509  0.2665
12714TIP3   OH259632   3.481   6.800   5.689 -0.0159 -0.1868 -0.5643
12714TIP3    H159633   3.470   6.812   5.783 -0.0266  1.2075 -0.7312
12714TIP3    H259634   3.572   6.775   5.678  0.3452  0.9739 -0.2881
12715TIP3   OH259635   1.919   3.378   4.025  0.6619 -0.0709 -0.2339
12715TIP3    H159636   1.871   3.413   4.100  1.4932  1.2833 -0.2836
12715TIP3    H259637   1.923   3.284   4.040 -1.5246 -0.1700  0.0257
12716TIP3   OH259638   2.788   1.230  13.894  0.5029  0.0190  0.3345
12716TIP3    H159639   2.784   1.323  13.871 -0.4510  0.7257  3.0528
12716TIP3    H259640   2.698   1.199  13.884  0.5768 -0.3015  0.6587
12717TIP3   OH259641   4.259   1.198   1.801  0.0977  0.4576  0.1535
12717TIP3    H159642   4.302   1.188   1.716  0.8357 -1.0382  0.6657
12717TIP3    H259643   4.331   1.195   1.865 -0.3469  2.4504  0.8170
12718TIP3   OH259644   5.461   4.910  11.344 -0.2902  0.4114 -0.2080
12718TIP3    H159645   5.492   4.866  11.266 -1.7743 -1.0634 -0.0173
12718TIP3    H259646   5.451   5.002  11.318 -2.2002 -0.2911 -2.2546
12719TIP3   OH259647   5.087   1.820  13.372  0.2091 -0.3605 -0.1315
12719TIP3    H159648   5.039   1.768  13.307 -1.3481  0.7745  0.0632
12719TIP3    H259649   5.146   1.874  13.320 -0.0405 -0.4453 -0.5069
12720TIP3   OH259650   3.758   5.572   4.598  0.0436  0.6098 -0.3318
12720TIP3    H159651   3.800   5.550   4.515  0.4674 -0.6185  0.1820
12720TIP3    H259652   3.665   5.581   4.576  0.0407 -0.4264 -0.8380
12721TIP3   OH259653   0.049   3.425  12.923 -0.1201 -0.2901 -0.2898
12721TIP3    H159654   0.015   3.480  12.852 -0.6075 -0.6238 -0.3218
12721TIP3    H259655   0.083   3.487  12.987 -1.6667  0.1230  0.1883
12722TIP3   OH259656   2.834   1.783  14.893  0.0580  0.0514  0.0679
12722TIP3    H159657   2.879   1.863  14.920 -0.6174  0.2139  0.7299
12722TIP3    H259658   2.780   1.810  14.819  0.0490  0.1424  0.1084
12723TIP3   OH259659   1.324   5.645   2.448 -0.1505 -0.4603 -0.5188
12723TIP3    H159660   1.295   5.697   2.523  0.0395 -1.4289  0.2497
12723TIP3    H259661   1.291   5.692   2.372 -0.1843  0.6567  0.1553
12724TIP3   OH259662   4.825   2.510   0.268 -0.0590  0.4727 -0.4842
12724TIP3    H159663   4.765   2.436   0.263  0.3744  0.0412  0.5395
12724TIP3    H259664   4.772   2.582   0.301  0.1420 -0.1120  1.1785
12725TIP3   OH259665   4.495   3.806   3.027 -0.1718  0.3161  0.6222
12725TIP3    H159666   4.415   3.855   3.008 -1.7094 -1.7915  1.3409
12725TIP3    H259667   4.465   3.719   3.053  2.3482 -0.4045  1.4222
12726TIP3   OH259668   2.209   6.513  12.810  0.3325  0.4333 -0.5635
12726TIP3    H159669   2.213   6.453  12.884 -1.3328  2.0269  0.9450
12726TIP3    H259670   2.300   6.536  12.792  0.8236 -0.6684  0.3919
12727TIP3   OH259671   0.086   1.997  14.752  0.3242 -0.1747  0.1767
12727TIP3    H159672   0.070   2.083  14.791 -1.5070 -0.7306  0.7768
12727TIP3    H259673   0.002   1.951  14.761  0.8350 -1.5222 -1.4141
12728TIP3   OH259674   0.470   5.579  13.713 -0.1241  0.0791  0.3333
12728TIP3    H159675   0.565   5.567  13.719  0.1947  1.5658 -1.1126
12728TIP3    H259676   0.450   5.570  13.620 -1.3237  0.2922  0.5495
12729TIP3   OH259677   6.420   0.108  15.145 -0.1628 -0.3572  0.9452
12729TIP3    H159678   6.437   0.200  15.168 -0.3856 -0.4968  1.7024
12729TIP3    H259679   6.328   0.106  15.118  0.7634  0.3128 -2.7086
12730TIP3   OH259680   1.303   6.805   4.809  0.0189  0.4169  0.5173
12730TIP3    H159681   1.359   6.776   4.738 -0.7228 -0.9662  0.4702
12730TIP3    H259682   1.214   6.785   4.780 -0.4395  1.4813  1.0899
12731TIP3   OH259683   3.857   2.272  13.735 -0.2213 -0.2803  0.0530
12731TIP3    H159684   3.932   2.286  13.677 -1.3367 -1.2309 -1.7045
12731TIP3    H259685   3.780   2.283  13.678 -1.4730  0.9889  1.8599
12732TIP3   OH259686   5.750   2.884  12.805 -0.4161  0.2026 -0.0805
12732TIP3    H159687   5.657   2.859  12.804 -0.4778  0.4161  0.1543
12732TIP3    H259688   5.796   2.808  12.770 -0.6264 -0.1189  0.3297
12733TIP3   OH259689   3.215   0.398   4.372  0.2132 -0.9344 -0.1642
12733TIP3    H159690   3.299   0.391   4.326  0.5987 -1.4692  0.6106
12733TIP3    H259691   3.233   0.455   4.447  0.3401 -2.4406  0.9936
12734TIP3   OH259692   6.293   5.680   5.580  0.1159  0.2392 -0.5835
12734TIP3    H159693   6.250   5.742   5.522  0.8887  1.1269 -0.2270
12734TIP3    H259694   6.223   5.621   5.608 -0.3739  0.1342 -1.9586
12735TIP3   OH259695   1.969   0.641   0.572 -0.1248 -0.6412  0.5308
12735TIP3    H159696   1.958   0.716   0.629  0.8473  0.3796 -0.5771
12735TIP3    H259697   1.884   0.598   0.572 -1.1740  1.3180  0.0137
12736TIP3   OH259698   3.564   6.345   5.928  0.2715 -0.2081 -0.0185
12736TIP3    H159699   3.639   6.375   5.875 -1.2714  1.7071 -1.2699
12736TIP3    H259700   3.488   6.360   5.872 -1.1668 -1.1486  1.5932
12737TIP3   OH259701   2.227   2.823  12.384  0.6280 -0.0904 -0.2057
12737TIP3    H159702   2.143   2.796  12.347  0.0785  0.1848  0.8068
12737TIP3    H259703   2.243   2.761  12.455  0.7865  0.4684  0.2540
12738TIP3   OH259704   4.342   0.762  14.608  0.0934  0.3185  0.0873
12738TIP3    H159705   4.306   0.831  14.664 -0.3009  0.1590  0.0335
12738TIP3    H259706   4.433   0.754  14.635 -0.7160 -1.6081  2.5656
12739TIP3   OH259707   2.041   3.769  15.968 -0.4356 -0.3317  0.4981
12739TIP3    H159708   2.053   3.863  15.986 -3.4940  0.8776 -2.6661
12739TIP3    H259709   2.130   3.736  15.955  0.6884  2.9566 -1.5750
12740TIP3   OH259710   4.833   3.917   4.790 -0.0778 -0.4163 -0.3158
12740TIP3    H159711   4.841   3.916   4.694  0.2906 -0.1876 -0.2904
12740TIP3    H259712   4.924   3.924   4.821 -0.2613  0.5725  0.0289
12741TIP3   OH259713   3.036   5.809  15.623 -0.1529 -0.5122 -0.0507
12741TIP3    H159714   2.998   5.741  15.567 -1.7333 -0.2781  0.6782
12741TIP3    H259715   3.130   5.802  15.608 -0.3454 -2.1730 -0.7733
12742TIP3   OH259716   2.170   1.046   3.377  0.1451 -0.5701 -0.3930
12742TIP3    H159717   2.252   1.095   3.367  1.1746 -2.4153 -1.7132
12742TIP3    H259718   2.163   0.995   3.296 -1.5927 -1.4970  0.3025
12743TIP3   OH259719   0.644   3.745  14.034 -0.6454  0.3981 -0.0289
12743TIP3    H159720   0.657   3.668  14.089 -2.9961  1.5039  2.2731
12743TIP3    H259721   0.559   3.730  13.992 -1.1558  1.7236  0.4937
12744TIP3   OH259722   2.084   5.030   0.412  0.6592 -0.1802  0.4096
12744TIP3    H159723   2.118   4.994   0.330 -1.0045 -0.6994 -0.1088
12744TIP3    H259724   2.152   5.012   0.477  1.0580 -1.8190 -0.4037
12745TIP3   OH259725   3.332   4.230   1.406 -0.1378 -0.0919 -0.1234
12745TIP3    H159726   3.369   4.158   1.356  0.2318  0.7812 -1.1341
12745TIP3    H259727   3.403   4.258   1.464 -0.1418 -0.2340 -0.0471
12746TIP3   OH259728   0.669   2.051   0.976  0.4848  0.1009  0.3882
12746TIP3    H159729   0.745   2.007   0.939  1.0465  0.6283  0.8848
12746TIP3    H259730   0.627   2.094   0.901 -0.2251 -1.4602 -0.1467
12747TIP3   OH259731   4.760   2.382   3.961 -0.1884  0.2927 -0.7943
12747TIP3    H159732   4.721   2.301   3.992 -0.6847  0.3914 -1.1424
12747TIP3    H259733   4.824   2.355   3.896  0.0483  0.1494 -0.5006
12748TIP3   OH259734   0.628   4.059  15.892  0.1967  0.6582 -0.1283
12748TIP3    H159735   0.717   4.057  15.926  0.1762  0.7032 -0.0724
12748TIP3    H259736   0.636   4.026  15.802 -0.1084 -1.7928  0.6906
12749TIP3   OH259737   2.498   0.595  15.575 -0.2645 -0.7688  0.1657
12749TIP3    H159738   2.479   0.579  15.668  0.1153 -0.3401  0.3229
12749TIP3    H259739   2.424   0.647  15.544 -0.2535 -0.6686  0.3063
12750TIP3   OH259740   3.009   6.846  14.092 -0.6285  0.1966 -0.1043
12750TIP3    H159741   2.976   6.856  14.182  2.3871 -1.3318  1.3120
12750TIP3    H259742   2.953   6.904  14.040 -4.0366 -0.6031  2.2900
12751TIP3   OH259743   1.935   6.413  15.225 -0.0049 -0.1638 -0.2535
12751TIP3    H159744   1.980   6.461  15.155 -1.0137  2.0556  0.5242
12751TIP3    H259745   1.870   6.475  15.259 -1.0414 -1.9358  1.1981
12752TIP3   OH259746   3.064   3.687   4.642 -0.1382  0.2821 -0.5951
12752TIP3    H159747   3.107   3.720   4.721 -2.0295  1.0312  0.1981
12752TIP3    H259748   3.101   3.600   4.629  0.6081  0.3516  0.8045
12753TIP3   OH259749   2.242   0.966  16.580 -0.0159 -0.3736 -0.3336
12753TIP3    H159750   2.248   0.880  16.539 -1.0272 -1.2088  1.1946
12753TIP3    H259751   2.167   1.008  16.538 -0.4847 -0.8620  0.0088
12754TIP3   OH259752   3.096   3.858  15.085 -0.0454  0.5641 -0.4807
12754TIP3    H159753   3.122   3.945  15.114  1.0266 -0.3842  1.6431
12754TIP3    H259754   3.020   3.873  15.029 -0.5796  2.7883  0.7084
12755TIP3   OH259755   2.874   2.567  10.091 -0.3228  0.0679 -0.0631
12755TIP3    H159756   2.907   2.485  10.128  0.2268  0.1449 -0.3723
12755TIP3    H259757   2.801   2.591  10.148 -0.1160 -0.3329  0.3815
12756TIP3   OH259758   3.510   5.703  14.384 -0.2508 -0.6068 -0.4227
12756TIP3    H159759   3.563   5.661  14.452 -1.5790 -1.2949  0.2240
12756TIP3    H259760   3.544   5.668  14.302  2.6557  1.6646 -0.3207
12757TIP3   OH259761   1.594   2.941  14.076  0.0230  0.7554 -0.0077
12757TIP3    H159762   1.512   2.960  14.121 -0.3751 -0.7425 -0.0431
12757TIP3    H259763   1.600   2.845  14.075  2.2631  0.8261  0.8557
12758TIP3   OH259764   4.062   1.313   4.236  0.2474  0.1153  0.1673
12758TIP3    H159765   4.017   1.232   4.212  1.9436 -1.3934  1.8285
12758TIP3    H259766   4.133   1.320   4.172  0.0882  0.3566  0.0100
12759TIP3   OH259767   0.631   0.693   2.123  0.0943 -0.2628 -0.2207
12759TIP3    H159768   0.686   0.706   2.045  1.4001  0.9936  0.8440
12759TIP3    H259769   0.548   0.733   2.100  0.5699  0.3856 -0.8721
12760TIP3   OH259770   6.363   3.001   1.062  0.3061 -0.1624 -0.1411
12760TIP3    H159771   6.281   3.037   1.028 -0.0951 -0.9937 -0.0766
12760TIP3    H259772   6.355   3.005   1.157  0.8306  0.8276 -0.1280
12761TIP3   OH259773   0.143   0.369   2.674  0.3743 -0.0810 -0.1134
12761TIP3    H159774   0.159   0.425   2.750 -2.6122  1.0253 -0.1658
12761TIP3    H259775   0.110   0.287   2.712 -0.6623  0.2991 -0.1671
12762TIP3   OH259776   5.662   0.620   1.257  0.0776  0.4262  0.1621
12762TIP3    H159777   5.675   0.564   1.333  0.3535  0.3834  0.0854
12762TIP3    H259778   5.651   0.559   1.184 -0.6714  0.4598  0.2401
12763TIP3   OH259779   1.752   1.934  16.212  0.1233 -0.2838 -0.5645
12763TIP3    H159780   1.846   1.945  16.221  0.2699 -2.0296  0.3055
12763TIP3    H259781   1.715   2.020  16.231  1.4892  0.2242 -0.1696
12764TIP3   OH259782   6.646   1.823  12.732 -0.2431 -0.3930 -0.2218
12764TIP3    H159783   6.635   1.797  12.823 -0.2528 -3.0625 -0.8828
12764TIP3    H259784   6.722   1.881  12.731  0.6271 -1.4630  1.3041
12765TIP3   OH259785   3.937   0.590  10.737 -0.6122 -0.1661  0.0567
12765TIP3    H159786   3.853   0.550  10.713 -1.1799  0.7127  0.5036
12765TIP3    H259787   3.943   0.669  10.684 -0.4391  0.1795  0.5738
12766TIP3   OH259788   1.055   4.628   3.038 -0.0360 -0.1944 -0.2769
12766TIP3    H159789   0.983   4.661   2.983  0.5964  0.1877 -0.8930
12766TIP3    H259790   1.033   4.659   3.126 -0.4111  0.2907 -0.5292
12767TIP3   OH259791   1.050   6.472  14.359 -0.5786 -0.0999 -0.7597
12767TIP3    H159792   0.955   6.467  14.347 -0.4234 -0.2091 -2.1126
12767TIP3    H259793   1.066   6.421  14.439 -1.4648 -1.8806 -1.6424
12768TIP3   OH259794   1.326   6.533   4.201 -0.1977  0.2920 -0.3772
12768TIP3    H159795   1.356   6.443   4.217 -1.0634  0.1328  0.4034
12768TIP3    H259796   1.399   6.588   4.230 -1.0128 -0.0466  2.6985
12769TIP3   OH259797   3.883   5.856  14.403  0.2335 -0.2534 -0.3129
12769TIP3    H159798   3.907   5.780  14.456 -1.6288 -0.1833  0.7041
12769TIP3    H259799   3.838   5.820  14.327  0.0223 -0.2096 -0.2098
12770TIP3   OH259800   6.584   1.553   4.058 -0.1135  0.3646  0.6891
12770TIP3    H159801   6.523   1.484   4.084 -0.8177  0.9936  0.7327
12770TIP3    H259802   6.605   1.599   4.139 -0.5476  0.9137  0.4952
12771TIP3   OH259803   3.832   0.018  11.870 -0.2406 -0.5235  0.5466
12771TIP3    H159804   3.833  -0.054  11.806  0.9644  1.1612 -1.4441
12771TIP3    H259805   3.915   0.063  11.856 -1.4344  1.9281  0.9060
12772TIP3   OH259806   1.165   5.253   4.049 -0.1685 -0.0787  0.1650
12772TIP3    H159807   1.097   5.268   3.983  0.6988 -2.1206 -1.2904
12772TIP3    H259808   1.116   5.230   4.128 -1.2407  2.6299  0.4180
12773TIP3   OH259809   3.829   5.070  12.633  0.1127 -0.5123  0.3198
12773TIP3    H159810   3.808   4.979  12.654 -0.2350 -1.0627 -2.0674
12773TIP3    H259811   3.751   5.103  12.588  0.9843  0.2762 -0.6867
12774TIP3   OH259812   2.051   5.792  16.357  0.4620 -0.4592 -0.1968
12774TIP3    H159813   2.049   5.825  16.447  0.3000  0.4769 -0.5310
12774TIP3    H259814   2.136   5.821  16.323  0.6737 -1.1182 -0.2339
12775TIP3   OH259815   0.010   4.055  10.981  0.2481 -0.0420 -0.1915
12775TIP3    H159816  -0.047   3.982  11.008  1.0339 -0.9151 -0.8265
12775TIP3    H259817   0.003   4.056  10.885  0.4353  0.5678 -0.2013
12776TIP3   OH259818   3.665   3.354  12.260  0.3417  0.5581  0.4937
12776TIP3    H159819   3.724   3.279  12.264 -0.6996 -0.2510  2.0162
12776TIP3    H259820   3.687   3.398  12.179 -0.5717 -2.7511 -1.7813
12777TIP3   OH259821   1.013   2.069   4.642  0.2606 -0.4112  0.8266
12777TIP3    H159822   0.988   2.146   4.591 -1.7815 -1.2798  0.4015
12777TIP3    H259823   0.939   2.055   4.702  0.6977 -1.8970  1.0647
12778TIP3   OH259824   2.789   1.319  13.600 -0.0620 -0.3153 -0.3016
12778TIP3    H159825   2.879   1.289  13.611  0.0763  0.3381  0.4400
12778TIP3    H259826   2.782   1.395  13.658 -1.4383 -1.0365  0.5249
12779TIP3   OH259827   2.613   3.095  13.671 -0.8838 -0.1861 -0.6960
12779TIP3    H159828   2.705   3.120  13.659  0.0206 -2.9840 -0.2435
12779TIP3    H259829   2.589   3.053  13.589 -1.5597 -0.1035 -0.5421
12780TIP3   OH259830   4.000   2.821   0.460 -0.1017 -0.5006  0.1096
12780TIP3    H159831   3.911   2.847   0.438  0.4259  1.0579 -0.3192
12780TIP3    H259832   4.045   2.817   0.375  0.1222 -1.7924  0.2701
12781TIP3   OH259833   2.361   0.720   2.972 -0.9515 -0.2714 -0.6271
12781TIP3    H159834   2.430   0.729   2.906  0.6985  2.9987  1.2901
12781TIP3    H259835   2.406   0.681   3.048 -2.1755 -1.5731 -0.5336
12782TIP3   OH259836   2.427   4.550   0.870  1.2173  0.4492 -0.1682
12782TIP3    H159837   2.400   4.636   0.838 -0.5251 -0.1782 -0.4712
12782TIP3    H259838   2.400   4.550   0.962  1.1174  0.1940 -0.1979
12783TIP3   OH259839   0.473   0.846  14.616  0.1794 -0.4303 -0.0357
12783TIP3    H159840   0.540   0.872  14.552 -0.2918  0.6597 -0.1102
12783TIP3    H259841   0.452   0.927  14.662 -1.5924 -0.5817 -0.4882
12784TIP3   OH259842   3.149   3.858  12.194 -0.2967  0.1160 -0.4594
12784TIP3    H159843   3.187   3.771  12.184  0.3777  0.4303 -0.7202
12784TIP3    H259844   3.142   3.871  12.289  0.8106  0.2754 -0.3828
12785TIP3   OH259845   4.954   6.704  16.112  0.1674 -0.0370  0.1642
12785TIP3    H159846   5.013   6.629  16.101  0.6527  0.5368 -1.5127
12785TIP3    H259847   5.007   6.780  16.087 -1.1994  0.5112 -1.2731
12786TIP3   OH259848   4.882   6.742   2.892 -0.1353 -0.2529 -0.4210
12786TIP3    H159849   4.797   6.740   2.935 -0.0802 -2.7856 -0.2951
12786TIP3    H259850   4.892   6.655   2.853  1.9277  0.3402 -1.3822
12787TIP3   OH259851   2.512   6.793  11.962 -0.0681  0.2220  0.1645
12787TIP3    H159852   2.478   6.874  11.922 -0.2114  0.8018  1.4289
12787TIP3    H259853   2.596   6.780  11.919 -1.2894 -0.5940 -2.1663
12788TIP3   OH259854   2.955   4.432  16.540 -0.8633  0.0643 -0.3250
12788TIP3    H159855   2.861   4.439  16.551 -0.8305 -1.3028  0.9922
12788TIP3    H259856   2.982   4.359  16.595  1.3236  1.9633  1.3529
12789TIP3   OH259857   5.169   5.933  10.625  0.1306  0.0422  0.4392
12789TIP3    H159858   5.141   5.982  10.547 -0.4939 -2.0277 -0.7314
12789TIP3    H259859   5.261   5.913  10.608 -0.5963 -2.5554 -1.1203
12790TIP3   OH259860   5.881   2.801  12.149 -0.7544 -0.3173  0.1734
12790TIP3    H159861   5.884   2.876  12.208 -1.7773  0.5511 -0.8449
12790TIP3    H259862   5.911   2.727  12.202  0.7124  0.8692  1.0754
12791TIP3   OH259863   5.209   5.624  16.901  0.5901  0.2056  0.3969
12791TIP3    H159864   5.299   5.596  16.885  0.4832  1.3321 -2.8719
12791TIP3    H259865   5.159   5.591  16.826 -1.6644 -0.0386  1.9076
12792TIP3   OH259866   2.672   0.409  16.105  0.0390 -0.2208 -0.1801
12792TIP3    H159867   2.701   0.485  16.155  0.3227  1.9757 -3.4074
12792TIP3    H259868   2.608   0.366  16.162  2.1452  0.5346  3.0330
12793TIP3   OH259869   2.659   0.759  11.890 -0.5268 -0.4553 -0.3351
12793TIP3    H159870   2.695   0.736  11.805 -2.1437 -0.6044 -1.0255
12793TIP3    H259871   2.564   0.755  11.878 -0.8022 -0.2074  1.4035
12794TIP3   OH259872   6.601   3.892  11.445 -0.2447 -0.0694  0.4016
12794TIP3    H159873   6.524   3.937  11.409  0.7187  1.4464  0.1170
12794TIP3    H259874   6.622   3.826  11.380  0.1235  1.1407 -0.7671
12795TIP3   OH259875   4.572   2.713   5.361 -0.2916 -0.0245  0.1468
12795TIP3    H159876   4.523   2.701   5.279  2.2648  0.9061 -1.6638
12795TIP3    H259877   4.562   2.806   5.382  1.5040  0.4595 -0.9034
12796TIP3   OH259878   1.865   3.678   3.466 -0.2829  0.2360 -0.3036
12796TIP3    H159879   1.931   3.663   3.534  0.7148  1.0345 -1.0724
12796TIP3    H259880   1.807   3.743   3.504 -0.3657 -0.1148  0.1915
12797TIP3   OH259881   0.287   3.661  12.107 -0.4672 -0.0759 -0.2644
12797TIP3    H159882   0.295   3.708  12.024 -2.2134 -0.2273 -0.5398
12797TIP3    H259883   0.273   3.570  12.081 -0.9910 -0.1259  0.1880
12798TIP3   OH259884   0.059   3.317  13.723 -0.4842  0.5647 -0.9181
12798TIP3    H159885   0.049   3.224  13.703  1.2228 -0.3763  1.9901
12798TIP3    H259886   0.153   3.334  13.712 -0.7053  1.8609 -0.9909
12799TIP3   OH259887   5.439   6.057  16.219  0.6238 -0.2688  0.1125
12799TIP3    H159888   5.346   6.065  16.240  0.7930  0.0205  0.7672
12799TIP3    H259889   5.484   6.105  16.288  1.1669  1.4160 -1.3266
12800TIP3   OH259890   2.893   6.821  16.683 -0.2774 -0.4922 -0.4874
12800TIP3    H159891   2.810   6.859  16.712  0.9509  1.0409  1.2214
12800TIP3    H259892   2.934   6.788  16.763  2.1179  1.6260 -0.6830
12801TIP3   OH259893   5.789   4.248  16.332  0.5070  0.4225  0.3412
12801TIP3    H159894   5.723   4.181  16.351  1.0227 -0.3322 -0.4130
12801TIP3    H259895   5.809   4.287  16.417 -1.7144  1.4753  0.4542
12802TIP3   OH259896   4.052   5.046   2.059  0.0071  0.4415  0.4654
12802TIP3    H159897   4.076   5.011   2.145  0.8502  1.1680  0.5471
12802TIP3    H259898   3.956   5.053   2.062 -0.1995 -1.7768  0.4391
12803TIP3   OH259899   0.901   4.589  12.460  0.8797 -0.4616  0.6992
12803TIP3    H159900   0.839   4.651  12.419  0.4861 -1.3458 -0.0720
12803TIP3    H259901   0.975   4.643  12.485  0.5532  0.3316  0.0134
12804TIP3   OH259902   5.430   2.389  12.628 -0.9505  0.2519 -0.6051
12804TIP3    H159903   5.523   2.409  12.621 -0.5226 -0.9323  1.1598
12804TIP3    H259904   5.415   2.372  12.721 -2.3949 -1.8741 -1.1359
12805TIP3   OH259905   2.186   0.809  16.328  0.2440 -0.1160  0.5291
12805TIP3    H159906   2.097   0.816  16.293  0.5339  1.0658 -0.0275
12805TIP3    H259907   2.228   0.741  16.275  1.1066  2.5518 -2.5358
12806TIP3   OH259908   3.373   2.852   1.262  0.0273 -0.0075  0.0805
12806TIP3    H159909   3.301   2.885   1.315 -0.3398 -0.1209 -0.3417
12806TIP3    H259910   3.445   2.915   1.277 -0.1949  0.1660  0.4147
12807TIP3   OH259911   5.918   6.189  14.305  0.0695 -0.0322  0.6650
12807TIP3    H159912   5.903   6.278  14.274  0.7488 -0.5287 -1.2324
12807TIP3    H259913   5.849   6.137  14.264  1.4164 -0.8265 -0.6786
12808TIP3   OH259914   1.424   0.433   2.837 -0.2704 -0.1753 -0.3222
12808TIP3    H159915   1.461   0.521   2.844  0.1435 -0.4572  1.4088
12808TIP3    H259916   1.384   0.431   2.750 -0.0589  1.6288 -0.5010
12809TIP3   OH259917   0.563   4.522  14.992  0.3630 -0.0196  0.2029
12809TIP3    H159918   0.493   4.459  15.006  0.2984 -0.0901 -0.4338
12809TIP3    H259919   0.518   4.601  14.961  0.6693 -0.5123 -1.6089
12810TIP3   OH259920   4.752   5.882   5.284  0.0062 -0.2999 -0.2293
12810TIP3    H159921   4.842   5.900   5.311 -0.3236 -0.3493  0.9204
12810TIP3    H259922   4.754   5.892   5.188  0.9749  0.8307 -0.1134
12811TIP3   OH259923   5.303   5.382  12.709  0.0373 -0.2695  0.1510
12811TIP3    H159924   5.317   5.318  12.639  1.7602 -0.6481  0.7899
12811TIP3    H259925   5.234   5.343  12.763 -2.0539  0.4825 -1.7841
12812TIP3   OH259926   1.854   1.442   5.460 -0.3861  0.2731 -0.3935
12812TIP3    H159927   1.846   1.374   5.526  1.1773 -0.4235 -0.8655
12812TIP3    H259928   1.825   1.401   5.379 -1.0174  0.7057 -0.3973
12813TIP3   OH259929   5.876   1.384  12.148 -0.2961 -0.5875  0.5918
12813TIP3    H159930   5.832   1.306  12.114  1.4225 -2.1628  1.7749
12813TIP3    H259931   5.805   1.437  12.185 -1.5868 -1.2250 -0.8552
12814TIP3   OH259932   3.138   1.065  17.061 -0.8074  0.5380 -0.2263
12814TIP3    H159933   3.189   1.000  17.013  0.3608  1.9122 -0.9155
12814TIP3    H259934   3.106   1.018  17.139 -0.2658 -0.9215 -0.8456
12815TIP3   OH259935   0.241   5.453   1.930 -0.2668  0.3217 -0.4912
12815TIP3    H159936   0.223   5.397   1.854 -0.2910  0.1265 -0.3429
12815TIP3    H259937   0.155   5.468   1.969 -0.2492  0.3880 -0.4783
12816TIP3   OH259938   2.430   0.554   0.214 -0.4668 -0.1741  0.7177
12816TIP3    H159939   2.424   0.458   0.216 -1.2837 -0.1289  0.6161
12816TIP3    H259940   2.520   0.572   0.240  0.0732 -1.0170 -0.4627
12817TIP3   OH259941   2.026   5.905   4.181 -0.2164 -0.2003 -0.0063
12817TIP3    H159942   2.079   5.964   4.127 -2.3530  1.5198 -0.3332
12817TIP3    H259943   2.060   5.818   4.160  1.6627  0.7063 -1.0720
12818TIP3   OH259944   6.715   1.062  15.559  0.0391  0.3500 -0.0773
12818TIP3    H159945   6.662   1.012  15.496 -2.7789 -1.7960  3.5543
12818TIP3    H259946   6.767   0.995  15.604  1.3829  1.7070  0.4714
12819TIP3   OH259947   1.865   1.245  15.970  0.2636  0.3198 -0.0005
12819TIP3    H159948   1.879   1.314  15.905  0.2676 -0.7404 -1.1328
12819TIP3    H259949   1.856   1.165  15.920 -0.5049 -0.4188  1.2575
12820TIP3   OH259950   4.210   3.183   2.286 -0.2330 -0.0906 -0.0143
12820TIP3    H159951   4.221   3.277   2.299 -0.3941  0.0562 -0.8718
12820TIP3    H259952   4.163   3.153   2.364 -2.0087  0.9018 -0.6441
12821TIP3   OH259953   2.982   4.253  15.844  0.3328  0.0392  0.0643
12821TIP3    H159954   2.954   4.184  15.785  0.9650 -2.2801  2.3264
12821TIP3    H259955   2.902   4.282  15.888  0.3006 -0.6575  0.4848
12822TIP3   OH259956   6.398   4.961  14.622  0.1086 -0.6305 -0.2414
12822TIP3    H159957   6.367   5.033  14.567 -0.7337 -2.3734 -2.1586
12822TIP3    H259958   6.339   4.962  14.698 -0.7365 -0.1327 -0.8896
12823TIP3   OH259959   3.093   3.302   1.041  0.1417  0.5497 -0.1263
12823TIP3    H159960   3.018   3.244   1.057 -1.7971  2.9534  0.1128
12823TIP3    H259961   3.059   3.370   0.983  2.5750  0.9724 -1.1649
12824TIP3   OH259962   3.537   5.073  14.220 -0.2921 -0.1464 -0.4898
12824TIP3    H159963   3.457   5.064  14.271  0.7861 -0.3588  1.2298
12824TIP3    H259964   3.544   4.991  14.171 -0.2124 -0.8993  0.7424
12825TIP3   OH259965   3.118   5.204  15.142 -0.1573 -0.8768 -0.2263
12825TIP3    H159966   3.143   5.128  15.194  0.7318 -0.6812 -0.3408
12825TIP3    H259967   3.201   5.247  15.122 -0.6158 -0.1109 -0.5195
12826TIP3   OH259968   5.013   6.241  13.170 -0.3464 -0.3778 -0.3593
12826TIP3    H159969   5.101   6.209  13.189  0.5995  1.4622 -1.3595
12826TIP3    H259970   4.977   6.263  13.256  1.0232  0.8780 -0.0683
12827TIP3   OH259971   3.325   1.385   6.027 -0.4491 -0.1880  0.7765
12827TIP3    H159972   3.400   1.343   6.070  0.1065 -0.6856 -0.5946
12827TIP3    H259973   3.299   1.456   6.086  0.3901 -0.7118  1.8065
12828TIP3   OH259974   0.635   0.123   4.412  0.0089 -0.0488 -0.1948
12828TIP3    H159975   0.673   0.049   4.363  0.5528  0.7498 -1.0253
12828TIP3    H259976   0.628   0.091   4.502  1.3294 -0.7305 -0.2977
12829TIP3   OH259977   0.336   1.581   0.222  0.5791  0.0206 -0.0984
12829TIP3    H159978   0.338   1.558   0.129 -1.0104 -0.7182  0.0048
12829TIP3    H259979   0.396   1.519   0.263  0.8079 -0.0650 -0.5511
12830TIP3   OH259980   4.467   1.996   0.539  0.0351  0.3461  0.8838
12830TIP3    H159981   4.425   2.081   0.526  2.9978  1.9861  1.0001
12830TIP3    H259982   4.404   1.932   0.505 -2.3251  2.5510  0.8054
12831TIP3   OH259983   5.066   1.223  15.188 -0.5882 -0.4163  0.1869
12831TIP3    H159984   4.997   1.155  15.182 -0.1869 -0.7175 -2.0605
12831TIP3    H259985   5.133   1.183  15.243 -0.9935 -1.2619  0.0999
12832TIP3   OH259986   0.928   0.035   1.450  0.7992  0.4313 -0.3121
12832TIP3    H159987   0.947   0.128   1.439 -0.0517  0.6522  0.0221
12832TIP3    H259988   1.002  -0.010   1.408  0.7642  1.2485 -1.2735
12833TIP3   OH259989   4.406   5.388  12.452 -0.8071  0.1238 -1.0402
12833TIP3    H159990   4.435   5.345  12.372  0.3565  5.0994 -3.6755
12833TIP3    H259991   4.316   5.415  12.433 -0.6657  0.9902 -0.5175
12834TIP3   OH259992   1.380   6.528  15.011 -0.0686 -0.4796  0.6040
12834TIP3    H159993   1.473   6.544  14.993 -0.2446  0.1610  0.2098
12834TIP3    H259994   1.370   6.433  15.001  0.7541 -0.7150  1.7258
12835TIP3   OH259995   5.101   3.116  14.749  0.1281  0.0379 -0.4144
12835TIP3    H159996   5.182   3.159  14.778 -0.3458  1.3123 -0.9131
12835TIP3    H259997   5.129   3.058  14.678  0.6393  0.2991 -0.4301
12836TIP3   OH259998   0.399   4.748  14.917  0.1823  0.0828  0.1363
12836TIP3    H159999   0.396   4.821  14.854 -0.9179 -0.3948 -0.3905
12836TIP3    H260000   0.317   4.700  14.902  0.0269 -0.2071  1.7463
12837TIP3   OH260001   6.466   6.813  13.061 -0.2233 -0.0827  0.5125
12837TIP3    H160002   6.558   6.792  13.077 -0.2692 -1.2912 -0.6521
12837TIP3    H260003   6.463   6.908  13.059  0.7239  0.0089  2.0493
12838TIP3   OH260004   3.656   3.136  12.689 -0.0450  0.0950  0.9213
12838TIP3    H160005   3.597   3.173  12.754 -0.2854 -1.1518  1.4481
12838TIP3    H260006   3.693   3.212  12.644 -1.9337  0.9256  0.6732
12839TIP3   OH260007   2.477   6.012  10.588 -0.4078  0.0860 -0.0295
12839TIP3    H160008   2.478   6.107  10.575  2.3002 -0.1802 -3.0578
12839TIP3    H260009   2.396   5.982  10.547 -0.8428  0.9926  0.1452
12840TIP3   OH260010   1.133   3.684   5.170  0.4068 -0.0138  0.3620
12840TIP3    H160011   1.139   3.703   5.264 -0.0522 -0.3427  0.4547
12840TIP3    H260012   1.208   3.730   5.133 -0.5840  1.9033  0.6075
12841TIP3   OH260013   6.660   6.000  13.673  0.3564  0.6547  0.2667
12841TIP3    H160014   6.711   6.039  13.743 -3.0574  3.4982  1.5256
12841TIP3    H260015   6.684   6.050  13.595  1.3217  0.1781  0.2501
12842TIP3   OH260016   0.775   4.577   4.726 -0.1149 -0.5918 -0.5703
12842TIP3    H160017   0.845   4.512   4.721  0.4347 -0.0963  0.4814
12842TIP3    H260018   0.704   4.539   4.673  0.9396 -1.0781 -1.6889
12843TIP3   OH260019   0.191   0.533  16.356  0.0955 -0.0092 -0.0805
12843TIP3    H160020   0.230   0.615  16.388  0.7726 -0.6631  0.8039
12843TIP3    H260021   0.105   0.559  16.322 -0.2346  0.8852  1.3392
12844TIP3   OH260022   3.774   1.237   0.517  0.5970 -0.1702  0.3282
12844TIP3    H160023   3.708   1.178   0.555  0.3453 -0.2429 -0.2064
12844TIP3    H260024   3.723   1.302   0.469  0.8551  0.7942  1.3262
12845TIP3   OH260025   6.631   3.459   0.951 -0.3355  0.4536 -0.3951
12845TIP3    H160026   6.649   3.407   0.873 -1.9489 -2.0812  0.7722
12845TIP3    H260027   6.587   3.538   0.918  0.6541  0.3254 -2.1335
12846TIP3   OH260028   0.314   2.082   2.946 -0.3445  0.5523 -0.6815
12846TIP3    H160029   0.252   2.021   2.905 -1.2590  0.4391  0.7873
12846TIP3    H260030   0.398   2.064   2.903 -0.6639 -1.5081 -0.5611
12847TIP3   OH260031   1.314   2.506   2.682 -0.5262 -0.0121 -0.4224
12847TIP3    H160032   1.371   2.547   2.747 -0.6023 -0.3090 -0.1639
12847TIP3    H260033   1.249   2.573   2.661 -0.4963  0.0884 -0.1975
12848TIP3   OH260034   6.229   0.758  14.358  0.5465 -0.1235 -0.3346
12848TIP3    H160035   6.260   0.668  14.369  0.3491 -0.2758 -0.9861
12848TIP3    H260036   6.178   0.756  14.277 -2.1805 -0.1640  1.2548
12849TIP3   OH260037   6.388   0.022   3.390 -0.3836 -0.6674  0.6470
12849TIP3    H160038   6.402  -0.004   3.481 -1.1624  0.8942  1.2473
12849TIP3    H260039   6.329   0.097   3.395 -1.9471 -1.6603 -1.2608
12850TIP3   OH260040   4.345   5.100   5.415  0.6695 -0.6253 -0.2013
12850TIP3    H160041   4.381   5.181   5.451 -0.7855  0.3604 -0.8604
12850TIP3    H260042   4.404   5.078   5.342  2.0464 -1.1408  1.0122
12851TIP3   OH260043   5.127   4.065   5.246  0.1683 -0.3638 -0.2564
12851TIP3    H160044   5.200   4.028   5.195  0.7375 -0.2962  0.4948
12851TIP3    H260045   5.118   4.154   5.213  0.0256 -0.5709 -0.7793
12852TIP3   OH260046   1.643   6.176  12.862 -0.0513  0.1836 -0.7302
12852TIP3    H160047   1.673   6.255  12.908 -1.7077  0.9662 -0.9367
12852TIP3    H260048   1.670   6.191  12.771  3.3818 -1.4432 -0.1494
12853TIP3   OH260049   0.183   0.709  11.199  0.2299 -0.1983  0.1477
12853TIP3    H160050   0.222   0.782  11.248  0.5038  1.3867 -2.2842
12853TIP3    H260051   0.103   0.744  11.161 -0.3543 -1.5887  0.0203
12854TIP3   OH260052   2.603   3.725  16.792  0.2812 -0.0868 -0.1755
12854TIP3    H160053   2.592   3.641  16.747 -0.5453 -0.0982  0.0332
12854TIP3    H260054   2.592   3.791  16.723  2.0406 -0.1599 -0.5526
12855TIP3   OH260055   0.574   0.419  12.633  0.4386  0.4356  0.0098
12855TIP3    H160056   0.569   0.323  12.641 -1.8552  0.5828  1.1064
12855TIP3    H260057   0.641   0.433  12.567 -0.3711 -2.0247 -1.4998
12856TIP3   OH260058   4.763   6.117   5.922  0.0000  0.2012 -0.1752
12856TIP3    H160059   4.780   6.164   5.840  0.5764 -0.6963 -0.5886
12856TIP3    H260060   4.850   6.104   5.960 -0.1695 -0.3917  0.0130
12857TIP3   OH260061   1.610   3.108  11.004  0.2746  0.3077 -0.6938
12857TIP3    H160062   1.556   3.081  10.930 -0.3828  1.5200 -0.6840
12857TIP3    H260063   1.642   3.195  10.981  2.5371 -0.4947 -0.8389
12858TIP3   OH260064   1.711   3.098   1.067  0.0826  0.2880  0.2360
12858TIP3    H160065   1.792   3.046   1.063 -1.2980 -1.9198 -1.6780
12858TIP3    H260066   1.706   3.141   0.982 -1.4443 -0.8311 -0.2825
12859TIP3   OH260067   5.338   0.049   2.533  0.0058  0.7650  0.5278
12859TIP3    H160068   5.427   0.024   2.556 -0.2445 -0.9280 -0.2220
12859TIP3    H260069   5.347   0.100   2.452  0.2560 -0.0097  0.0557
12860TIP3   OH260070   6.789   3.608   5.166 -0.2983 -0.3423 -0.1241
12860TIP3    H160071   6.852   3.568   5.227 -2.6215 -2.2446  1.2088
12860TIP3    H260072   6.788   3.548   5.091 -0.2680 -0.1343 -0.2891
12861TIP3   OH260073   4.992   1.101  17.075  0.0800  0.2579 -0.0387
12861TIP3    H160074   4.910   1.125  17.117  1.4283 -0.0660  3.0746
12861TIP3    H260075   5.044   1.182  17.077 -0.0192  0.4134 -1.8126
12862TIP3   OH260076   2.427   3.314  13.694 -0.1173 -0.4160 -0.2272
12862TIP3    H160077   2.487   3.239  13.698 -0.5290 -0.8167 -1.1944
12862TIP3    H260078   2.435   3.356  13.780 -0.5857 -2.1421  0.7119
12863TIP3   OH260079   5.707   5.423  15.016 -0.4171 -0.2480  0.3565
12863TIP3    H160080   5.688   5.471  14.936  1.2440 -0.0792  0.0281
12863TIP3    H260081   5.629   5.433  15.070 -0.8069  1.2696 -0.4532
12864TIP3   OH260082   0.085   4.200  10.585  0.0545 -0.0088 -0.0587
12864TIP3    H160083   0.123   4.112  10.595  0.9733  0.3446 -0.3601
12864TIP3    H260084   0.133   4.239  10.512 -2.2199 -0.2491 -1.8366
12865TIP3   OH260085   1.825   2.489  16.071  0.2679  0.6828 -0.0569
12865TIP3    H160086   1.777   2.499  15.989  1.3687  2.8673 -0.5058
12865TIP3    H260087   1.811   2.572  16.117  0.0296 -0.3368  1.8059
12866TIP3   OH260088   4.531   6.076   3.547 -0.1870 -0.2606  0.4569
12866TIP3    H160089   4.526   6.143   3.615 -3.5162  0.9357 -0.7509
12866TIP3    H260090   4.477   6.004   3.579  2.0319 -1.7442  1.0207
12867TIP3   OH260091   1.546   5.108   4.561 -0.2865 -0.1840  0.2421
12867TIP3    H160092   1.610   5.068   4.621 -1.1918 -2.1447 -0.0325
12867TIP3    H260093   1.583   5.194   4.542  2.4961 -1.3404 -0.1850
12868TIP3   OH260094   1.870   1.173   3.042 -0.4957 -0.1371 -0.1317
12868TIP3    H160095   1.869   1.178   3.137 -0.3062 -1.7379 -0.0234
12868TIP3    H260096   1.833   1.087   3.021  0.3114 -0.1943 -1.4572
12869TIP3   OH260097   0.022   5.937   0.317 -0.0336 -0.0809 -0.3680
12869TIP3    H160098   0.088   5.882   0.359  2.2009  1.1910 -2.0016
12869TIP3    H260099   0.041   5.931   0.224  1.2558  4.3567 -0.6088
12870TIP3   OH260100   0.496   6.177  12.653  0.4461 -0.3625 -0.2276
12870TIP3    H160101   0.407   6.211  12.665  0.7807 -0.0267  1.6094
12870TIP3    H260102   0.492   6.087  12.686  0.3113 -1.1226 -2.1790
12871TIP3   OH260103   4.062   6.762   0.605  0.1444 -0.4246  0.3176
12871TIP3    H160104   4.025   6.674   0.610 -1.8989  0.3344 -0.6396
12871TIP3    H260105   4.157   6.747   0.595 -0.1990 -2.5077 -0.3709
12872TIP3   OH260106   1.730   6.149   4.722 -0.4422  0.3890 -0.6955
12872TIP3    H160107   1.710   6.077   4.662  1.1419  1.3512 -2.4823
12872TIP3    H260108   1.644   6.184   4.745 -1.2507 -1.9519  0.1474
12873TIP3   OH260109   3.782   3.331   5.771 -0.0747 -0.0131 -0.3981
12873TIP3    H160110   3.860   3.378   5.803  0.8544 -1.0276 -1.1051
12873TIP3    H260111   3.754   3.380   5.694 -0.9518  1.1160  0.6039
12874TIP3   OH260112   2.845   3.767  12.283  0.1717 -0.3911  0.1433
12874TIP3    H160113   2.778   3.701  12.266 -1.5776  1.3934 -0.2233
12874TIP3    H260114   2.856   3.766  12.378  1.2671 -2.1737  0.0408
12875TIP3   OH260115   6.694   5.917   4.074 -0.2274  0.1467 -0.7238
12875TIP3    H160116   6.612   5.883   4.110  0.0384 -0.9123 -1.0859
12875TIP3    H260117   6.695   6.008   4.101 -1.0334 -0.0877  0.1764
12876TIP3   OH260118   0.181   4.919   1.109  0.4257  0.7486 -0.5496
12876TIP3    H160119   0.092   4.952   1.105 -0.4623 -1.2871  0.7781
12876TIP3    H260120   0.225   4.959   1.034 -2.0978  0.3314 -2.3736
12877TIP3   OH260121   3.380   5.371   1.557  0.2327 -0.6097 -0.6899
12877TIP3    H160122   3.308   5.331   1.509 -0.3985 -1.4721  0.9024
12877TIP3    H260123   3.447   5.302   1.562  1.0350  0.0601 -1.8323
12878TIP3   OH260124   3.317   0.164   1.685  0.3722 -0.5159  0.0528
12878TIP3    H160125   3.231   0.136   1.654 -0.1553  1.6989 -0.6609
12878TIP3    H260126   3.340   0.237   1.629  2.6978 -0.9580  0.3234
12879TIP3   OH260127   4.614   6.134  16.509  0.1472  0.6064 -0.0357
12879TIP3    H160128   4.628   6.103  16.599 -2.3133 -0.9951 -0.1113
12879TIP3    H260129   4.654   6.067  16.454 -2.8513 -1.3113 -0.1331
12880TIP3   OH260130   5.904   1.727  12.835 -0.3692 -0.0703 -0.7544
12880TIP3    H160131   5.840   1.664  12.801 -1.0662  1.6942 -2.9604
12880TIP3    H260132   5.873   1.812  12.804  0.0408  1.5856  2.7937
12881TIP3   OH260133   2.512   2.148   2.953 -0.1084  0.1954 -0.1791
12881TIP3    H160134   2.546   2.089   3.020 -1.8474 -1.6485 -0.8240
12881TIP3    H260135   2.504   2.093   2.874  0.5986  1.9555 -1.5507
12882TIP3   OH260136   1.451   0.468   1.437  0.0238  0.6554 -0.1994
12882TIP3    H160137   1.519   0.535   1.448  0.0723  0.7186 -0.8161
12882TIP3    H260138   1.421   0.481   1.347  1.1168 -1.1502 -0.8811
12883TIP3   OH260139   0.975   4.688   1.173  0.6532  0.7504 -0.0640
12883TIP3    H160140   0.987   4.728   1.086 -0.1963 -0.1461 -0.6079
12883TIP3    H260141   0.980   4.594   1.158  0.5288  0.5817  0.8658
12884TIP3   OH260142   5.304   1.116   4.863 -0.0846  0.1483 -0.4883
12884TIP3    H160143   5.303   1.024   4.838 -1.8543 -0.0982  0.3592
12884TIP3    H260144   5.375   1.123   4.927 -0.9728 -1.0021  0.6667
12885TIP3   OH260145   4.613   2.980  16.505 -0.4931 -0.0757  0.1825
12885TIP3    H160146   4.532   2.974  16.455 -0.7484  0.7271  0.4804
12885TIP3    H260147   4.683   2.974  16.439 -0.8272  2.2499 -0.4679
12886TIP3   OH260148   5.279   5.015  14.503 -0.2682 -0.2499  0.2079
12886TIP3    H160149   5.283   4.922  14.481 -2.0192 -0.2203 -0.3337
12886TIP3    H260150   5.359   5.051  14.464  0.1772 -1.4200 -0.0216
12887TIP3   OH260151   3.714   3.764   3.983 -0.1127  0.2627  0.6230
12887TIP3    H160152   3.672   3.764   4.068 -1.2535 -1.6251  0.0940
12887TIP3    H260153   3.741   3.674   3.968  2.2558  0.9879 -0.0057
12888TIP3   OH260154   2.028   3.993   0.914 -0.0538 -0.5687  0.2619
12888TIP3    H160155   2.034   3.909   0.959  1.0601 -0.9236 -0.5175
12888TIP3    H260156   1.961   4.041   0.963 -1.6501 -2.3632 -0.0394
12889TIP3   OH260157   4.919   5.774   4.892 -0.1291  0.1363  0.5260
12889TIP3    H160158   4.947   5.839   4.956  0.8511 -0.1456  0.3903
12889TIP3    H260159   4.824   5.766   4.906  0.2176 -0.8208  2.8128
12890TIP3   OH260160   1.846   1.616   5.723 -0.6778 -0.2929 -0.1366
12890TIP3    H160161   1.822   1.676   5.794  5.4271  1.4262  1.1242
12890TIP3    H260162   1.852   1.530   5.765 -0.0048  0.1661  0.7523
12891TIP3   OH260163   4.823   6.514  14.099 -0.0138  0.4876  0.1201
12891TIP3    H160164   4.864   6.560  14.171  0.0541  1.1446 -0.3322
12891TIP3    H260165   4.756   6.574  14.066  0.5565  0.5793 -0.9349
12892TIP3   OH260166   1.859   2.080   1.682  0.4071 -0.4169 -0.1500
12892TIP3    H160167   1.783   2.135   1.700  0.7243 -0.1079  0.2724
12892TIP3    H260168   1.889   2.108   1.595 -0.8675 -1.6078 -1.0012
12893TIP3   OH260169   3.478   1.814   4.343 -0.1828 -0.7995 -0.4336
12893TIP3    H160170   3.461   1.818   4.437  0.2254 -2.3903 -0.2584
12893TIP3    H260171   3.399   1.850   4.302 -0.2733  0.1070  0.5080
12894TIP3   OH260172   5.389   1.728   3.464  0.2959 -0.8619  0.5281
12894TIP3    H160173   5.338   1.800   3.501 -1.0297 -1.1215 -0.7296
12894TIP3    H260174   5.331   1.652   3.468  1.4624 -1.7469  1.2751
12895TIP3   OH260175   4.838   5.632  14.613 -0.1921 -0.1772 -0.0804
12895TIP3    H160176   4.900   5.704  14.606 -0.1240 -0.2040  0.2526
12895TIP3    H260177   4.826   5.618  14.707 -0.0706 -0.7164 -0.1395
12896TIP3   OH260178   5.352   1.954  13.909 -0.0222 -0.2322  0.4222
12896TIP3    H160179   5.416   1.958  13.838 -0.8877  1.2568 -0.3372
12896TIP3    H260180   5.280   1.902  13.873  1.0382 -2.6174  1.5664
12897TIP3   OH260181   4.471   6.565  10.909  0.0683  0.5593 -0.2963
12897TIP3    H160182   4.404   6.504  10.877  0.3304  0.1660 -0.0990
12897TIP3    H260183   4.514   6.597  10.829 -0.7742  1.3106 -0.4715
12898TIP3   OH260184   4.205   0.281   3.364 -0.3923  0.9032 -0.2455
12898TIP3    H160185   4.271   0.260   3.298 -0.5228 -0.3657  0.0090
12898TIP3    H260186   4.207   0.207   3.424 -1.6776  1.1034  0.0610
12899TIP3   OH260187   0.017   2.821  12.646 -0.1774 -0.1378 -0.3045
12899TIP3    H160188   0.030   2.746  12.588  0.8423  0.6313 -1.1313
12899TIP3    H260189  -0.022   2.888  12.590 -1.0536 -0.0298  0.4181
12900TIP3   OH260190   4.683   1.787  17.080 -0.0435 -0.0539  0.1547
12900TIP3    H160191   4.713   1.860  17.134 -1.0108  1.0863 -0.8108
12900TIP3    H260192   4.633   1.732  17.141  3.0583 -1.5263  1.5854
12901TIP3   OH260193   2.292   1.470  10.810 -0.0678  0.3198 -0.1836
12901TIP3    H160194   2.352   1.531  10.853 -0.0106 -0.3971  0.7762
12901TIP3    H260195   2.211   1.519  10.801  0.4661  1.1024 -0.9712
12902TIP3   OH260196   3.739   4.855   0.936 -0.4777  0.7587 -0.2338
12902TIP3    H160197   3.750   4.949   0.924 -1.5498  1.1071  1.2557
12902TIP3    H260198   3.673   4.830   0.871  0.5730  0.8041 -1.3543
12903TIP3   OH260199   4.868   6.161   5.286 -0.1216  0.2257  0.0323
12903TIP3    H160200   4.940   6.214   5.321 -0.5673 -0.2173  1.7204
12903TIP3    H260201   4.793   6.221   5.284 -0.1655  0.1773  0.1557
12904TIP3   OH260202   3.026   2.840   2.272  0.0663 -0.5636  0.2502
12904TIP3    H160203   2.943   2.858   2.317  0.7348  0.1145  1.2662
12904TIP3    H260204   3.001   2.824   2.181 -1.1030  0.3965  0.3739
12905TIP3   OH260205   1.225   4.401   1.639 -0.7403  0.4078  0.5868
12905TIP3    H160206   1.172   4.423   1.563  1.2117 -0.1384 -1.0411
12905TIP3    H260207   1.284   4.476   1.649  0.1077 -0.2208  0.4826
12906TIP3   OH260208   6.336   0.368  12.041 -0.0823 -0.3142 -0.2236
12906TIP3    H160209   6.268   0.343  12.104  1.0502 -0.3049  1.0453
12906TIP3    H260210   6.387   0.287  12.028 -0.4321 -0.3787 -1.3298
12907TIP3   OH260211   5.882   1.678  15.101  0.2923  0.2717 -0.3354
12907TIP3    H160212   5.853   1.768  15.087  0.6594  0.3458 -0.6475
12907TIP3    H260213   5.954   1.666  15.039 -2.0744 -1.3925 -3.0250
12908TIP3   OH260214   1.012   1.370  10.933 -0.2351 -0.1810 -0.0979
12908TIP3    H160215   0.970   1.447  10.896  1.3897  1.0456  0.4747
12908TIP3    H260216   0.950   1.299  10.920 -1.2786  0.9867 -1.7098
12909TIP3   OH260217   5.028   4.917  16.533  0.0436  0.2963 -0.2357
12909TIP3    H160218   5.090   4.935  16.604 -0.6399 -0.7197  0.6410
12909TIP3    H260219   4.953   4.878  16.576  0.3563 -2.1177 -1.7175
12910TIP3   OH260220   6.159   3.402  12.535 -0.4933 -0.3102  0.4181
12910TIP3    H160221   6.202   3.338  12.591  0.0299  0.0694  0.4557
12910TIP3    H260222   6.149   3.357  12.451  2.1310  0.3300 -0.3401
12911TIP3   OH260223   0.318   5.710   5.391 -0.7959 -0.1174  0.5702
12911TIP3    H160224   0.313   5.759   5.473  0.6596  0.7485  0.1791
12911TIP3    H260225   0.281   5.624   5.412 -2.8063  0.8978  1.4361
12912TIP3   OH260226   2.410   2.025  11.695  0.0766 -0.0619  0.2039
12912TIP3    H160227   2.483   1.964  11.692 -0.4388 -0.6755 -1.6453
12912TIP3    H260228   2.339   1.976  11.736  0.0779 -0.2133  0.0260
12913TIP3   OH260229   4.607   2.803   3.078  0.2238  0.3005 -0.3297
12913TIP3    H160230   4.664   2.880   3.080 -0.3808  0.7597  1.0335
12913TIP3    H260231   4.550   2.817   3.003 -0.3587  1.5792  0.3167
12914TIP3   OH260232   3.587   1.504   3.844 -0.9158 -0.2627 -0.0180
12914TIP3    H160233   3.593   1.412   3.871  0.2499 -0.1447  0.1653
12914TIP3    H260234   3.651   1.549   3.899 -2.0187  0.7946  0.4316
12915TIP3   OH260235   2.678   2.817   2.069 -0.0777  0.1716  0.0422
12915TIP3    H160236   2.725   2.894   2.101  1.4551  0.0038 -1.5826
12915TIP3    H260237   2.588   2.830   2.096  0.4566  1.7299  1.2135
12916TIP3   OH260238   4.049   0.871   4.925 -0.5254 -0.3666  0.3893
12916TIP3    H160239   3.964   0.908   4.947 -0.9679 -0.3150 -1.2930
12916TIP3    H260240   4.061   0.801   4.989 -0.5512  1.3518  2.3805
12917TIP3   OH260241   5.941   3.930   4.355  0.1675 -0.6345 -0.4172
12917TIP3    H160242   5.857   3.890   4.375 -0.3341 -0.7147 -2.4434
12917TIP3    H260243   6.006   3.862   4.374  0.0224 -0.0500  2.7216
12918TIP3   OH260244   0.224   3.997   3.654  0.2303 -0.1661 -0.1541
12918TIP3    H160245   0.181   3.938   3.717  0.4055  0.1819  0.2983
12918TIP3    H260246   0.277   4.055   3.709  1.5847 -0.8357 -0.7309
12919TIP3   OH260247   4.244   5.037  14.827  0.4654 -0.5471  0.4322
12919TIP3    H160248   4.310   5.102  14.802  0.8744 -1.1396 -0.0842
12919TIP3    H260249   4.171   5.088  14.862  0.3274  0.2575 -0.9714
12920TIP3   OH260250   4.299   2.905   5.334 -0.6932 -0.3478 -0.9772
12920TIP3    H160251   4.241   2.832   5.352  0.8942 -1.4999 -0.2927
12920TIP3    H260252   4.351   2.877   5.258 -1.4109  0.9229 -1.9992
12921TIP3   OH260253   3.923   3.847  12.270 -0.3798  0.2743 -0.0236
12921TIP3    H160254   3.907   3.772  12.213  0.7769  1.0774 -1.4877
12921TIP3    H260255   3.998   3.821  12.324  0.3787  0.5542 -0.9190
12922TIP3   OH260256   2.298   5.478   1.066 -0.2654 -0.3300  0.2385
12922TIP3    H160257   2.334   5.404   1.115 -0.6350 -0.8564 -0.2768
12922TIP3    H260258   2.301   5.451   0.974 -1.7131 -0.2938  0.1487
12923TIP3   OH260259   0.143   1.713  15.664  0.2391 -0.1769  0.5764
12923TIP3    H160260   0.223   1.721  15.612  1.1477 -1.7168  1.6559
12923TIP3    H260261   0.128   1.618  15.670 -1.7977  0.0775  0.2330
12924TIP3   OH260262   2.394   1.506   5.608  0.5303  0.3642  0.6168
12924TIP3    H160263   2.436   1.422   5.630  0.2949  0.6564  2.2499
12924TIP3    H260264   2.301   1.492   5.627  0.6002  1.2326  1.6524
12925TIP3   OH260265   6.500   0.185  11.785  0.1681 -0.4069  0.4236
12925TIP3    H160266   6.470   0.132  11.859  0.5045  0.6162  1.3134
12925TIP3    H260267   6.527   0.121  11.719 -1.3225 -1.3424  0.6788
12926TIP3   OH260268   5.903   1.685   0.362 -0.0134 -0.8616  0.0762
12926TIP3    H160269   5.875   1.708   0.273  0.2894 -1.8312 -0.2880
12926TIP3    H260270   5.836   1.625   0.394 -0.1185 -0.5188  0.5086
12927TIP3   OH260271   0.001   3.366   4.996  0.4267 -0.2025  0.3560
12927TIP3    H160272   0.062   3.297   5.025  1.0515 -0.1687 -0.8336
12927TIP3    H260273  -0.066   3.319   4.946 -0.5468 -0.2344  1.6240
12928TIP3   OH260274   0.499   2.011   3.434  0.3144  0.0957  0.0867
12928TIP3    H160275   0.468   2.058   3.356 -0.0517 -1.7111 -0.9306
12928TIP3    H260276   0.450   2.050   3.506  0.7022  1.8618 -0.5380
12929TIP3   OH260277   4.412   5.861  11.927  0.1613  0.0770 -0.0343
12929TIP3    H160278   4.399   5.796  11.995 -0.2395 -1.6198 -1.6616
12929TIP3    H260279   4.471   5.819  11.864 -1.1496  0.7500 -1.7930
12930TIP3   OH260280   4.648   5.562   1.325  0.3985 -0.4194  0.1303
12930TIP3    H160281   4.613   5.616   1.395  0.1365 -0.1366 -0.2151
12930TIP3    H260282   4.721   5.613   1.290 -0.8534  0.4913 -1.2745
12931TIP3   OH260283   0.245   6.778  14.888  0.1225  0.5226 -0.7081
12931TIP3    H160284   0.165   6.808  14.845 -0.2421 -0.1457 -0.5110
12931TIP3    H260285   0.230   6.684  14.904  0.8501  0.4419 -0.4654
12932TIP3   OH260286   4.948   4.439  12.517 -0.1384 -0.1260 -0.0788
12932TIP3    H160287   5.028   4.487  12.535 -0.7288  0.1492  2.0495
12932TIP3    H260288   4.887   4.505  12.484 -0.4065  0.2701  1.1814
12933TIP3   OH260289   0.124   6.361  13.108 -0.2457  0.3801  0.7605
12933TIP3    H160290   0.155   6.298  13.174  0.8477  1.2463  1.1013
12933TIP3    H260291   0.032   6.375  13.131 -0.4196 -0.8544  0.8657
12934TIP3   OH260292   6.246   2.145   5.888  0.1640  0.4631 -0.2176
12934TIP3    H160293   6.294   2.176   5.964 -0.7040  1.2224  0.0483
12934TIP3    H260294   6.295   2.069   5.857  2.8942  2.5655 -1.4115
12935TIP3   OH260295   0.011   0.533   4.190 -0.9457 -0.2405 -0.2686
12935TIP3    H160296  -0.022   0.602   4.132 -2.0828  0.0902  0.7478
12935TIP3    H260297   0.059   0.580   4.258 -1.2596 -0.4941  0.1291
12936TIP3   OH260298   2.210   1.841  10.539  0.0456  0.0360 -0.1983
12936TIP3    H160299   2.164   1.757  10.530  0.6039 -0.2527 -0.4405
12936TIP3    H260300   2.267   1.845  10.461  3.9222 -1.8201  2.2028
12937TIP3   OH260301   6.291   2.928   4.249 -0.4189 -0.1629  0.3949
12937TIP3    H160302   6.278   2.857   4.311 -0.1718 -0.7182 -0.1843
12937TIP3    H260303   6.366   2.977   4.284  1.6025 -2.1311 -0.9274
12938TIP3   OH260304   6.696   0.554   3.640  0.0053 -0.3940  0.0809
12938TIP3    H160305   6.703   0.645   3.670  1.6809 -0.3411 -0.4006
12938TIP3    H260306   6.693   0.561   3.545 -1.1106 -0.8058  0.0661
12939TIP3   OH260307   4.980   3.428   4.759  0.2627 -0.5300 -1.1647
12939TIP3    H160308   4.977   3.510   4.808  0.9258 -0.4680 -1.2091
12939TIP3    H260309   4.993   3.456   4.668  0.7834 -0.6836 -1.1432
12940TIP3   OH260310   0.623   5.951  11.638 -0.3169 -0.8349 -0.2120
12940TIP3    H160311   0.580   5.994  11.564 -0.6494 -2.2796 -0.8950
12940TIP3    H260312   0.637   6.021  11.702 -2.7663 -0.0879 -0.3933
12941TIP3   OH260313   6.074   4.526   4.237 -0.1634  0.3548  0.2000
12941TIP3    H160314   5.993   4.520   4.287  0.1605  0.3717  0.7266
12941TIP3    H260315   6.144   4.528   4.303  0.2748  0.2046 -0.2502
12942TIP3   OH260316   5.245   2.284   0.933 -0.1394  0.5034  0.1435
12942TIP3    H160317   5.300   2.210   0.908 -1.2178 -0.9898  1.9169
12942TIP3    H260318   5.240   2.338   0.855  3.4863  0.5387 -0.2340
12943TIP3   OH260319   4.505   0.887   0.682  0.0243 -0.0559  0.1490
12943TIP3    H160320   4.493   0.847   0.596 -1.4335  0.2477  0.1879
12943TIP3    H260321   4.568   0.957   0.667  0.4831 -0.5867 -0.4717
12944TIP3   OH260322   5.845   5.590   3.722 -0.1054  0.0925 -0.5765
12944TIP3    H160323   5.933   5.603   3.757  0.1377 -1.7774 -0.3770
12944TIP3    H260324   5.801   5.673   3.737  1.7541  1.2498 -1.1014
12945TIP3   OH260325   1.526   3.900   4.695  0.3543  0.8852 -0.6860
12945TIP3    H160326   1.534   3.922   4.602  0.4876  0.5922 -0.7476
12945TIP3    H260327   1.449   3.948   4.725 -0.2538  0.2516 -1.1829
12946TIP3   OH260328   6.015   5.397  15.076 -0.1370  0.3771 -0.0175
12946TIP3    H160329   6.043   5.474  15.126  2.7801 -0.6634  0.1345
12946TIP3    H260330   5.930   5.423  15.038  0.7325  3.6987 -0.0522
12947TIP3   OH260331   3.776   2.248   0.337  0.2260 -0.4983 -0.3535
12947TIP3    H160332   3.753   2.191   0.263 -0.6996 -0.0468 -0.4313
12947TIP3    H260333   3.837   2.196   0.389 -0.0806 -1.3130 -0.7838
12948TIP3   OH260334   6.289   2.067   2.021  0.0971 -0.1072 -0.0333
12948TIP3    H160335   6.331   2.103   2.099 -0.1609 -0.6441  0.3619
12948TIP3    H260336   6.230   2.137   1.991  0.3939  0.2010  0.0955
12949TIP3   OH260337   1.780   1.597  15.390  0.3247 -0.6003  0.5379
12949TIP3    H160338   1.784   1.540  15.314  0.6753 -0.7248  0.6490
12949TIP3    H260339   1.819   1.679  15.360 -1.2977  0.0165  0.0037
12950TIP3   OH260340   0.494   6.767   2.753 -0.3777  0.0772 -0.5079
12950TIP3    H160341   0.497   6.835   2.821 -1.6884 -0.7096  0.3860
12950TIP3    H260342   0.425   6.795   2.693 -0.2549  0.0198 -0.6778
12951TIP3   OH260343   3.538   3.433  14.378  0.7398  0.2456 -0.3578
12951TIP3    H160344   3.556   3.520  14.413  0.6937 -0.1674  0.7489
12951TIP3    H260345   3.451   3.411  14.413  1.5009 -0.9602  0.9054
12952TIP3   OH260346   4.170   2.841  11.320 -0.7170  0.9060 -0.1086
12952TIP3    H160347   4.209   2.876  11.400 -0.6703 -1.1429  0.8143
12952TIP3    H260348   4.158   2.748  11.338 -2.0601  0.6796 -1.9655
12953TIP3   OH260349   5.775   0.525   4.111  0.7871 -0.3415 -0.0861
12953TIP3    H160350   5.689   0.488   4.091  0.4066  0.7570 -0.5185
12953TIP3    H260351   5.829   0.504   4.035  1.6930 -3.2464  1.1898
12954TIP3   OH260352   5.101   4.827  14.101  0.4067 -0.2980 -0.8947
12954TIP3    H160353   5.109   4.798  14.192  1.1227  0.5165 -0.6800
12954TIP3    H260354   5.191   4.842  14.072  0.1020  1.8982 -0.8917
12955TIP3   OH260355   1.504   4.241   2.031 -0.4859 -0.2257 -0.3784
12955TIP3    H160356   1.576   4.252   1.969 -0.8427 -0.0781 -0.7704
12955TIP3    H260357   1.546   4.238   2.117 -0.0508  0.2716 -0.5743
12956TIP3   OH260358   4.351   0.565  13.318 -0.0744  0.1083  0.2533
12956TIP3    H160359   4.394   0.628  13.260  1.0759 -1.2119 -0.3788
12956TIP3    H260360   4.261   0.562  13.288  0.8170 -1.6789 -2.5638
12957TIP3   OH260361   3.097   5.723   5.038  0.0201  0.8217 -0.2673
12957TIP3    H160362   3.096   5.774   4.957 -1.9263  0.3912 -0.5560
12957TIP3    H260363   3.036   5.769   5.096  1.1261  0.9275  0.8587
12958TIP3   OH260364   0.914   2.063  14.131  0.1411 -0.4411 -0.5316
12958TIP3    H160365   0.846   2.002  14.101 -0.5555 -0.7964  1.6043
12958TIP3    H260366   0.866   2.132  14.176  1.0273  1.0040 -1.7126
12959TIP3   OH260367   6.518   5.020   5.455  0.1072  0.0342  0.1985
12959TIP3    H160368   6.457   4.958   5.495  0.9177 -0.5307  0.5954
12959TIP3    H260369   6.467   5.064   5.387 -1.0449  0.4004  1.2906
12960TIP3   OH260370   3.120   5.473  11.006 -0.2668  0.0587 -0.6647
12960TIP3    H160371   3.057   5.535  11.041  0.6261  1.0776 -0.7915
12960TIP3    H260372   3.183   5.459  11.077  0.9371  1.2844 -1.4242
12961TIP3   OH260373   1.196   1.781   3.120  0.1730 -0.5577 -0.5152
12961TIP3    H160374   1.119   1.724   3.122 -0.9245  0.8678 -0.2172
12961TIP3    H260375   1.160   1.869   3.104  1.5308  0.4452  1.5385
12962TIP3   OH260376   4.733   1.972   0.142 -0.3868 -0.1350 -0.0998
12962TIP3    H160377   4.640   1.996   0.144 -0.3303  0.0262  0.7696
12962TIP3    H260378   4.779   2.056   0.135 -0.3221 -0.2679 -1.8778
12963TIP3   OH260379   5.466   3.616  14.610  0.0048 -0.3644 -0.0972
12963TIP3    H160380   5.455   3.558  14.685  1.1552 -2.0776 -1.1988
12963TIP3    H260381   5.386   3.669  14.610 -0.4448 -0.9434  1.7690
12964TIP3   OH260382   6.738   5.759  14.605  0.3034 -0.1690 -0.4773
12964TIP3    H160383   6.708   5.825  14.667  2.6071  0.0196  0.5397
12964TIP3    H260384   6.740   5.678  14.655  0.3089 -0.4157 -0.8716
12965TIP3   OH260385   5.779   2.305   4.294 -0.1775  0.0268 -0.2593
12965TIP3    H160386   5.868   2.339   4.308  0.1145 -0.6700 -0.3564
12965TIP3    H260387   5.749   2.281   4.382 -1.2501  2.5176  0.1494
12966TIP3   OH260388   3.611   1.919  13.658  0.3514 -0.2473 -0.3562
12966TIP3    H160389   3.569   1.849  13.707 -0.0152  1.9750  2.7806
12966TIP3    H260390   3.538   1.967  13.617  0.5255 -0.9772 -1.5814
12967TIP3   OH260391   4.022   2.884  12.457  0.3839  0.0184  0.0565
12967TIP3    H160392   3.986   2.829  12.387  0.7662  0.0517 -0.1702
12967TIP3    H260393   4.019   2.829  12.535 -0.3934  0.1103  0.0944
12968TIP3   OH260394   3.880   2.397   4.662 -0.4320  0.0369 -0.0668
12968TIP3    H160395   3.805   2.452   4.639 -0.9750  0.2403  2.0241
12968TIP3    H260396   3.846   2.307   4.654 -0.9301  0.1264  0.8545
12969TIP3   OH260397   3.891   3.619  14.078 -0.1701  0.2207 -0.0154
12969TIP3    H160398   3.902   3.548  14.015 -1.2194  1.5485 -1.8198
12969TIP3    H260399   3.853   3.578  14.155  3.2570 -1.8821  0.7858
12970TIP3   OH260400   1.615   3.669  14.549 -0.2342  0.1969  0.1126
12970TIP3    H160401   1.548   3.728  14.516 -0.6044  1.1207  2.3755
12970TIP3    H260402   1.696   3.700  14.508 -0.6119  1.4972  0.3028
12971TIP3   OH260403   1.606   2.287  12.097  0.3352 -0.1365  0.2491
12971TIP3    H160404   1.554   2.344  12.041  1.2231  1.0644  0.6049
12971TIP3    H260405   1.658   2.234  12.036  0.7201  0.6084 -0.0825
12972TIP3   OH260406   1.979   3.955   3.360 -0.6886 -0.2912  0.3626
12972TIP3    H160407   1.906   3.955   3.422  0.3441  0.7335  1.6550
12972TIP3    H260408   2.027   3.874   3.379 -0.5384 -0.1224  0.7118
12973TIP3   OH260409   1.103   2.035  11.214 -0.0390 -0.1165  0.3048
12973TIP3    H160410   1.156   1.960  11.186  0.7326  1.0018 -1.3472
12973TIP3    H260411   1.012   2.003  11.210  0.1969 -0.6427 -1.4741
12974TIP3   OH260412   4.143   2.204   6.106 -0.5166  0.4157 -0.3973
12974TIP3    H160413   4.070   2.158   6.065 -0.8351  1.2539 -0.7740
12974TIP3    H260414   4.113   2.294   6.117 -0.4478  0.2508  1.6704
12975TIP3   OH260415   4.829   5.936   2.861  0.3254  0.2564 -0.3510
12975TIP3    H160416   4.774   5.858   2.849 -0.3411  0.2303  2.2532
12975TIP3    H260417   4.910   5.902   2.897  0.6264  0.6559 -0.6412
12976TIP3   OH260418   2.418   2.547  13.307 -0.8254 -0.2045 -0.1903
12976TIP3    H160419   2.339   2.573  13.259 -1.4409 -0.8493  0.4570
12976TIP3    H260420   2.395   2.559  13.399  0.0912  0.3093 -0.0143
12977TIP3   OH260421   6.659   0.821  12.691  0.4320  0.6004  0.1947
12977TIP3    H160422   6.654   0.886  12.761 -1.7149 -1.1244  1.7997
12977TIP3    H260423   6.752   0.818  12.668  0.9603  2.3770  1.8532
12978TIP3   OH260424   4.959   0.511   6.483 -0.0581 -0.0478 -0.5544
12978TIP3    H160425   5.048   0.539   6.504  0.4954 -2.7490  1.2485
12978TIP3    H260426   4.932   0.568   6.411  4.2128 -0.8709 -3.1893
12979TIP3   OH260427   5.696   5.208  11.479  0.3298  0.3340  0.1192
12979TIP3    H160428   5.682   5.123  11.437  2.5290  0.3147 -0.6950
12979TIP3    H260429   5.703   5.188  11.573  0.9200 -0.3994 -0.0765
12980TIP3   OH260430   2.912   6.568  14.082  0.1942 -0.4704  0.4257
12980TIP3    H160431   2.974   6.636  14.107 -0.3665  0.0867  0.3312
12980TIP3    H260432   2.841   6.615  14.039 -0.8941 -0.9378  1.6391
12981TIP3   OH260433   5.796   5.546   4.239  0.4091  0.4280  0.1113
12981TIP3    H160434   5.891   5.548   4.252  0.3440  0.5729  0.5561
12981TIP3    H260435   5.781   5.466   4.188  0.7579  0.3545  0.1227
12982TIP3   OH260436   1.370   4.943  13.142  0.2818 -0.5073 -0.0573
12982TIP3    H160437   1.276   4.941  13.160 -0.3520 -1.7139 -2.8625
12982TIP3    H260438   1.396   4.851  13.146  1.1315 -0.2771 -0.2245
12983TIP3   OH260439   3.956   4.903  16.502  0.2900 -0.3999  0.4515
12983TIP3    H160440   3.959   4.992  16.465  0.1531 -0.5814 -0.0045
12983TIP3    H260441   3.866   4.892  16.531 -0.1299 -0.9799 -0.9928
12984TIP3   OH260442   3.322   5.001  16.283  0.2855  0.0713  0.2324
12984TIP3    H160443   3.336   4.930  16.345 -2.4393  0.7667  1.8293
12984TIP3    H260444   3.360   5.078  16.326 -0.6537  0.3474  0.6122
12985TIP3   OH260445   1.000   3.525  14.481  0.2740  0.7330 -0.5300
12985TIP3    H160446   0.982   3.576  14.560 -0.0181  0.4599 -0.4190
12985TIP3    H260447   0.961   3.577  14.410  0.7512  1.1002 -0.5296
12986TIP3   OH260448   0.225   4.967  11.409 -0.0970  0.8512  0.0124
12986TIP3    H160449   0.317   4.944  11.403 -0.0728  0.3892  1.7555
12986TIP3    H260450   0.182   4.889  11.444 -1.1681  1.0528 -0.7858
12987TIP3   OH260451   2.265   6.243   1.565 -0.3225 -0.4122 -0.2030
12987TIP3    H160452   2.263   6.147   1.569 -2.6536 -0.3756  0.6262
12987TIP3    H260453   2.173   6.269   1.559  0.2211  1.8180  0.3186
12988TIP3   OH260454   2.554   4.957   0.663  0.3350  0.6585  0.4754
12988TIP3    H160455   2.646   4.983   0.670  0.8707 -1.0034  0.1263
12988TIP3    H260456   2.527   4.940   0.753  0.2296  1.5232  0.6193
12989TIP3   OH260457   3.833   3.342  13.148 -0.2592 -0.3910  0.0222
12989TIP3    H160458   3.762   3.353  13.084 -1.1610 -2.6842  0.5254
12989TIP3    H260459   3.913   3.353  13.097 -0.9517 -2.3288 -1.6140
12990TIP3   OH260460   2.397   2.315  12.593 -0.0619  0.4786 -0.5630
12990TIP3    H160461   2.307   2.298  12.622  0.9399 -1.0321  1.9723
12990TIP3    H260462   2.410   2.255  12.520 -1.5679  1.8949 -2.0873
12991TIP3   OH260463   4.644   3.994  11.303 -0.1823  0.1786  0.6146
12991TIP3    H160464   4.635   4.010  11.397  1.9962 -0.4581  0.9662
12991TIP3    H260465   4.733   3.963  11.292 -0.6460 -0.5404 -1.5804
12992TIP3   OH260466   4.089   1.028   5.352 -0.2411  0.2702  0.2870
12992TIP3    H160467   4.071   0.936   5.334 -2.1561  0.3047  1.7151
12992TIP3    H260468   4.031   1.076   5.291  2.4113  0.6739 -2.1208
12993TIP3   OH260469   4.529   6.376  16.722  0.0780  0.3780 -0.5596
12993TIP3    H160470   4.578   6.303  16.684  0.3724  1.0384 -1.4929
12993TIP3    H260471   4.476   6.409  16.649  0.5237  1.5801 -0.3574
12994TIP3   OH260472   0.763   0.543   1.293 -0.2266  0.4940  0.1935
12994TIP3    H160473   0.674   0.534   1.328 -0.7038 -0.9883 -1.2976
12994TIP3    H260474   0.769   0.635   1.268 -1.1554  0.7297  0.7838
12995TIP3   OH260475   0.193   2.062  12.264  0.0650  0.1949  0.0693
12995TIP3    H160476   0.158   2.096  12.346 -0.2903  0.1667 -0.0693
12995TIP3    H260477   0.286   2.046  12.282  0.3318  1.6041  0.0157
12996TIP3   OH260478   0.565   1.201  11.823  0.0382  0.5330 -0.6024
12996TIP3    H160479   0.550   1.166  11.910 -0.1477  1.0580 -0.4213
12996TIP3    H260480   0.591   1.125  11.771 -1.3161 -0.0555 -0.4632
12997TIP3   OH260481   3.178   6.513   4.137 -0.0602  0.5626  0.5588
12997TIP3    H160482   3.092   6.519   4.095 -0.4111  1.3968  1.3805
12997TIP3    H260483   3.196   6.601   4.168  0.9044  0.2974  0.7899
12998TIP3   OH260484   0.969   2.897   1.431  0.1004  0.2285 -0.3257
12998TIP3    H160485   0.961   2.940   1.516  0.3806  0.0857 -0.2252
12998TIP3    H260486   1.034   2.948   1.384  0.6064 -0.2139 -0.1188
12999TIP3   OH260487   6.733   0.913   2.399 -0.3779  0.2357  0.2874
12999TIP3    H160488   6.799   0.949   2.459  0.1605 -0.5850  0.2022
12999TIP3    H260489   6.771   0.831   2.369  0.0284  1.2697 -2.2849
13000TIP3   OH260490   5.531   6.205  16.445  0.6553 -0.2111  0.5888
13000TIP3    H160491   5.558   6.295  16.463 -0.3358  0.2872 -0.3064
13000TIP3    H260492   5.470   6.184  16.516  0.9080 -0.1936  0.8121
13001TIP3   OH260493   6.725   3.629  12.404  0.3037  0.4730 -0.5572
13001TIP3    H160494   6.769   3.627  12.319  3.1908 -1.6418  0.8107
13001TIP3    H260495   6.680   3.545  12.410  2.0528 -0.4243  0.8237
13002TIP3   OH260496   0.605   5.321  10.836 -0.4770 -0.5723 -0.1506
13002TIP3    H160497   0.645   5.338  10.751  0.2064  0.1841  0.3057
13002TIP3    H260498   0.609   5.226  10.846  0.1197 -0.6027 -0.6359
13003TIP3   OH260499   1.188   1.335  15.095  0.4289 -0.2172 -0.2129
13003TIP3    H160500   1.246   1.259  15.093 -0.5472 -0.9912  0.1477
13003TIP3    H260501   1.118   1.314  15.032  0.2035  0.4227 -0.1849
13004TIP3   OH260502   2.375   6.597   4.265 -0.5360 -0.2808  0.3713
13004TIP3    H160503   2.290   6.628   4.295 -0.0767 -0.5781  2.0450
13004TIP3    H260504   2.433   6.606   4.340  0.6437 -1.1552 -0.3865
13005TIP3   OH260505   3.745   4.566   1.927  0.2210  0.0804 -0.1911
13005TIP3    H160506   3.708   4.478   1.940 -0.0786 -0.2196 -2.5475
13005TIP3    H260507   3.671   4.625   1.935  0.1973 -0.0035  0.2135
13006TIP3   OH260508   2.930   6.459   2.010  0.4678  0.3705  0.2842
13006TIP3    H160509   3.024   6.452   1.998  0.3288 -0.6725 -0.3535
13006TIP3    H260510   2.911   6.553   2.008  1.4630  0.5745  0.2482
13007TIP3   OH260511   3.878   4.690   2.891 -0.5083  0.6850 -0.5120
13007TIP3    H160512   3.839   4.727   2.970 -0.0198  1.7382 -0.7421
13007TIP3    H260513   3.890   4.598   2.911 -0.8555  0.8361  0.4597
13008TIP3   OH260514   0.319   3.587   1.149  0.1362 -0.4222  0.3977
13008TIP3    H160515   0.238   3.542   1.172  0.4473 -0.4664  1.4224
13008TIP3    H260516   0.290   3.674   1.119 -0.2525 -0.1946  1.4046
13009TIP3   OH260517   2.600   5.916   5.486 -0.0380 -0.3847  0.1794
13009TIP3    H160518   2.604   5.964   5.403  1.3554 -1.4607 -0.4081
13009TIP3    H260519   2.687   5.925   5.524 -0.1769 -1.2563  0.7475
13010TIP3   OH260520   1.444   1.930   5.764 -0.3366 -0.4185  0.2812
13010TIP3    H160521   1.432   1.842   5.800 -0.2862 -0.6185 -0.1897
13010TIP3    H260522   1.380   1.984   5.810 -2.1603 -1.1837 -1.2125
13011TIP3   OH260523   4.857   1.666   2.632  0.3391  0.1206 -0.0139
13011TIP3    H160524   4.905   1.615   2.698  0.1426 -0.7109 -0.5034
13011TIP3    H260525   4.849   1.607   2.557  2.0120  1.5748 -1.4425
13012TIP3   OH260526   5.475   2.492  11.891  0.0836 -0.5738  0.0437
13012TIP3    H160527   5.501   2.545  11.967 -2.0239  1.4229 -0.4899
13012TIP3    H260528   5.557   2.478  11.844  1.1913 -0.4060  1.7893
13013TIP3   OH260529   6.223   1.547  11.703  0.1438 -0.8567 -0.0220
13013TIP3    H160530   6.165   1.597  11.645  1.6210 -0.0592 -0.8910
13013TIP3    H260531   6.183   1.461  11.709 -1.3987 -0.1768 -0.1470
13014TIP3   OH260532   4.500   4.341  15.576 -0.1236 -0.0659 -0.2344
13014TIP3    H160533   4.428   4.356  15.636  1.0474 -1.3354  1.5982
13014TIP3    H260534   4.577   4.376  15.622  0.5839  0.4775 -1.7610
13015TIP3   OH260535   5.945   3.640  12.123  0.5816  0.3413 -0.3673
13015TIP3    H160536   5.869   3.587  12.148  1.6216 -1.0427  0.0408
13015TIP3    H260537   5.909   3.715  12.077 -1.1353  0.6370  1.3674
13016TIP3   OH260538   6.713   1.305   3.020  0.4663 -0.5310 -0.3386
13016TIP3    H160539   6.623   1.337   3.011  0.3560 -0.3669  1.0595
13016TIP3    H260540   6.711   1.217   2.983 -0.9563 -1.5608  1.9756
13017TIP3   OH260541   1.221   3.291  16.674  0.9174 -0.2014  0.4637
13017TIP3    H160542   1.189   3.381  16.682  1.3729 -0.1109  1.3788
13017TIP3    H260543   1.154   3.238  16.717 -0.4809 -0.5850 -1.9952
13018TIP3   OH260544   0.180   4.670   1.892  1.0175  0.0564  0.2311
13018TIP3    H160545   0.171   4.765   1.902 -0.3321 -0.2117  2.0555
13018TIP3    H260546   0.265   4.651   1.932  0.7790  0.3786  0.9119
13019TIP3   OH260547   6.533   0.949  13.648 -0.4721  0.6675  0.1436
13019TIP3    H160548   6.467   0.880  13.657 -0.9212  1.1815  0.8943
13019TIP3    H260549   6.616   0.904  13.666 -0.7266  0.2546  0.3206
13020TIP3   OH260550   6.747   1.507   5.400 -0.1018  0.0359 -0.3333
13020TIP3    H160551   6.837   1.477   5.384 -0.6290 -1.2355 -1.1333
13020TIP3    H260552   6.718   1.541   5.315 -0.3714  0.4489 -0.0771
13021TIP3   OH260553   6.239   5.835   6.748 -0.1038 -0.3842  0.3408
13021TIP3    H160554   6.207   5.789   6.671 -0.4581  0.8048 -0.2528
13021TIP3    H260555   6.334   5.822   6.747 -0.2788 -1.9747  0.8028
13022TIP3   OH260556   0.806   2.673   1.668  0.2339 -0.0273  0.3940
13022TIP3    H160557   0.747   2.620   1.615 -0.3859  0.5246  0.5230
13022TIP3    H260558   0.890   2.668   1.623  0.7347 -2.7279  1.4401
13023TIP3   OH260559   2.558   5.714  14.166 -0.2047  0.3518 -0.2033
13023TIP3    H160560   2.572   5.628  14.126  0.8445  0.3466  0.1517
13023TIP3    H260561   2.643   5.738  14.203 -0.3412  1.7647 -0.7302
13024TIP3   OH260562   2.313   4.876   6.527 -0.2757  0.1212 -0.3293
13024TIP3    H160563   2.258   4.805   6.562 -0.1360  0.0486 -0.2588
13024TIP3    H260564   2.280   4.955   6.571 -0.9187  0.2117 -0.9471
13025TIP3   OH260565   2.125   3.512  15.720  0.4095  0.1675  0.6636
13025TIP3    H160566   2.195   3.566  15.683  0.5490  0.2961  1.1078
13025TIP3    H260567   2.109   3.550  15.806  0.4533 -0.4486  0.9520
13026TIP3   OH260568   2.320   6.826  12.726  0.3774  0.0453 -0.0457
13026TIP3    H160569   2.226   6.817  12.741  0.5340 -0.1906  0.8483
13026TIP3    H260570   2.332   6.808  12.633 -0.5206  0.5456 -0.2633
13027TIP3   OH260571   2.926   4.391  12.977  0.1056 -0.0486  0.3407
13027TIP3    H160572   2.835   4.419  12.965  0.3582  0.7375  0.1763
13027TIP3    H260573   2.954   4.364  12.889 -0.4009 -1.6815  0.6545
13028TIP3   OH260574   0.437   1.055   0.036 -0.1843 -0.8017  0.2454
13028TIP3    H160575   0.429   0.984   0.100 -1.6013 -1.4801 -0.6301
13028TIP3    H260576   0.477   1.015  -0.040  1.8157  0.0845  0.7578
13029TIP3   OH260577   4.039   0.124   4.771 -0.2169  0.6916  0.2757
13029TIP3    H160578   3.974   0.177   4.817  0.8824  3.2742 -0.9297
13029TIP3    H260579   4.117   0.128   4.826  0.2076  1.3060 -0.3516
13030TIP3   OH260580   1.088   2.272   3.113  0.1217  0.1699 -0.2347
13030TIP3    H160581   1.180   2.299   3.109  0.5656 -1.2415 -0.2211
13030TIP3    H260582   1.053   2.318   3.189  0.7633  0.8902 -0.3703
13031TIP3   OH260583   1.278   1.302  10.913  0.4653  0.1269  0.2683
13031TIP3    H160584   1.259   1.231  10.852  1.1239 -0.3265  0.5795
13031TIP3    H260585   1.192   1.340  10.934  0.3396  1.3861 -2.1979
13032TIP3   OH260586   1.588   0.491  11.941  0.0811  0.2166 -0.0463
13032TIP3    H160587   1.570   0.443  12.022  2.6174  0.7254  0.9339
13032TIP3    H260588   1.599   0.582  11.970  3.2358  0.0748 -0.5146
13033TIP3   OH260589   0.364   1.713   5.398  0.4033 -0.1873 -0.7804
13033TIP3    H160590   0.281   1.742   5.358  0.8848 -0.5672 -2.1242
13033TIP3    H260591   0.411   1.795   5.416 -1.2951  0.2071  2.4993
13034TIP3   OH260592   1.728   6.493   3.397 -0.1121 -0.1122  0.1030
13034TIP3    H160593   1.739   6.531   3.309  1.4466  0.4220  0.4960
13034TIP3    H260594   1.811   6.510   3.441 -0.7980 -0.5508  1.6357
13035TIP3   OH260595   4.873   3.031  12.905  0.3896 -0.2866  0.2879
13035TIP3    H160596   4.825   2.948  12.900 -0.7786  0.3331  0.7530
13035TIP3    H260597   4.916   3.028  12.990 -2.0482  0.7702  1.6757
13036TIP3   OH260598   0.595   6.744   1.933 -0.1701  0.2933  0.4847
13036TIP3    H160599   0.611   6.718   1.842  2.1087 -0.1495  0.9621
13036TIP3    H260600   0.522   6.689   1.961 -0.0577 -0.4775 -0.6843
13037TIP3   OH260601   6.633   4.713   1.067 -0.8429 -0.1114 -0.0430
13037TIP3    H160602   6.673   4.800   1.078 -0.8674  0.1107 -1.5540
13037TIP3    H260603   6.685   4.671   0.999 -0.7908 -1.3284  0.7357
13038TIP3   OH260604   4.264   4.200   4.008  0.4946 -0.0268  0.4469
13038TIP3    H160605   4.330   4.245   3.955 -0.2307  0.7214  0.1599
13038TIP3    H260606   4.315   4.142   4.064  1.4055  0.5518  0.2507
13039TIP3   OH260607   6.613   3.370  11.540  0.3900 -0.0648 -0.0771
13039TIP3    H160608   6.587   3.292  11.491  1.0911  0.1943 -0.8888
13039TIP3    H260609   6.550   3.375  11.612  0.1805 -1.2369 -0.1495
13040TIP3   OH260610   5.804   0.105   0.699  0.1418 -0.0695 -0.4781
13040TIP3    H160611   5.728   0.158   0.722  0.5337  0.0892  0.5112
13040TIP3    H260612   5.775   0.052   0.624 -1.9938 -2.2509  1.6742
13041TIP3   OH260613   6.629   0.168  14.450 -0.1966  0.2129  0.1758
13041TIP3    H160614   6.685   0.223  14.505  0.9275 -0.5015 -0.2480
13041TIP3    H260615   6.682   0.092  14.428 -0.3080  0.8187 -2.5722
13042TIP3   OH260616   6.576   4.292  12.390  0.3464  0.5340 -0.5779
13042TIP3    H160617   6.590   4.341  12.471  0.2320  1.6833 -1.2291
13042TIP3    H260618   6.586   4.358  12.321  0.1892 -0.3765 -1.4818
13043TIP3   OH260619   2.598   6.105  12.193  0.0584  0.0721  0.0462
13043TIP3    H160620   2.655   6.038  12.228 -0.3493  0.1120  0.8047
13043TIP3    H260621   2.509   6.075  12.213 -0.1894  0.0916 -0.9639
13044TIP3   OH260622   5.818   1.122   1.918 -0.4925 -0.6314 -0.3074
13044TIP3    H160623   5.909   1.097   1.932 -0.2412  1.4245  2.9420
13044TIP3    H260624   5.813   1.142   1.825  2.7383  0.3030 -0.4252
13045TIP3   OH260625   2.271   4.791  13.549 -0.0271  0.4258  0.7045
13045TIP3    H160626   2.178   4.784  13.569  0.2199 -1.0849  1.4665
13045TIP3    H260627   2.281   4.879  13.512 -1.9962  0.1191 -0.7380
13046TIP3   OH260628   2.695   1.259   0.324 -0.2862  0.1242 -0.4564
13046TIP3    H160629   2.742   1.261   0.407 -0.7433 -0.4180 -0.1753
13046TIP3    H260630   2.708   1.170   0.291  0.6669  0.6020 -1.4317
13047TIP3   OH260631   4.979   1.946  12.659 -0.1002 -0.4842  0.7332
13047TIP3    H160632   4.899   1.999  12.661 -0.3803 -0.8780  0.3621
13047TIP3    H260633   5.050   2.009  12.648 -0.3572 -0.1273  1.0930
13048TIP3   OH260634   6.339   1.964  10.668 -0.2578 -0.1876 -0.3353
13048TIP3    H160635   6.291   2.011  10.600  0.5486 -0.3104 -1.0110
13048TIP3    H260636   6.390   1.898  10.620 -0.8594 -1.3249  0.5218
13049TIP3   OH260637   5.046   2.163  14.343  0.1170 -0.0685  1.1094
13049TIP3    H160638   4.987   2.168  14.418 -1.3445 -0.3491  0.0032
13049TIP3    H260639   5.036   2.247  14.298 -1.4989 -1.0767 -0.5482
13050TIP3   OH260640   3.382   5.524   3.377 -0.5181  0.0651  0.4122
13050TIP3    H160641   3.431   5.461   3.430 -0.1801  1.4478  1.7969
13050TIP3    H260642   3.432   5.531   3.296  0.9297  0.5480  1.3161
13051TIP3   OH260643   3.350   6.244  15.945 -0.3529  0.7649  0.0686
13051TIP3    H160644   3.270   6.246  15.998 -1.1659  0.7305 -1.0884
13051TIP3    H260645   3.351   6.156  15.908  0.1504  0.8129 -0.0339
13052TIP3   OH260646   4.718   6.133  16.798 -0.0275 -0.1619 -0.4043
13052TIP3    H160647   4.756   6.209  16.841  0.3068 -0.0924 -0.8205
13052TIP3    H260648   4.786   6.066  16.803  0.2633  0.0548 -1.4064
13053TIP3   OH260649   2.316   6.771  12.456  0.3996  0.5715  0.5162
13053TIP3    H160650   2.358   6.756  12.372 -0.2652 -0.1273  0.2996
13053TIP3    H260651   2.280   6.860  12.450  0.0725  0.4070 -0.0643
13054TIP3   OH260652   0.314   5.140  14.938 -0.1058 -0.4064 -0.0551
13054TIP3    H160653   0.302   5.046  14.954 -0.7840 -0.5800 -1.3804
13054TIP3    H260654   0.225   5.174  14.932  0.0519 -0.2039 -2.1931
13055TIP3   OH260655   6.496   5.576   0.223  0.2889  0.5241  0.9087
13055TIP3    H160656   6.541   5.508   0.273 -1.1406  0.0774  1.6251
13055TIP3    H260657   6.463   5.637   0.289 -2.6687 -0.7054  0.7071
13056TIP3   OH260658   3.986   5.916  13.340 -0.1426  0.6328  0.1223
13056TIP3    H160659   3.981   6.003  13.303  0.4819  0.6348  0.0422
13056TIP3    H260660   3.973   5.857  13.266 -1.5704  0.6463  0.3220
13057TIP3   OH260661   5.413   0.564  13.466 -0.2126  0.1260  0.3266
13057TIP3    H160662   5.377   0.483  13.502 -0.3487  0.5608  1.2025
13057TIP3    H260663   5.435   0.542  13.375  1.2407 -1.3583  0.9706
13058TIP3   OH260664   0.321   1.646  14.466 -0.3493 -0.0160 -0.7405
13058TIP3    H160665   0.401   1.657  14.414 -0.3913 -1.9847 -1.2982
13058TIP3    H260666   0.250   1.654  14.403 -0.6333  1.8179 -0.2300
13059TIP3   OH260667   3.813   4.082  15.873  0.5088  0.2248  0.3597
13059TIP3    H160668   3.815   3.986  15.871 -1.1535  0.1547 -1.7662
13059TIP3    H260669   3.726   4.102  15.908  0.4836  0.9353 -0.1116
13060TIP3   OH260670   1.793   5.789  10.908 -0.3830  0.4407  0.3019
13060TIP3    H160671   1.810   5.808  10.816 -1.2447  0.9757  0.2462
13060TIP3    H260672   1.879   5.793  10.950  0.2874 -1.4964 -0.7542
13061TIP3   OH260673   5.068   4.169   0.240  0.0195  0.7692 -0.0092
13061TIP3    H160674   5.128   4.175   0.314  1.9747  0.9474 -1.5296
13061TIP3    H260675   5.070   4.077   0.214 -4.1851 -0.4229  2.7799
13062TIP3   OH260676   4.436   0.047  16.046  0.7040 -0.7881 -0.0758
13062TIP3    H160677   4.389   0.114  15.996 -0.3010 -1.3328  0.1066
13062TIP3    H260678   4.434  -0.031  15.990  0.3628 -1.1458  0.4239
13063TIP3   OH260679   4.566   1.512   3.288  0.2835 -0.0708  0.3566
13063TIP3    H160680   4.498   1.577   3.306 -0.3995 -0.3362 -1.0492
13063TIP3    H260681   4.570   1.458   3.367 -0.1828  0.7694  0.9708
13064TIP3   OH260682   1.749   0.273   1.246  0.0417  0.2556 -0.1532
13064TIP3    H160683   1.720   0.364   1.245  1.8626  1.0146 -4.4108
13064TIP3    H260684   1.842   0.278   1.269  0.2311 -0.4591 -0.7265
13065TIP3   OH260685   4.798   1.533   0.480 -0.2348 -0.2373 -0.3240
13065TIP3    H160686   4.736   1.516   0.409 -1.5527 -1.7002  1.0687
13065TIP3    H260687   4.801   1.628   0.488 -1.7189 -0.1089 -0.9697
13066TIP3   OH260688   3.573   5.686   5.122 -0.9012 -0.2850 -1.0047
13066TIP3    H160689   3.564   5.640   5.206 -0.3583 -2.1740 -1.9263
13066TIP3    H260690   3.662   5.720   5.123 -0.1809 -2.0153 -1.5651
13067TIP3   OH260691   0.666   4.276   6.245  0.4461 -0.4979 -0.2200
13067TIP3    H160692   0.680   4.353   6.300  0.4609 -0.9001  0.3595
13067TIP3    H260693   0.571   4.270   6.236  0.3907 -0.9734  0.5757
13068TIP3   OH260694   4.199   1.858  13.573 -0.5374 -0.0555  0.0899
13068TIP3    H160695   4.179   1.779  13.522  1.4218 -0.9673  0.6320
13068TIP3    H260696   4.164   1.930  13.520 -0.5714 -1.1403 -1.4315
13069TIP3   OH260697   6.153   0.339   0.183 -0.5167 -1.0109 -0.1090
13069TIP3    H160698   6.225   0.402   0.183 -0.9761 -0.4650 -0.2885
13069TIP3    H260699   6.163   0.291   0.265 -2.0945  1.6362  1.8314
13070TIP3   OH260700   3.664   4.293  11.521 -0.1655  0.0192  0.0793
13070TIP3    H160701   3.662   4.358  11.591 -0.7181  0.8875 -0.7121
13070TIP3    H260702   3.750   4.303  11.480  0.2218 -0.6037  0.7260
13071TIP3   OH260703   4.014   5.349   3.919  0.4741  0.5317  0.4511
13071TIP3    H160704   3.985   5.270   3.873 -0.0260  1.1045 -0.2404
13071TIP3    H260705   3.953   5.417   3.890  1.0687  1.2363  0.8242
13072TIP3   OH260706   0.941   4.459  14.635  0.0674  0.4395 -0.1339
13072TIP3    H160707   1.033   4.439  14.619  0.0466 -1.3079  1.6095
13072TIP3    H260708   0.941   4.510  14.716 -0.5720 -1.5156  1.1794
13073TIP3   OH260709   4.087   0.410   2.067 -0.8037  0.0843  0.0046
13073TIP3    H160710   4.138   0.338   2.029 -0.6462  0.2848 -0.1619
13073TIP3    H260711   4.130   0.430   2.150 -1.8729 -1.1954  0.9167
13074TIP3   OH260712   2.000   0.805   0.793 -0.1092 -0.1523  0.2880
13074TIP3    H160713   1.932   0.867   0.766 -0.6570 -0.1655  1.5647
13074TIP3    H260714   2.082   0.851   0.774 -0.5029  1.0995  1.4608
13075TIP3   OH260715   2.496   1.942   3.633  0.5127  0.3219 -0.2539
13075TIP3    H160716   2.415   1.935   3.684  1.5355  0.0336  1.4039
13075TIP3    H260717   2.565   1.945   3.698  1.8576  0.6367 -1.6346
13076TIP3   OH260718   6.469   2.469   4.613  0.2045  0.0377  0.3686
13076TIP3    H160719   6.474   2.558   4.578 -1.5825  0.2370  0.5387
13076TIP3    H260720   6.380   2.461   4.647  0.4393 -1.7067  0.6914
13077TIP3   OH260721   3.642   4.145   4.719  0.1488  0.3552  0.0877
13077TIP3    H160722   3.549   4.124   4.734  0.3523 -0.9717 -0.4070
13077TIP3    H260723   3.640   4.215   4.653 -0.5495  2.2041  1.9288
13078TIP3   OH260724   5.172   6.540  16.763 -0.4278 -0.3976  0.8462
13078TIP3    H160725   5.097   6.493  16.728 -0.3938  1.2454 -1.7181
13078TIP3    H260726   5.135   6.623  16.795 -0.0534 -0.7375  2.2191
13079TIP3   OH260727   3.937   2.071  14.693 -0.5972  0.1805 -0.1630
13079TIP3    H160728   3.925   1.976  14.682 -0.0493 -0.0149  0.8070
13079TIP3    H260729   4.010   2.093  14.634  0.3071 -0.2956  0.7526
13080TIP3   OH260730   1.834   3.479  11.085  0.1979 -0.4166  0.8424
13080TIP3    H160731   1.783   3.557  11.104  0.3525 -0.5034  1.6556
13080TIP3    H260732   1.802   3.449  11.000 -0.8888 -0.3042  1.2016
13081TIP3   OH260733   3.222   1.582  15.532  0.1976  0.0914  0.1707
13081TIP3    H160734   3.244   1.491  15.512  1.0127  0.4414 -0.5625
13081TIP3    H260735   3.191   1.579  15.623  1.2571 -0.7628  0.5311
13082TIP3   OH260736   3.456   0.893  11.626 -0.0497  0.2870  0.1718
13082TIP3    H160737   3.441   0.875  11.719  1.4323  1.6141  0.7289
13082TIP3    H260738   3.372   0.925  11.594 -0.8942 -1.2590  0.7378
13083TIP3   OH260739   0.305   1.683   5.705  0.2309 -0.1672  0.0138
13083TIP3    H160740   0.324   1.669   5.612  2.8202 -1.0728  0.6017
13083TIP3    H260741   0.318   1.597   5.745  3.5951  1.0329  1.8261
13084TIP3   OH260742   2.964   3.556   2.722 -0.0878 -0.0141 -0.5993
13084TIP3    H160743   2.874   3.527   2.737  0.0126  0.3260  0.7444
13084TIP3    H260744   2.998   3.494   2.657 -1.0782 -0.5563 -0.6200
13085TIP3   OH260745   1.215   2.298  12.257 -0.7509  0.1413  0.5013
13085TIP3    H160746   1.287   2.236  12.260  1.2194  2.1681 -1.2595
13085TIP3    H260747   1.156   2.263  12.191 -0.1245 -0.2990  0.1640
13086TIP3   OH260748   6.330   3.767  12.562 -0.3026  0.2820 -0.1897
13086TIP3    H160749   6.238   3.761  12.537 -0.5744 -1.3107  1.0194
13086TIP3    H260750   6.377   3.715  12.497 -0.4698 -0.2345  0.0973
13087TIP3   OH260751   6.459   2.460   0.671 -0.1917  0.1386  0.5417
13087TIP3    H160752   6.468   2.377   0.719  0.5085  0.5185  1.0834
13087TIP3    H260753   6.536   2.510   0.696 -0.1148  0.5769 -0.5445
13088TIP3   OH260754   5.892   6.610  13.383 -0.1581  0.5066  0.3974
13088TIP3    H160755   5.827   6.656  13.436 -1.6927 -2.3606  1.2257
13088TIP3    H260756   5.850   6.603  13.297 -0.0844  0.3392  0.3762
13089TIP3   OH260757   0.583   2.795   6.399 -0.1480 -0.5251  0.0266
13089TIP3    H160758   0.583   2.707   6.363 -0.8890 -0.7666  0.5818
13089TIP3    H260759   0.629   2.786   6.483  0.1648 -0.2870 -0.1156
13090TIP3   OH260760   2.714   3.860   2.710 -0.2857 -0.1839  0.1322
13090TIP3    H160761   2.787   3.895   2.761  0.0736  2.7040 -2.1003
13090TIP3    H260762   2.744   3.863   2.619 -2.4711 -0.8509 -0.6753
13091TIP3   OH260763   1.708   0.982   5.855  0.6354 -0.0154 -0.1332
13091TIP3    H160764   1.800   0.963   5.837  0.5775 -0.2566 -0.1782
13091TIP3    H260765   1.666   0.981   5.769  0.5378 -0.1989 -0.0843
13092TIP3   OH260766   4.839   0.853  11.206  0.0121 -0.2848  0.1764
13092TIP3    H160767   4.930   0.836  11.181  0.4322  1.5935  0.2981
13092TIP3    H260768   4.820   0.941  11.171 -1.7839 -0.6532  0.0949
13093TIP3   OH260769   3.944   4.837   5.517 -0.0328  0.2598 -0.1719
13093TIP3    H160770   3.907   4.877   5.438 -2.3389 -0.4015  0.4813
13093TIP3    H260771   4.037   4.857   5.513 -0.2484  1.1110 -2.5343
13094TIP3   OH260772   0.313   3.453  16.424  0.1890  0.1269  0.1324
13094TIP3    H160773   0.238   3.413  16.380 -0.3501  1.8453 -0.6015
13094TIP3    H260774   0.383   3.388  16.416 -0.7657 -0.8505 -0.5834
13095TIP3   OH260775   5.047   6.713  14.614 -0.1892  0.3838  0.1519
13095TIP3    H160776   5.117   6.659  14.649 -0.9923 -1.0520 -0.3565
13095TIP3    H260777   5.086   6.758  14.539  0.6658  1.0516  0.9666
13096TIP3   OH260778   4.966   2.265  16.885 -0.3199  0.2311 -0.0195
13096TIP3    H160779   4.909   2.317  16.942  0.5225 -0.2693  1.3547
13096TIP3    H260780   5.025   2.329  16.845 -1.5013  0.6903 -1.0628
13097TIP3   OH260781   4.324   3.033   1.786  0.0129  0.4826  0.1839
13097TIP3    H160782   4.388   3.082   1.735  0.7473 -0.0014  0.6388
13097TIP3    H260783   4.258   3.005   1.722  1.3579 -0.8655 -0.6686
13098TIP3   OH260784   4.766   3.640   5.088  0.0454 -0.2785  0.4570
13098TIP3    H160785   4.838   3.697   5.115 -0.0181  0.2167 -0.3829
13098TIP3    H260786   4.798   3.551   5.105  0.5988 -0.0346  0.6988
13099TIP3   OH260787   2.961   4.581   0.425  0.2378  0.1540  0.3358
13099TIP3    H160788   2.921   4.661   0.392 -1.1323 -1.1693 -1.4169
13099TIP3    H260789   2.892   4.540   0.478  0.6303 -0.2765  0.5190
13100TIP3   OH260790   0.606   4.447  12.155 -0.4132 -0.6047 -0.1900
13100TIP3    H160791   0.651   4.449  12.071 -0.3165  1.6712 -0.1595
13100TIP3    H260792   0.658   4.504  12.211 -1.1268 -1.1439  1.0594
13101TIP3   OH260793   5.678   3.976   3.423 -0.1748  1.0107  0.0445
13101TIP3    H160794   5.724   3.965   3.340  0.1771  1.0686  0.2302
13101TIP3    H260795   5.595   3.930   3.410  0.6249 -0.5956  0.2833
13102TIP3   OH260796   2.124   5.521  17.135  0.1303 -0.2881 -0.8698
13102TIP3    H160797   2.052   5.491  17.079  0.7169 -0.8229 -1.3534
13102TIP3    H260798   2.150   5.443  17.183 -0.4604  0.1950  0.2893
13103TIP3   OH260799   6.790   4.838   6.095  0.5699 -0.2742  0.8531
13103TIP3    H160800   6.855   4.902   6.066  2.0204 -2.2469 -0.4998
13103TIP3    H260801   6.842   4.767   6.133 -0.9448 -0.9994  1.6566
13104TIP3   OH260802   0.554   1.209   1.811  0.4841  0.1794  0.3612
13104TIP3    H160803   0.556   1.137   1.874  2.5299 -0.1851 -0.0485
13104TIP3    H260804   0.547   1.288   1.864 -0.4354 -0.2471  0.8893
13105TIP3   OH260805   4.958   3.629   2.622  0.3961  0.3457  0.1358
13105TIP3    H160806   4.969   3.569   2.548  0.5770 -1.0265  1.2237
13105TIP3    H260807   4.933   3.572   2.695  0.8318  1.5708  1.2792
13106TIP3   OH260808   5.391   0.577  17.135  0.1320  0.0633 -0.1780
13106TIP3    H160809   5.474   0.625  17.130  0.9774 -1.2389  0.6670
13106TIP3    H260810   5.344   0.619  17.207 -0.4976  1.5841 -1.4289
13107TIP3   OH260811   0.782   3.601   5.616  0.8866 -0.2235  0.0848
13107TIP3    H160812   0.753   3.519   5.575  0.5777 -0.1400  0.1408
13107TIP3    H260813   0.735   3.605   5.699 -1.4538  1.4955 -1.2024
13108TIP3   OH260814   2.873   4.127   3.945  0.3444  0.1617 -0.2317
13108TIP3    H160815   2.854   4.034   3.934  2.1161 -0.6775  2.6080
13108TIP3    H260816   2.943   4.145   3.882  0.4092 -0.6138 -0.3932
13109TIP3   OH260817   3.912   1.381   2.582  0.0855  0.0187  0.4278
13109TIP3    H160818   3.850   1.329   2.531  0.6144 -0.6820  0.4978
13109TIP3    H260819   3.856   1.434   2.640 -0.4442 -1.9215  1.7939
13110TIP3   OH260820   5.137   1.580   2.178  0.5718  0.0086 -0.5044
13110TIP3    H160821   5.144   1.615   2.267  2.2174 -0.6763 -0.3365
13110TIP3    H260822   5.128   1.657   2.122  3.4561  0.7655 -0.0941
13111TIP3   OH260823   4.416   3.239   0.127 -0.5233 -0.0146  0.0515
13111TIP3    H160824   4.479   3.292   0.177 -0.1159  0.3775 -0.8493
13111TIP3    H260825   4.394   3.167   0.185 -0.5925  0.7967  1.0611
13112TIP3   OH260826   2.972   3.975  13.898 -0.1635  0.1328 -0.4309
13112TIP3    H160827   3.054   3.981  13.849  0.7272  0.4921  1.0646
13112TIP3    H260828   2.915   4.040  13.857  0.6824  0.6854 -0.7463
13113TIP3   OH260829   0.594   3.931   3.985 -0.1519 -0.0098 -0.5532
13113TIP3    H160830   0.612   3.869   4.056  0.2478  0.2972 -0.3816
13113TIP3    H260831   0.532   3.885   3.928  2.2377 -1.7377 -1.9539
13114TIP3   OH260832   2.816   4.067   1.419  0.2327 -0.0124 -0.2459
13114TIP3    H160833   2.753   4.096   1.486  0.5810  0.3941 -0.0887
13114TIP3    H260834   2.896   4.115   1.439  0.1923  0.5158 -1.2672
13115TIP3   OH260835   3.693   3.100  11.355 -0.2732 -0.5735 -0.4345
13115TIP3    H160836   3.785   3.126  11.360 -0.5562  0.2617  0.9770
13115TIP3    H260837   3.658   3.118  11.443 -2.5297  2.0247 -1.7236
13116TIP3   OH260838   4.404   0.375   3.914  0.0948 -0.2127 -0.2519
13116TIP3    H160839   4.431   0.390   3.824 -0.8720  2.9221 -0.1391
13116TIP3    H260840   4.309   0.365   3.910 -0.0484  0.6879  0.4496
13117TIP3   OH260841   6.218   4.888   4.980  0.0432  0.1675  0.8906
13117TIP3    H160842   6.244   4.797   4.967 -0.1089  0.1385  0.7853
13117TIP3    H260843   6.123   4.885   4.994 -0.0328  0.3509  0.4425
13118TIP3   OH260844   6.439   4.130  13.581 -0.3779 -0.2722  0.6683
13118TIP3    H160845   6.455   4.168  13.668 -0.4909 -0.3200  0.7104
13118TIP3    H260846   6.511   4.069  13.568  0.9847  1.4510 -0.2970
13119TIP3   OH260847   6.556   4.257  16.310  0.0210 -0.5201  0.1395
13119TIP3    H160848   6.647   4.244  16.335 -0.0202  3.0661  2.7763
13119TIP3    H260849   6.506   4.203  16.371  0.2204 -3.3486 -1.9853
13120TIP3   OH260850   4.803   3.847  14.456  0.1265  0.1649 -0.5218
13120TIP3    H160851   4.829   3.866  14.546 -1.2331  1.3296 -0.3444
13120TIP3    H260852   4.747   3.920  14.431 -1.5777 -1.3657 -1.4409
13121TIP3   OH260853   3.842   4.048  10.590 -0.0232  0.2416 -0.9374
13121TIP3    H160854   3.849   4.141  10.568  1.9757  0.1612 -0.7720
13121TIP3    H260855   3.774   4.045  10.658 -1.0195  1.3928 -1.8406
13122TIP3   OH260856   6.572   3.204   2.797  0.8432 -0.5318  0.1878
13122TIP3    H160857   6.577   3.112   2.771  0.4098 -0.3554 -0.5540
13122TIP3    H260858   6.661   3.228   2.822  1.0717 -0.9920 -0.1828
13123TIP3   OH260859   3.571   0.040  12.908 -0.5356  0.0606 -0.0580
13123TIP3    H160860   3.632   0.073  12.843  0.0573 -1.1503 -0.1507
13123TIP3    H260861   3.547   0.117  12.960 -1.1217  1.0816 -1.7596
13124TIP3   OH260862   0.266   4.052  12.826  0.4771 -0.4524 -0.3943
13124TIP3    H160863   0.256   4.106  12.905 -0.2292 -2.2837  0.8238
13124TIP3    H260864   0.179   4.051  12.787  0.9528  0.9524 -1.6202
13125TIP3   OH260865   0.955   3.137   5.701  0.1929  0.2922 -0.2585
13125TIP3    H160866   0.958   3.164   5.609 -2.2616 -0.6553 -0.7003
13125TIP3    H260867   0.931   3.217   5.749 -1.1545  0.2588 -0.8201
13126TIP3   OH260868   5.896   0.140  13.370 -0.2993  0.6323  0.4273
13126TIP3    H160869   5.824   0.201  13.383 -0.9090 -0.1585  0.8077
13126TIP3    H260870   5.889   0.113  13.279 -2.2345 -1.5665  1.1188
13127TIP3   OH260871   5.039   0.297   2.332  0.8449 -0.4723 -0.1129
13127TIP3    H160872   5.093   0.360   2.379 -0.0647  1.1088 -1.1103
13127TIP3    H260873   4.960   0.346   2.308  0.7614 -1.5470 -2.2274
13128TIP3   OH260874   1.009   6.693   1.149 -0.1055  0.0034 -0.5006
13128TIP3    H160875   1.052   6.671   1.232 -1.6521  2.5154  1.1135
13128TIP3    H260876   0.945   6.623   1.136 -0.4514  0.0126  0.9434
13129TIP3   OH260877   0.710   0.821   0.467 -0.2801  0.2322  0.2357
13129TIP3    H160878   0.692   0.880   0.394  0.4881  0.5646  0.2984
13129TIP3    H260879   0.636   0.761   0.469 -1.8329  2.0590  1.0379
13130TIP3   OH260880   5.414   3.293  12.729 -0.4802  0.0544 -0.7181
13130TIP3    H160881   5.367   3.213  12.706  0.2095 -0.2569 -1.0677
13130TIP3    H260882   5.506   3.270  12.720 -0.2744  0.8610 -0.7202
13131TIP3   OH260883   0.886   6.201  11.236 -0.4234  0.2911  0.0719
13131TIP3    H160884   0.868   6.285  11.279 -0.7461  0.2816 -0.0366
13131TIP3    H260885   0.885   6.222  11.142  0.7693  0.4085  0.0671
13132TIP3   OH260886   4.181   6.787  14.545  0.0006 -0.1645  1.4134
13132TIP3    H160887   4.183   6.872  14.588  0.2088  0.9759 -0.7043
13132TIP3    H260888   4.140   6.804  14.460  3.5008 -1.3077 -0.7027
13133TIP3   OH260889   5.900   1.281   1.382 -0.4704  0.3867 -0.0418
13133TIP3    H160890   5.906   1.228   1.461 -2.0838 -0.3492 -0.3642
13133TIP3    H260891   5.865   1.221   1.316 -0.5313  1.3666 -0.9243
13134TIP3   OH260892   3.685   2.243  11.965  1.0210 -0.2913  0.2822
13134TIP3    H160893   3.780   2.244  11.969  1.0430  2.0621  0.8502
13134TIP3    H260894   3.659   2.330  11.995 -1.4091 -1.6150  2.4153
13135TIP3   OH260895   3.397   0.377  10.461  0.0042  0.1877  0.2152
13135TIP3    H160896   3.413   0.416  10.375 -0.0755  0.2492  0.2283
13135TIP3    H260897   3.484   0.369  10.500  0.1327 -0.6523 -0.2181
13136TIP3   OH260898   3.978   5.843   0.277  0.4166  0.1110  0.6617
13136TIP3    H160899   4.000   5.854   0.369 -0.6803  2.5352  0.7313
13136TIP3    H260900   3.901   5.900   0.264  0.1105 -0.7066 -1.5806
13137TIP3   OH260901   2.606   0.401   2.376  0.4565  0.0500 -0.0502
13137TIP3    H160902   2.596   0.450   2.458 -2.7662 -2.0476  0.9804
13137TIP3    H260903   2.530   0.426   2.324 -1.9337 -4.3256  0.9380
13138TIP3   OH260904   1.629   2.513   2.161  0.5168  0.7832  0.4638
13138TIP3    H160905   1.535   2.527   2.170  0.1746  0.3760 -1.7500
13138TIP3    H260906   1.668   2.598   2.180 -0.5295  1.6592 -1.0673
13139TIP3   OH260907   3.436   3.702   5.728  0.3167 -0.1628 -0.3587
13139TIP3    H160908   3.493   3.734   5.658  0.5952  0.0940 -0.0199
13139TIP3    H260909   3.348   3.730   5.702  0.7845  3.0632  1.0663
13140TIP3   OH260910   5.511   3.747  15.726 -0.3799  0.2861  0.5623
13140TIP3    H160911   5.433   3.706  15.690 -0.8375  1.4875  0.1530
13140TIP3    H260912   5.558   3.781  15.651  0.2012  0.1687  0.8633
13141TIP3   OH260913   0.246   2.159   4.869 -0.1484  0.3882 -0.5139
13141TIP3    H160914   0.225   2.068   4.846  0.3034  0.3131 -0.6347
13141TIP3    H260915   0.319   2.182   4.811  0.2050  0.5967  0.0124
13142TIP3   OH260916   5.100   5.436  13.709 -1.1894  0.0384 -0.4887
13142TIP3    H160917   5.181   5.485  13.698 -0.4449 -1.1607 -0.6052
13142TIP3    H260918   5.125   5.345  13.688 -2.6465 -0.2876 -0.8929
13143TIP3   OH260919   5.915   0.808   2.118 -0.3800 -0.0430 -0.3579
13143TIP3    H160920   5.992   0.751   2.120 -0.5269 -0.2643  2.4562
13143TIP3    H260921   5.846   0.753   2.082  0.2284 -0.5611 -0.7664
13144TIP3   OH260922   5.613   2.611   0.690 -0.0816  0.2051  0.2527
13144TIP3    H160923   5.703   2.609   0.659  0.4606  0.7883  1.7001
13144TIP3    H260924   5.566   2.552   0.631  1.3187 -0.4511 -0.2514
13145TIP3   OH260925   1.659   2.964  14.365 -0.0893 -0.3779  0.0935
13145TIP3    H160926   1.695   2.905  14.431  0.2876  0.1805  0.3940
13145TIP3    H260927   1.681   2.922  14.281 -1.6852 -1.7539  0.2964
13146TIP3   OH260928   1.966   5.336   5.095 -0.1808 -0.4392 -0.2950
13146TIP3    H160929   2.005   5.341   5.183 -0.0046 -0.2577 -0.3842
13146TIP3    H260930   2.027   5.383   5.039  0.3227 -1.5809 -0.7315
13147TIP3   OH260931   2.429   3.005   5.254 -0.1402  0.0101 -0.1589
13147TIP3    H160932   2.375   3.078   5.284  1.9792  1.9765 -0.8066
13147TIP3    H260933   2.388   2.977   5.173 -1.2337  0.2094  0.3146
13148TIP3   OH260934   4.060   5.210   0.640 -0.3482  0.1665 -0.0902
13148TIP3    H160935   4.058   5.256   0.724 -0.1040  0.6909 -0.3636
13148TIP3    H260936   4.153   5.198   0.621 -0.3982  0.2363 -0.3847
13149TIP3   OH260937   1.893   6.318  10.853  0.3016 -0.9706  0.0879
13149TIP3    H160938   1.983   6.301  10.825 -0.0236 -0.5712 -1.2811
13149TIP3    H260939   1.847   6.235  10.837 -0.3076 -0.2396 -2.4986
13150TIP3   OH260940   2.315   0.767  15.450  0.1157 -0.3075  0.2267
13150TIP3    H160941   2.276   0.843  15.406 -0.0217  0.5742  1.7904
13150TIP3    H260942   2.251   0.744  15.518  2.3424  1.4741  3.1775
13151TIP3   OH260943   1.885   4.496   4.433 -0.2010 -0.0127 -0.7181
13151TIP3    H160944   1.876   4.548   4.512 -1.1301  0.5654 -1.1949
13151TIP3    H260945   1.915   4.410   4.464 -1.6016 -0.1421  0.3629
13152TIP3   OH260946   4.255   1.878  16.453 -0.1030  0.0586  0.2430
13152TIP3    H160947   4.310   1.803  16.476  1.0674  0.1705 -1.8404
13152TIP3    H260948   4.180   1.840  16.408 -0.6933  0.0142  1.2648
13153TIP3   OH260949   6.542   6.596   2.986 -0.4796  0.2949 -0.0720
13153TIP3    H160950   6.561   6.632   3.073  1.6420 -0.3700 -0.2258
13153TIP3    H260951   6.466   6.647   2.956  0.7488  2.8186  0.8181
13154TIP3   OH260952   0.093   2.464   3.750  0.0142  0.0826  0.7640
13154TIP3    H160953   0.155   2.395   3.773 -1.7153 -1.3701  1.2345
13154TIP3    H260954   0.025   2.460   3.817 -1.6599  0.2281 -0.8312
13155TIP3   OH260955   2.821   2.819  12.280  0.0908 -0.0481  0.3607
13155TIP3    H160956   2.861   2.765  12.211  0.4775 -0.3085  0.7763
13155TIP3    H260957   2.893   2.874  12.311 -0.0580 -0.0038  0.6247
13156TIP3   OH260958   6.643   6.396  14.122  0.0850  0.0309 -0.1146
13156TIP3    H160959   6.606   6.483  14.109 -0.2469  0.2695  2.0396
13156TIP3    H260960   6.651   6.388  14.217  1.5821 -1.6880 -0.3349
13157TIP3   OH260961   3.741   1.312  13.983  0.2860  0.0983  0.1936
13157TIP3    H160962   3.736   1.235  14.040 -1.1774  0.4222  0.5482
13157TIP3    H260963   3.687   1.378  14.027  0.6704  0.9890 -0.6262
13158TIP3   OH260964   2.397   4.227  12.118  0.1989  0.4363  0.0832
13158TIP3    H160965   2.444   4.160  12.069  2.6383  3.2402 -1.7767
13158TIP3    H260966   2.316   4.240  12.069  0.1928 -0.3752 -0.1427
13159TIP3   OH260967   1.676   5.023   1.438 -0.0622  0.5524 -0.0561
13159TIP3    H160968   1.674   5.054   1.347  1.9313  1.0441  0.0229
13159TIP3    H260969   1.705   4.932   1.431 -0.1339  0.5191  0.0791
13160TIP3   OH260970   5.764   5.772   4.065  0.2575 -0.3438 -0.3715
13160TIP3    H160971   5.787   5.768   4.158 -0.2918 -0.8530 -0.2509
13160TIP3    H260972   5.669   5.780   4.063  0.4016  1.5970 -0.8779
13161TIP3   OH260973   6.257   0.023  16.245 -0.0926  0.4151  0.3192
13161TIP3    H160974   6.277  -0.042  16.313 -0.1756 -1.2421 -1.1901
13161TIP3    H260975   6.166   0.006  16.222 -0.3542  1.5942  0.4108
13162TIP3   OH260976   1.493   3.077  12.358 -0.3502 -0.9012 -1.0800
13162TIP3    H160977   1.407   3.088  12.398 -0.1983 -0.9143 -0.7477
13162TIP3    H260978   1.552   3.061  12.432 -0.3129 -2.4337 -1.4174
13163TIP3   OH260979   6.046   4.647  15.002 -0.2673  0.5814  0.2142
13163TIP3    H160980   6.119   4.647  15.064 -1.2064  2.9276  1.4486
13163TIP3    H260981   6.015   4.738  15.002 -1.1314  0.3826 -2.7671
13164TIP3   OH260982   3.957   3.138  13.438  0.2106 -0.4947 -0.0123
13164TIP3    H160983   3.985   3.213  13.386  2.1154 -1.1146  0.0083
13164TIP3    H260984   3.862   3.134  13.428  0.2502  1.0256 -1.1979
13165TIP3   OH260985   5.030   6.286  14.180  0.5728  0.4601 -0.4631
13165TIP3    H160986   5.103   6.233  14.148  1.1308  1.5043 -0.9753
13165TIP3    H260987   4.975   6.225  14.230 -1.7315 -1.9314 -5.3082
13166TIP3   OH260988   4.146   2.480  15.178 -0.8372  0.2824  0.3875
13166TIP3    H160989   4.178   2.534  15.251  1.0611 -2.1846  1.5113
13166TIP3    H260990   4.102   2.406  15.219 -1.0699 -0.4121 -1.0334
13167TIP3   OH260991   5.154   1.090   4.253 -0.6300 -0.0145 -0.6245
13167TIP3    H160992   5.235   1.059   4.213 -0.7682 -1.4936  0.1814
13167TIP3    H260993   5.155   1.055   4.342 -1.1024  1.8501  0.1753
13168TIP3   OH260994   1.550   0.885  16.603  0.5586  0.2889 -0.2031
13168TIP3    H160995   1.572   0.970  16.640  0.1782  0.7678 -1.0345
13168TIP3    H260996   1.463   0.897  16.565  0.9432 -0.1367 -1.2881
13169TIP3   OH260997   4.347   5.003  15.375 -0.2340 -0.2075  0.1067
13169TIP3    H160998   4.361   5.047  15.291  0.4595  1.7033  1.1644
13169TIP3    H260999   4.408   4.928  15.374  2.2529  1.6880  0.1793
13170TIP3   OH261000   6.254   1.768  17.021  0.0615 -0.2290  0.0112
13170TIP3    H161001   6.306   1.835  16.977 -0.1739 -0.5160 -0.7184
13170TIP3    H261002   6.245   1.800  17.111  1.2372 -0.0234  0.0801
13171TIP3   OH261003   4.083   6.026   3.880  0.3849 -0.2275  0.6769
13171TIP3    H161004   4.056   5.935   3.870 -0.0630 -0.0141 -0.1209
13171TIP3    H261005   4.007   6.070   3.918 -0.4348  0.3569 -1.4952
13172TIP3   OH261006   0.661   4.583  13.377 -0.0311  0.0534 -0.1339
13172TIP3    H161007   0.684   4.668  13.414 -0.7169  0.4757 -0.6654
13172TIP3    H261008   0.743   4.533  13.380  0.1540  0.4015  1.0363
13173TIP3   OH261009   4.668   0.548   1.526  0.5777  0.1176 -0.5406
13173TIP3    H161010   4.626   0.516   1.605  1.8391  2.3805  1.1557
13173TIP3    H261011   4.610   0.521   1.455 -0.0721 -2.8912  0.9942
13174TIP3   OH261012   6.071   1.325  16.258 -0.0808  0.1730 -0.0076
13174TIP3    H161013   6.076   1.297  16.349  1.0424  1.0043  0.2151
13174TIP3    H261014   6.098   1.417  16.260 -0.5255  0.3457 -1.1192
13175TIP3   OH261015   6.296   4.445  14.425 -0.2404  0.0163 -0.4467
13175TIP3    H161016   6.374   4.500  14.433 -1.7999  2.2474  0.4277
13175TIP3    H261017   6.269   4.455  14.334 -0.0699  0.0492 -0.4938
13176TIP3   OH261018   4.201   1.358   5.456  0.0203 -0.4394 -0.0818
13176TIP3    H161019   4.211   1.320   5.543 -1.9251 -0.7538  0.0489
13176TIP3    H261020   4.154   1.440   5.471  0.8651  0.1782 -0.7238
13177TIP3   OH261021   5.048   2.827   4.640  0.5213  0.0297 -0.5670
13177TIP3    H161022   5.090   2.913   4.638  1.3875 -0.3559  0.4359
13177TIP3    H261023   4.961   2.844   4.676  0.4006  0.5845 -1.0852
13178TIP3   OH261024   1.182   5.866   2.201 -0.3982 -0.2491  0.9874
13178TIP3    H161025   1.115   5.893   2.138 -0.1815 -1.5284  0.1574
13178TIP3    H261026   1.206   5.946   2.247 -0.7552  0.6765 -0.3772
13179TIP3   OH261027   5.989   0.432  12.841 -0.3864  0.0544 -0.3699
13179TIP3    H161028   5.927   0.472  12.780 -2.2274 -0.4896  1.0834
13179TIP3    H261029   6.071   0.480  12.826 -1.8108  2.6133 -0.5063
13180TIP3   OH261030   0.733   1.027  16.934 -0.9307 -0.1674 -0.1523
13180TIP3    H161031   0.713   1.120  16.933 -0.9910  0.0194  3.8901
13180TIP3    H261032   0.825   1.022  16.957 -0.5559 -1.1834 -1.6871
13181TIP3   OH261033   5.542   4.415   2.200  0.2188  0.6645 -0.1869
13181TIP3    H161034   5.531   4.322   2.177  3.5696  0.0011  0.4228
13181TIP3    H261035   5.467   4.434   2.257 -1.3036 -1.2115 -1.4059
13182TIP3   OH261036   1.898   5.063   1.664  0.1713 -0.2051 -0.1735
13182TIP3    H161037   1.881   5.144   1.616  2.0889 -0.5126 -1.4879
13182TIP3    H261038   1.832   5.062   1.734 -1.0977  1.5257 -1.2657
13183TIP3   OH261039   4.406   3.128  11.265 -0.5108 -0.2166 -0.1222
13183TIP3    H161040   4.332   3.183  11.238 -0.1176 -0.3855 -1.6588
13183TIP3    H261041   4.410   3.060  11.197  1.3703  0.0780 -0.3371
13184TIP3   OH261042   1.544   1.456   0.879  0.2319 -0.2631  0.8815
13184TIP3    H161043   1.462   1.427   0.839 -0.0241  0.1252  1.1216
13184TIP3    H261044   1.548   1.411   0.963 -0.5560  0.9618  1.6140
13185TIP3   OH261045   1.314   1.362   2.190  0.0740  0.1957 -0.1205
13185TIP3    H161046   1.380   1.383   2.124 -0.7057 -0.7853 -1.2582
13185TIP3    H261047   1.238   1.335   2.139 -0.4575 -0.8718  1.1909
13186TIP3   OH261048   2.113   6.641   4.369 -0.2398 -0.2002  0.3454
13186TIP3    H161049   2.089   6.703   4.437 -1.4376 -1.4182  1.0734
13186TIP3    H261050   2.069   6.560   4.393 -0.9213 -0.6070 -2.0075
13187TIP3   OH261051   5.983   3.386   3.396 -0.3165 -0.4617 -0.2703
13187TIP3    H161052   5.929   3.364   3.320 -0.6283  2.9076 -1.1688
13187TIP3    H261053   6.072   3.367   3.369 -0.6625 -2.7057 -0.0592
13188TIP3   OH261054   4.475   1.100   0.950 -0.0994 -0.1079 -0.0382
13188TIP3    H161055   4.508   1.190   0.950  0.7919 -0.4121 -0.7862
13188TIP3    H261056   4.387   1.106   0.912  0.3765  0.3327 -1.1215
13189TIP3   OH261057   6.100   0.873  16.672  1.0404  0.5568  0.7163
13189TIP3    H161058   6.033   0.870  16.740  0.6520 -0.1926  0.3099
13189TIP3    H261059   6.058   0.916  16.598  0.5089 -1.1665 -0.0397
13190TIP3   OH261060   4.239   6.008  16.881  0.0763 -0.4016 -0.8952
13190TIP3    H161061   4.333   5.995  16.873  0.3755  0.9589  0.0787
13190TIP3    H261062   4.225   6.022  16.975 -0.8340  1.2787 -1.2515
13191TIP3   OH261063   6.060   1.926   2.075 -0.3985 -0.8084 -0.2158
13191TIP3    H161064   6.083   1.876   2.153  1.4752  0.1288 -0.1060
13191TIP3    H261065   6.135   1.984   2.061 -2.1689  1.5366 -0.6917
13192TIP3   OH261066   0.465   4.089   2.216 -0.1122 -0.9248 -0.2557
13192TIP3    H161067   0.406   4.127   2.281 -0.2556 -0.3791 -0.7023
13192TIP3    H261068   0.542   4.147   2.216  0.2428 -1.3835  0.0076
13193TIP3   OH261069   4.553   1.560   2.519 -0.3530  0.4782  0.0433
13193TIP3    H161070   4.592   1.484   2.477 -0.7512 -0.2484  0.9648
13193TIP3    H261071   4.576   1.634   2.462  0.7608 -0.2002 -0.3974
13194TIP3   OH261072   1.203   5.430  15.749  0.6256 -0.2817  0.1447
13194TIP3    H161073   1.250   5.489  15.808 -0.4865  0.0105  0.7918
13194TIP3    H261074   1.184   5.353  15.803 -0.3382 -0.0437  0.1754
13195TIP3   OH261075   6.568   3.145   4.566 -0.3208 -0.2203 -0.2155
13195TIP3    H161076   6.566   3.063   4.617 -1.0069  0.4976  0.9728
13195TIP3    H261077   6.576   3.116   4.475  2.0527 -1.5351  0.3263
13196TIP3   OH261078   5.058   0.295   5.494  0.2471 -0.1142  0.1691
13196TIP3    H161079   5.019   0.366   5.546 -1.6656 -1.7026  1.0123
13196TIP3    H261080   4.990   0.273   5.430  0.9911 -0.9196 -0.3592
13197TIP3   OH261081   1.920   1.970   1.980  0.5107 -0.7636 -0.4617
13197TIP3    H161082   1.906   2.060   2.009  1.1242 -0.8214  0.0237
13197TIP3    H261083   1.889   1.970   1.889 -0.6129 -0.3723 -0.0994
13198TIP3   OH261084   3.994   6.222   3.309 -0.2564  1.1712  0.7745
13198TIP3    H161085   3.960   6.279   3.378  0.9063  1.9411  0.7431
13198TIP3    H261086   4.071   6.181   3.348 -1.5678 -1.1374  1.1137
13199TIP3   OH261087   1.467   5.981   2.217  0.4980  0.2282 -0.0439
13199TIP3    H161088   1.518   5.971   2.297  0.8256 -1.0193 -0.3717
13199TIP3    H261089   1.440   5.891   2.196  0.3398  0.5515 -1.2719
13200TIP3   OH261090   4.819   4.181  15.609  0.0402  0.1094 -0.2987
13200TIP3    H161091   4.785   4.098  15.643  0.5900 -0.3389 -0.8275
13200TIP3    H261092   4.889   4.156  15.549  0.5216  0.9830 -0.1116
13201TIP3   OH261093   2.701   1.118  11.660 -0.2048  0.1720 -0.0128
13201TIP3    H161094   2.754   1.080  11.730  0.6854  0.2064 -0.6544
13201TIP3    H261095   2.616   1.075  11.669  0.0367 -0.1609  0.7968
13202TIP3   OH261096   6.825   5.843   5.004 -0.4314 -0.1714  0.0245
13202TIP3    H161097   6.867   5.926   4.981 -0.9715 -0.5114 -2.4480
13202TIP3    H261098   6.731   5.862   5.001 -0.5574 -0.8271 -0.5017
13203TIP3   OH261099   0.064   2.697   4.933  0.4279 -0.1136 -0.5349
13203TIP3    H161100   0.141   2.666   4.885  0.1647 -0.5419 -0.6840
13203TIP3    H261101   0.099   2.756   4.999  1.2503 -2.7948  1.5782
13204TIP3   OH261102   4.262   0.620   5.940  0.0756  0.2977  0.4028
13204TIP3    H161103   4.329   0.641   5.875 -0.5069  0.3504 -0.1994
13204TIP3    H261104   4.291   0.663   6.020  1.4513 -0.8183  0.5312
13205TIP3   OH261105   4.383   1.313   5.852  0.5181  0.1789 -0.0376
13205TIP3    H161106   4.456   1.359   5.810  0.7157  2.7770  2.7940
13205TIP3    H261107   4.407   1.308   5.945 -2.3449  0.0804  0.8210
13206TIP3   OH261108   1.373   6.143   2.771  0.2289 -0.3449 -0.1741
13206TIP3    H161109   1.299   6.084   2.759  1.4834 -1.6859 -1.6626
13206TIP3    H261110   1.415   6.146   2.685  1.2585  1.2905  0.3566
13207TIP3   OH261111   2.344   5.680   0.065 -0.2449 -0.7063  0.1737
13207TIP3    H161112   2.298   5.609   0.021  0.5654 -0.4769 -1.1060
13207TIP3    H261113   2.334   5.662   0.158  0.7725 -3.0656 -0.1031
13208TIP3   OH261114   0.325   5.412   5.436  0.0173 -0.1446  0.5685
13208TIP3    H161115   0.246   5.423   5.489 -1.3605  2.5531 -1.7733
13208TIP3    H261116   0.300   5.351   5.367  0.3732 -0.2648  0.5449
13209TIP3   OH261117   5.704   6.516  11.071  0.6093 -0.3419  0.4009
13209TIP3    H161118   5.756   6.525  10.991 -1.4435 -0.5991 -1.0548
13209TIP3    H261119   5.667   6.427  11.065  2.1863 -1.2526  2.8167
13210TIP3   OH261120   3.332   0.579   0.669  0.2263 -0.7157  0.1310
13210TIP3    H161121   3.302   0.613   0.584  1.6231 -0.3610 -0.2505
13210TIP3    H261122   3.256   0.586   0.726 -1.3313 -2.7018 -1.5482
13211TIP3   OH261123   0.405   0.065   0.229  0.3806  0.2368  0.5796
13211TIP3    H161124   0.353   0.044   0.152 -1.5312 -1.2122  2.1482
13211TIP3    H261125   0.416  -0.019   0.275  1.1910  1.0831  2.0240
13212TIP3   OH261126   4.021   0.156   1.722 -0.2473 -0.3436  0.0526
13212TIP3    H161127   4.063   0.186   1.802  0.3179 -0.7701 -0.0771
13212TIP3    H261128   4.036   0.227   1.659  0.2265 -0.4626  0.0271
13213TIP3   OH261129   3.059   4.567   2.083 -0.0543  0.2067  0.3420
13213TIP3    H161130   3.129   4.590   2.022  0.0803  1.5879  0.9809
13213TIP3    H261131   3.037   4.649   2.127 -1.0570 -0.4948  1.2124
13214TIP3   OH261132   4.845   4.103  13.407 -0.0468 -0.4437 -0.2784
13214TIP3    H161133   4.753   4.081  13.392 -0.2267  0.5038 -0.6733
13214TIP3    H261134   4.892   4.061  13.335 -0.3986  0.5240 -1.0992
13215TIP3   OH261135   6.498   0.235   4.999  0.6522 -0.1700  0.0128
13215TIP3    H161136   6.532   0.200   4.917 -1.4259 -0.5103 -0.7658
13215TIP3    H261137   6.571   0.227   5.061  2.0570 -0.5118 -1.6084
13216TIP3   OH261138   5.371   3.786  12.146 -0.3902 -0.0743  0.0817
13216TIP3    H161139   5.345   3.872  12.178 -2.5248 -0.7528  0.3216
13216TIP3    H261140   5.355   3.727  12.219 -1.2821 -1.0099 -0.8259
13217TIP3   OH261141   4.023   5.371   0.291  0.1692 -0.2445 -0.8845
13217TIP3    H161142   4.115   5.363   0.316  0.1467 -1.5331 -1.1175
13217TIP3    H261143   3.975   5.340   0.368 -0.0393 -0.2382 -1.0114
13218TIP3   OH261144   4.192   1.318  11.850 -0.1342 -0.0445 -0.8692
13218TIP3    H161145   4.260   1.382  11.865  0.0804  0.2085 -2.6822
13218TIP3    H261146   4.239   1.239  11.821 -0.4435 -0.8100  0.6136
13219TIP3   OH261147   6.030   3.429   6.005  0.4424  0.6260 -0.0255
13219TIP3    H161148   6.023   3.484   6.083 -1.1776 -0.1751  0.4337
13219TIP3    H261149   5.979   3.351   6.026  1.5819 -0.4649 -1.1765
13220TIP3   OH261150   1.809   1.351  16.862  0.4205  0.1121 -1.1380
13220TIP3    H161151   1.891   1.306  16.840  0.1004 -0.0122 -2.1219
13220TIP3    H261152   1.798   1.416  16.792  0.0876  0.6648 -0.5754
13221TIP3   OH261153   3.900   3.987   1.172 -0.2663 -0.3923 -0.5087
13221TIP3    H161154   3.980   4.022   1.132  0.3029 -0.3753  0.6086
13221TIP3    H261155   3.847   3.957   1.098  0.4140  0.3542 -1.3135
13222TIP3   OH261156   3.971   4.914   0.159 -0.1079 -0.3678 -0.1179
13222TIP3    H161157   3.953   4.944   0.248  0.5439 -0.2553 -0.0161
13222TIP3    H261158   3.939   4.984   0.103 -1.4642 -0.8929 -0.0274
13223TIP3   OH261159   6.369   6.485  17.046  0.2065  0.7777 -0.5474
13223TIP3    H161160   6.329   6.522  17.124 -0.3128 -0.0360 -0.4165
13223TIP3    H261161   6.299   6.485  16.981  0.0213 -0.4834 -0.3714
13224TIP3   OH261162   0.606   0.582   5.635 -0.0716  0.3188  0.3977
13224TIP3    H161163   0.575   0.508   5.687 -1.2030 -0.2289 -0.9654
13224TIP3    H261164   0.541   0.651   5.651  0.2726  0.5710  0.6920
13225TIP3   OH261165   5.311   2.876  11.271 -0.2002  0.3184  0.4376
13225TIP3    H161166   5.289   2.787  11.246  0.8898  0.8468 -2.7369
13225TIP3    H261167   5.386   2.867  11.330  0.1383 -0.8231 -0.1520
13226TIP3   OH261168   1.021   3.193   3.955 -0.0124 -0.5009  0.2520
13226TIP3    H161169   1.013   3.098   3.945 -1.9676 -0.4932  1.3183
13226TIP3    H261170   1.025   3.207   4.049  1.4624  0.4406  0.0860
13227TIP3   OH261171   6.774   4.265  14.933  0.3730 -0.0899 -0.2809
13227TIP3    H161172   6.734   4.289  14.849  1.5554  1.4745 -0.4411
13227TIP3    H261173   6.701   4.268  14.996 -0.7838 -2.4529 -1.3662
13228TIP3   OH261174   3.426   3.257  15.850  0.1382 -0.2446 -0.0778
13228TIP3    H161175   3.444   3.205  15.928  1.9986  1.4019  0.6572
13228TIP3    H261176   3.412   3.192  15.781  1.4901 -1.7383  0.9756
13229TIP3   OH261177   4.125   0.806  17.022  0.2112  0.4097 -0.2478
13229TIP3    H161178   4.186   0.838  17.088  0.0061  2.9294 -1.1807
13229TIP3    H261179   4.130   0.711  17.029  2.8292  0.5456  0.9663
13230TIP3   OH261180   0.649   4.205  16.418  0.3628  0.0276  0.3526
13230TIP3    H161181   0.739   4.238  16.422  0.2880  0.2074  0.6036
13230TIP3    H261182   0.603   4.266  16.360  0.3261  0.1255  0.4822
13231TIP3   OH261183   3.165   2.159   5.834  0.2594 -0.0898 -0.0112
13231TIP3    H161184   3.180   2.078   5.883 -0.0056  0.8201  1.6723
13231TIP3    H261185   3.249   2.205   5.837  0.1396  0.1365 -0.0780
13232TIP3   OH261186   6.466   5.741   3.446  0.2980  0.1662 -0.4013
13232TIP3    H161187   6.393   5.773   3.499  1.3080  0.4249  0.8795
13232TIP3    H261188   6.544   5.760   3.498  1.1201 -2.6302 -0.4442
13233TIP3   OH261189   3.161   2.244  12.095 -0.6861 -0.0984  0.1960
13233TIP3    H161190   3.130   2.153  12.086 -2.0442  0.4375 -0.9593
13233TIP3    H261191   3.189   2.250  12.186  0.5065 -1.9854  0.0144
13234TIP3   OH261192   1.708   2.004   0.631 -0.2806 -0.4715 -0.2071
13234TIP3    H161193   1.735   2.083   0.678 -1.4610 -0.4899  0.5595
13234TIP3    H261194   1.674   2.036   0.548  1.7867 -0.4316 -1.0739
13235TIP3   OH261195   6.575   6.237   5.625  0.6468 -0.4847 -0.3004
13235TIP3    H161196   6.653   6.293   5.623  1.3208 -1.3709  0.1688
13235TIP3    H261197   6.523   6.265   5.550 -0.1201  2.2294  1.0937
13236TIP3   OH261198   0.953   5.970   5.263 -0.6458 -0.5532  0.1885
13236TIP3    H161199   0.906   5.890   5.239 -1.2486 -0.1492 -0.0075
13236TIP3    H261200   0.938   6.028   5.189  0.4426 -0.5278 -0.0204
13237TIP3   OH261201   1.185   0.421   2.063  0.0492 -0.5160  0.2731
13237TIP3    H161202   1.191   0.463   2.149 -0.5276  0.8334 -0.3156
13237TIP3    H261203   1.145   0.336   2.081 -0.8114  0.0650  1.2505
13238TIP3   OH261204   2.989   6.263   5.389  0.0271 -0.1879 -0.1560
13238TIP3    H161205   2.940   6.263   5.307 -0.1916  0.2748 -0.0281
13238TIP3    H261206   2.973   6.176   5.426 -1.4973  0.2684  0.3482
13239TIP3   OH261207   5.239   1.161  16.808  0.4235 -0.1778 -0.7249
13239TIP3    H161208   5.257   1.212  16.728  0.5352 -0.9794 -1.2231
13239TIP3    H261209   5.235   1.070  16.777 -0.1817 -0.4276  0.0860
13240TIP3   OH261210   5.197   2.069  16.112 -0.2114 -0.3009  0.0326
13240TIP3    H161211   5.286   2.041  16.135  0.4451  0.8586 -0.9818
13240TIP3    H261212   5.140   2.006  16.156  1.0929 -0.7368  1.1727
13241TIP3   OH261213   6.676   0.360   0.961  0.2938 -0.1403  0.5393
13241TIP3    H161214   6.585   0.388   0.963  0.3918  0.5005 -1.6288
13241TIP3    H261215   6.679   0.292   0.893  1.5510  0.3148  0.1125
13242TIP3   OH261216   4.062   2.898   4.487 -0.0625  0.2679 -0.4405
13242TIP3    H161217   4.061   2.937   4.400  0.8781 -0.9222 -1.0163
13242TIP3    H261218   4.152   2.910   4.519 -0.7336  1.9375  0.9910
13243TIP3   OH261219   6.837   0.918  14.271  0.1831  0.0669  0.1002
13243TIP3    H161220   6.788   0.966  14.204 -0.7666  2.2064  2.1739
13243TIP3    H261221   6.771   0.864  14.314  0.0816  1.0751  1.2760
13244TIP3   OH261222   5.724   3.501  15.595  0.0045 -0.7710 -0.6272
13244TIP3    H161223   5.808   3.543  15.616 -0.2734 -1.1107  1.4123
13244TIP3    H261224   5.666   3.574  15.572  0.3846 -0.3554 -0.2914
13245TIP3   OH261225   1.490   1.653   5.756 -0.2904  0.2081  0.4239
13245TIP3    H161226   1.552   1.588   5.721 -0.3024  0.6926 -0.5449
13245TIP3    H261227   1.479   1.629   5.848  0.7266 -0.3604  0.4114
13246TIP3   OH261228   5.189   6.366   5.280 -0.5749  0.8875  0.0753
13246TIP3    H161229   5.116   6.375   5.341 -1.9394 -0.5649 -1.2490
13246TIP3    H261230   5.262   6.335   5.334 -1.2810  1.1921  1.2324
13247TIP3   OH261231   5.745   3.082   0.465  0.0010 -0.0632  0.2730
13247TIP3    H161232   5.741   2.998   0.420 -0.3778  0.2111 -0.2125
13247TIP3    H261233   5.671   3.132   0.430  0.9460  0.9320 -0.3604
13248TIP3   OH261234   2.257   5.580   0.316 -0.7352  0.1592  0.2834
13248TIP3    H161235   2.326   5.611   0.375  0.4699  0.2898 -1.1259
13248TIP3    H261236   2.234   5.494   0.350  1.3868 -0.6574 -0.1646
13249TIP3   OH261237   4.156   4.650   5.930  0.8257 -0.2208  0.1054
13249TIP3    H161238   4.206   4.590   5.987  0.2775 -0.8812 -0.0879
13249TIP3    H261239   4.198   4.643   5.845  1.4338  0.5054  0.3371
13250TIP3   OH261240   6.287   3.226  12.745  0.5766  0.2639  0.4857
13250TIP3    H161241   6.338   3.145  12.748  0.9744  0.1990 -3.2709
13250TIP3    H261242   6.351   3.295  12.728 -0.0804  0.8857  0.4399
13251TIP3   OH261243   5.359   6.304   0.867  0.2348  0.8556  0.6201
13251TIP3    H161244   5.335   6.358   0.792  0.0221 -1.0041 -0.7168
13251TIP3    H261245   5.337   6.215   0.841  2.8467 -0.2183  1.7625
13252TIP3   OH261246   4.141   6.643  12.319  0.3588  0.0478  0.4918
13252TIP3    H161247   4.086   6.666  12.244  1.6187 -0.1697 -0.5344
13252TIP3    H261248   4.084   6.592  12.376 -0.5309 -0.1150 -0.5082
13253TIP3   OH261249   4.021   4.665  11.787  0.4116 -0.0625  0.1849
13253TIP3    H161250   3.929   4.663  11.759  1.1347 -3.5818 -2.6610
13253TIP3    H261251   4.022   4.620  11.871 -0.5014  0.9061  0.7537
13254TIP3   OH261252   2.641   0.459  17.011  0.1657  0.2989  0.6238
13254TIP3    H161253   2.574   0.521  17.041 -1.2305  0.6312 -2.7726
13254TIP3    H261254   2.718   0.514  16.995 -1.2670  1.5448 -3.0496
13255TIP3   OH261255   1.033   2.972   2.512  0.5037  0.3394 -0.1580
13255TIP3    H161256   0.953   3.023   2.501  1.7312  2.2705 -0.4199
13255TIP3    H261257   1.053   2.980   2.605 -0.0682 -0.9357  0.1042
13256TIP3   OH261258   5.021   2.028   3.069  0.0517  0.4057  0.4850
13256TIP3    H161259   5.029   1.941   3.029  1.3061  1.1264 -0.9106
13256TIP3    H261260   5.111   2.053   3.089 -0.1719  1.9255 -0.3195
13257TIP3   OH261261   0.595   4.120   0.650  0.3364  0.0972  0.1185
13257TIP3    H161262   0.631   4.194   0.699 -0.2479  0.6123 -0.2189
13257TIP3    H261263   0.502   4.139   0.642  0.3930 -0.0606 -1.0484
13258TIP3   OH261264   0.388   4.050   1.047  0.3126 -0.2957  0.3342
13258TIP3    H161265   0.354   3.961   1.040  0.0320 -0.0904 -1.3542
13258TIP3    H261266   0.480   4.043   1.020 -0.1557  0.1716 -1.4541
13259TIP3   OH261267   5.384   3.554  12.297  0.0889  0.5869 -0.0287
13259TIP3    H161268   5.407   3.559  12.389 -0.8836  0.4098  0.2330
13259TIP3    H261269   5.358   3.463  12.283  3.4523 -0.3151 -1.2930
13260TIP3   OH261270   3.876   6.763   3.081  0.4629 -0.2541  0.2281
13260TIP3    H161271   3.873   6.737   2.989 -0.4447  0.3267  0.0815
13260TIP3    H261272   3.969   6.759   3.104  1.0571  1.8612 -1.3954
13261TIP3   OH261273   2.016   0.101  12.610 -0.4087 -0.4716  0.4532
13261TIP3    H161274   1.963   0.174  12.642 -2.1099 -0.5582 -1.8929
13261TIP3    H261275   2.037   0.051  12.688 -0.6575  1.5786  1.9167
13262TIP3   OH261276   6.831   3.449  16.430  0.4433  0.2065 -0.5274
13262TIP3    H161277   6.907   3.429  16.484 -0.2733  1.7892  1.1841
13262TIP3    H261278   6.778   3.369  16.432  0.5669  0.1347  0.9418
13263TIP3   OH261279   3.035   2.041  16.660  0.6838  0.4140  0.6171
13263TIP3    H161280   3.088   1.990  16.721 -0.2797 -0.4211  0.7858
13263TIP3    H261281   3.047   1.998  16.575  0.6518  0.5199  0.5579
13264TIP3   OH261282   6.198   6.821  15.352 -0.1364 -0.0854 -0.0235
13264TIP3    H161283   6.126   6.835  15.413  0.2604  2.4290 -0.0153
13264TIP3    H261284   6.157   6.815  15.266 -0.3922  1.7090 -0.0646
13265TIP3   OH261285   5.873   4.959  12.429  0.3690 -0.0500  0.0837
13265TIP3    H161286   5.875   4.871  12.464  2.1329  0.4709  1.4566
13265TIP3    H261287   5.784   4.990  12.445  0.5618 -0.5248  2.4533
13266TIP3   OH261288   2.737   4.633  17.100  0.9384 -0.2366 -0.7050
13266TIP3    H161289   2.791   4.711  17.085 -1.4322  1.3683 -1.4179
13266TIP3    H261290   2.732   4.625  17.195 -1.2202  2.3762 -0.4997
13267TIP3   OH261291   6.661   5.594   4.626  0.5153 -0.4015 -0.3205
13267TIP3    H161292   6.578   5.580   4.670  0.8084 -0.6266  0.1660
13267TIP3    H261293   6.727   5.581   4.694  0.9000  0.9892 -0.3956
13268TIP3   OH261294   3.698   4.025   5.106 -0.5493 -0.0474 -0.8078
13268TIP3    H161295   3.607   4.015   5.133 -0.0275 -1.4378  0.5643
13268TIP3    H261296   3.733   4.095   5.162  0.0424 -1.7025  1.0024
13269TIP3   OH261297   4.407   3.236   2.648 -0.1698 -0.2759  0.1353
13269TIP3    H161298   4.425   3.181   2.571 -0.2765  1.7909 -1.4621
13269TIP3    H261299   4.319   3.209   2.675  0.9150 -2.9473  1.3302
13270TIP3   OH261300   0.308   1.448  14.656 -0.1388  0.1466 -0.2396
13270TIP3    H161301   0.222   1.439  14.697  0.5580  0.9799  1.4890
13270TIP3    H261302   0.297   1.519  14.592 -0.2342  1.7870  1.5257
13271TIP3   OH261303   2.050   2.620  14.083  0.1382  0.5228  0.0662
13271TIP3    H161304   2.078   2.540  14.127 -0.1919  0.1178 -0.4455
13271TIP3    H261305   2.097   2.690  14.128 -0.6499  0.1876  1.4713
13272TIP3   OH261306   6.396   1.416   4.936  0.3878  0.2832 -0.4093
13272TIP3    H161307   6.465   1.369   4.984 -0.4714  1.8264  2.6005
13272TIP3    H261308   6.441   1.493   4.901  0.6611  0.1430 -0.3724
13273TIP3   OH261309   5.445   4.812  15.931 -0.3022  0.5088  0.4118
13273TIP3    H161310   5.491   4.856  15.859  0.4022 -1.1594 -0.2099
13273TIP3    H261311   5.374   4.872  15.954 -1.4876  0.4584 -2.6737
13274TIP3   OH261312   1.922   2.261  11.655  0.2135  0.0329 -0.1853
13274TIP3    H161313   1.872   2.342  11.647  0.3272  0.1976  0.6992
13274TIP3    H261314   1.985   2.278  11.725  1.4367 -0.2160 -1.1812
13275TIP3   OH261315   2.807   0.445  11.378 -0.7776 -0.3874 -0.1096
13275TIP3    H161316   2.806   0.513  11.310 -1.1828  0.1152  0.3960
13275TIP3    H261317   2.729   0.461  11.430 -0.4682 -0.7738  0.4822
13276TIP3   OH261318   0.640   0.963   3.288 -0.0171  0.7181 -0.2361
13276TIP3    H161319   0.607   0.883   3.328 -0.2666  0.7192 -0.4389
13276TIP3    H261320   0.561   1.013   3.266  0.1056  0.5708 -1.0390
13277TIP3   OH261321   3.924   0.972   2.303 -0.1405  0.0832  0.0463
13277TIP3    H161322   3.974   0.896   2.274 -0.2215  0.5208 -1.3389
13277TIP3    H261323   3.976   1.010   2.374 -0.3312 -1.4954  1.0918
13278TIP3   OH261324   2.493   4.019   3.942  0.2832  0.1407 -0.2646
13278TIP3    H161325   2.409   4.019   3.988 -0.6033 -2.1519 -1.7287
13278TIP3    H261326   2.545   3.953   3.988  1.3910  1.6083  0.6901
13279TIP3   OH261327   3.490   1.829   1.531  0.5159  0.9572  0.5355
13279TIP3    H161328   3.526   1.748   1.568 -0.0788  0.6607  0.4810
13279TIP3    H261329   3.538   1.841   1.449 -0.3964 -0.1504 -0.1872
13280TIP3   OH261330   4.574   2.066  15.806 -0.5279  0.4429  0.0835
13280TIP3    H161331   4.545   2.008  15.876 -2.3465  0.3460 -0.6864
13280TIP3    H261332   4.656   2.028  15.775  0.5926  0.7780  2.4655
13281TIP3   OH261333   3.728   0.912  12.719 -0.4560 -0.5442  0.3529
13281TIP3    H161334   3.689   0.994  12.689 -0.0707 -1.1553 -1.9874
13281TIP3    H261335   3.799   0.895  12.657 -0.8336 -2.8926  0.4756
13282TIP3   OH261336   0.143   6.177   2.536 -0.1782 -0.0859  0.6028
13282TIP3    H161337   0.180   6.157   2.622  2.5935  1.0590 -0.2083
13282TIP3    H261338   0.102   6.262   2.546 -0.3986 -0.2300  0.9259
13283TIP3   OH261339   5.809   1.993  13.154 -0.4342 -0.1506  0.2303
13283TIP3    H161340   5.844   1.989  13.065 -0.1812 -0.5803  0.3472
13283TIP3    H261341   5.792   2.086  13.169 -0.8376 -0.1164 -0.4049
13284TIP3   OH261342   5.994   5.244  14.194  0.1202  0.1143 -0.8913
13284TIP3    H161343   6.058   5.189  14.238  0.3749  1.2466  0.2193
13284TIP3    H261344   6.038   5.273  14.114 -0.0560 -1.3256 -1.5436
13285TIP3   OH261345   0.240   5.527   5.114 -0.3706 -0.1548  0.7103
13285TIP3    H161346   0.187   5.542   5.036  0.1934 -0.1679  0.3238
13285TIP3    H261347   0.195   5.456   5.161  0.3813 -1.5663 -0.6222
13286TIP3   OH261348   2.397   4.077  12.943  0.3516  0.2065  0.1239
13286TIP3    H161349   2.485   4.093  12.978  0.4557  2.8771 -1.1302
13286TIP3    H261350   2.339   4.093  13.017  0.8397 -0.4004  0.6545
13287TIP3   OH261351   1.166   2.505   5.903 -0.2338 -0.5382 -0.5163
13287TIP3    H161352   1.190   2.413   5.902  0.0907 -0.4750 -2.1694
13287TIP3    H261353   1.246   2.551   5.877 -0.4491  0.2060  0.0734
13288TIP3   OH261354   2.685   5.979   6.038  0.4738  0.2537  0.3176
13288TIP3    H161355   2.657   6.054   6.091  1.3431  0.3596  0.6394
13288TIP3    H261356   2.734   5.924   6.099 -1.0819 -1.1468  0.3659
13289TIP3   OH261357   2.753   4.948   0.236 -0.3203  0.0956  0.1732
13289TIP3    H161358   2.815   5.014   0.205  0.0252  0.0849  0.8427
13289TIP3    H261359   2.804   4.889   0.290 -1.2197  1.0730  2.1780
13290TIP3   OH261360   1.632   2.668  13.957 -0.2212 -0.4139 -0.3235
13290TIP3    H161361   1.541   2.684  13.930 -0.3667  1.2442  1.0317
13290TIP3    H261362   1.625   2.631  14.045  0.4332  0.0063 -0.0918
13291TIP3   OH261363   2.997   5.057   2.151 -0.5568  0.1734  0.2963
13291TIP3    H161364   3.079   5.040   2.197  0.8199  1.9389 -1.3336
13291TIP3    H261365   2.982   5.151   2.163 -1.4364  0.1915 -0.7917
13292TIP3   OH261366   4.156   1.147  11.389  0.1337  0.1675 -0.5297
13292TIP3    H161367   4.156   1.057  11.356 -0.1988 -0.5165  1.2407
13292TIP3    H261368   4.079   1.187  11.351 -1.3026 -1.1782  0.8202
13293TIP3   OH261369   6.769   2.945  11.535  0.1832 -0.0843  0.0738
13293TIP3    H161370   6.861   2.920  11.530  0.1021 -0.5135  0.6004
13293TIP3    H261371   6.726   2.891  11.468  0.2743 -0.0870  0.0177
13294TIP3   OH261372   5.256   6.578   2.371 -0.1668 -0.0155 -0.0939
13294TIP3    H161373   5.249   6.557   2.464 -0.9095 -0.4533 -0.2306
13294TIP3    H261374   5.349   6.587   2.354 -0.0697  0.9252  0.8694
13295TIP3   OH261375   6.273   0.275   3.748 -0.1931 -0.0740 -0.0452
13295TIP3    H161376   6.322   0.304   3.671  0.5906 -1.4059 -0.0691
13295TIP3    H261377   6.339   0.245   3.809 -0.9208 -0.8968  0.3519
13296TIP3   OH261378   3.307   2.538   0.838 -0.1152  0.4906  0.0010
13296TIP3    H161379   3.368   2.469   0.863 -1.4797 -1.3660 -1.5146
13296TIP3    H261380   3.297   2.592   0.917 -0.5250 -2.2000  1.9145
13297TIP3   OH261381   3.034   0.430  12.639 -0.3687  0.4658 -0.2160
13297TIP3    H161382   3.033   0.356  12.699 -1.0506  1.8572  1.5722
13297TIP3    H261383   3.093   0.494  12.679 -1.3570  1.7127 -0.6498
13298TIP3   OH261384   0.559   3.779  14.770 -0.4928  0.1197  0.1716
13298TIP3    H161385   0.495   3.820  14.828 -0.5211 -0.3154  0.4565
13298TIP3    H261386   0.567   3.689  14.803 -2.3880 -0.9653 -1.9835
13299TIP3   OH261387   6.544   2.697   3.630 -0.3753  0.0736 -0.5163
13299TIP3    H161388   6.605   2.770   3.625 -1.1671  0.6819 -1.8550
13299TIP3    H261389   6.489   2.716   3.706  0.1966  0.2351 -0.1398
13300TIP3   OH261390   2.643   1.195  14.313 -0.7612  0.2535 -0.0933
13300TIP3    H161391   2.559   1.239  14.329 -1.2577 -0.6349 -0.1994
13300TIP3    H261392   2.678   1.179  14.401 -0.3809  1.1868 -0.0531
13301TIP3   OH261393   6.268   2.650   6.322  0.2276  0.5503  0.2315
13301TIP3    H161394   6.206   2.645   6.395 -0.6676  1.2336 -0.4708
13301TIP3    H261395   6.291   2.558   6.304 -4.8594 -0.4604 -3.0506
13302TIP3   OH261396   4.279   4.576   0.597 -0.1986 -0.3175  0.3121
13302TIP3    H161397   4.363   4.556   0.638  0.2990  1.3108  0.1791
13302TIP3    H261398   4.255   4.496   0.550  0.4933 -1.3363  1.6308
13303TIP3   OH261399   1.585   0.833   0.781 -0.0611 -0.4876 -0.2034
13303TIP3    H161400   1.517   0.781   0.737  0.6633 -0.2008 -1.7427
13303TIP3    H261401   1.538   0.905   0.821 -0.8469 -1.1927  0.1739
13304TIP3   OH261402   4.528   3.876  13.438  0.5590 -0.0144  0.0084
13304TIP3    H161403   4.445   3.903  13.398  0.1821 -1.1984 -0.0439
13304TIP3    H261404   4.507   3.793  13.482  2.1888 -1.4167 -1.7288
13305TIP3   OH261405   1.516   6.046  16.696  0.1784  0.8240 -0.6336
13305TIP3    H161406   1.528   5.983  16.766 -2.1985 -0.4468 -1.2395
13305TIP3    H261407   1.596   6.041  16.644  0.8080 -0.2875  0.4109
13306TIP3   OH261408   5.501   3.640   6.369  0.0166  0.0418 -0.0919
13306TIP3    H161409   5.522   3.671   6.458 -0.3160  1.8263 -0.5866
13306TIP3    H261410   5.584   3.646   6.322 -0.2251  1.1258 -0.4203
13307TIP3   OH261411   4.055   0.115  16.217 -0.0973 -0.0880 -0.1180
13307TIP3    H161412   4.025   0.101  16.307  0.3361 -0.5886 -0.0412
13307TIP3    H261413   4.150   0.102  16.222  0.0172  0.5796 -0.5148
13308TIP3   OH261414   2.444   0.935  14.028 -0.8411  0.0924  0.3359
13308TIP3    H161415   2.365   0.888  14.054 -1.2690 -0.3359 -1.6398
13308TIP3    H261416   2.425   1.027  14.047 -2.2934  0.1386 -1.1977
13309TIP3   OH261417   2.287   0.994   5.680 -0.5360 -0.0291 -0.0342
13309TIP3    H161418   2.379   0.974   5.664 -0.2338  2.0619 -1.3349
13309TIP3    H261419   2.274   0.976   5.773  1.1132 -0.5814  0.1186
13310TIP3   OH261420   4.253   4.257   5.605  0.5414 -0.5692 -0.3592
13310TIP3    H161421   4.177   4.259   5.663  0.5308 -0.6572 -0.3704
13310TIP3    H261422   4.222   4.297   5.524  1.2806  2.1190  0.5762
13311TIP3   OH261423   1.757   0.933   2.352 -0.1479 -0.1503 -0.5076
13311TIP3    H161424   1.766   0.846   2.315 -3.2564 -0.0595 -1.8257
13311TIP3    H261425   1.799   0.991   2.288  2.5596 -0.6450  0.7204
13312TIP3   OH261426   2.068   6.534   0.062  0.3026  0.2819  0.7769
13312TIP3    H161427   2.089   6.536   0.156  0.3950 -2.3114  0.8860
13312TIP3    H261428   2.061   6.441   0.041 -4.0739  0.7216 -0.8180
13313TIP3   OH261429   0.301   0.693  13.136 -0.0130 -0.0680 -0.0252
13313TIP3    H161430   0.396   0.689  13.130  0.2695  1.4002  2.2166
13313TIP3    H261431   0.282   0.665  13.226 -1.6824 -0.2266 -0.4013
13314TIP3   OH261432   4.498   2.252   5.650  0.5277  0.4266  0.2244
13314TIP3    H161433   4.405   2.248   5.626  0.3997 -1.0357  0.8422
13314TIP3    H261434   4.541   2.291   5.574 -0.5113  0.5945 -0.2974
13315TIP3   OH261435   0.582   1.654   3.711  0.2341 -0.2773 -0.3730
13315TIP3    H161436   0.631   1.694   3.639 -1.3233 -0.3299 -1.5294
13315TIP3    H261437   0.629   1.574   3.731  1.9312  0.8113  0.1946
13316TIP3   OH261438   3.208   0.516  15.688  0.0593  0.3791 -0.8090
13316TIP3    H161439   3.169   0.532  15.602 -0.1592  2.1434 -0.4368
13316TIP3    H261440   3.255   0.597  15.708 -0.3526  0.2232  0.9662
13317TIP3   OH261441   0.289   0.144  15.473 -0.1376 -0.3938 -0.3255
13317TIP3    H161442   0.362   0.107  15.524 -0.8163 -0.9593  0.2616
13317TIP3    H261443   0.304   0.113  15.384  0.3721 -0.4497 -0.2274
13318TIP3   OH261444   3.642   4.223  14.863  0.3037  0.0120 -0.2469
13318TIP3    H161445   3.731   4.214  14.828  0.1546 -0.7246 -0.4438
13318TIP3    H261446   3.586   4.189  14.794 -0.1736  0.9151 -0.3216
13319TIP3   OH261447   0.853   6.705  16.721 -0.4202 -0.2826 -0.3806
13319TIP3    H161448   0.790   6.664  16.781 -0.1820  1.8940  1.5026
13319TIP3    H261449   0.917   6.637  16.703 -0.9625 -1.2645  1.2122
13320TIP3   OH261450   2.333   6.046   3.035  0.5939 -0.1159 -0.2441
13320TIP3    H161451   2.398   6.088   3.090  0.9669  0.4973 -1.1263
13320TIP3    H261452   2.362   5.954   3.030  0.0945 -0.3759  1.2132
13321TIP3   OH261453   2.076   2.977  11.152 -0.0256  0.1796 -0.2494
13321TIP3    H161454   2.143   3.040  11.125  1.6119 -2.5934 -3.3160
13321TIP3    H261455   2.005   2.989  11.089 -0.6020  0.2387  0.3946
13322TIP3   OH261456   2.949   0.200   3.008 -0.0306 -0.4508  0.1775
13322TIP3    H161457   2.917   0.221   2.920  0.8061 -0.6529 -0.1841
13322TIP3    H261458   2.893   0.129   3.038 -0.8179  0.1331  0.1206
13323TIP3   OH261459   0.998   0.589   5.775 -0.6181 -0.6092  0.0264
13323TIP3    H161460   1.028   0.595   5.865  0.0996 -1.2217 -0.1624
13323TIP3    H261461   1.028   0.671   5.735  0.5586 -1.0665 -0.0738
13324TIP3   OH261462   0.108   6.670  14.113  0.1967 -0.0834  0.3809
13324TIP3    H161463   0.102   6.660  14.208  0.2299  0.0074  0.3920
13324TIP3    H261464   0.179   6.610  14.088  0.4585  0.1914  0.4609
13325TIP3   OH261465   3.155   3.862  14.446 -0.1828  0.5068  0.2658
13325TIP3    H161466   3.078   3.872  14.391 -1.6122  1.4726  2.3095
13325TIP3    H261467   3.213   3.933  14.420  0.2983 -0.5009 -1.6034
13326TIP3   OH261468   0.341   2.740  11.882 -0.1581  0.0648 -0.0649
13326TIP3    H161469   0.283   2.811  11.911 -1.5552 -1.9829  2.5726
13326TIP3    H261470   0.283   2.680  11.834  0.5958 -0.2635 -0.5899
13327TIP3   OH261471   5.161   2.387  13.505 -0.2755 -0.0563  0.1219
13327TIP3    H161472   5.189   2.471  13.541 -0.6890  0.2523 -0.2651
13327TIP3    H261473   5.210   2.321  13.556  2.8432  0.4643 -1.9120
13328TIP3   OH261474   3.766   2.748   6.089 -0.2050  0.0893  0.3827
13328TIP3    H161475   3.795   2.700   6.166  0.8476  1.2963  0.7850
13328TIP3    H261476   3.727   2.828   6.125 -0.8324  0.0897 -0.2934
13329TIP3   OH261477   0.821   2.300   0.992 -0.2505 -0.0019 -0.0015
13329TIP3    H161478   0.733   2.321   0.962  0.0254  0.1513 -0.7473
13329TIP3    H261479   0.816   2.207   1.017 -1.2101  0.6041  2.3219
13330TIP3   OH261480   2.964   0.375   3.723 -0.4334  0.2495  0.4667
13330TIP3    H161481   2.940   0.444   3.661  0.5599  0.7816  0.6446
13330TIP3    H261482   3.022   0.419   3.786 -0.0981 -0.6598  0.8091
13331TIP3   OH261483   5.293   3.691   4.949 -0.9814  0.4122 -0.5425
13331TIP3    H161484   5.321   3.636   5.022  1.3482  1.2765 -0.7220
13331TIP3    H261485   5.234   3.635   4.898  1.6817 -2.1941 -1.0069
13332TIP3   OH261486   3.682   4.444  12.088 -0.1760 -0.0052  0.2591
13332TIP3    H161487   3.717   4.382  12.153 -1.4784 -0.2362  0.7874
13332TIP3    H261488   3.593   4.412  12.071  0.0451  0.2100 -1.4632
13333TIP3   OH261489   1.378   0.500   1.901  0.0215 -0.4698 -0.4960
13333TIP3    H161490   1.348   0.447   1.827 -0.5233 -1.7230  0.5693
13333TIP3    H261491   1.339   0.458   1.978 -0.2582  1.3753  0.4379
13334TIP3   OH261492   5.607   5.990   1.301 -0.4474 -0.2784  0.1824
13334TIP3    H161493   5.554   5.981   1.380  0.3654 -0.0512  0.7738
13334TIP3    H261494   5.575   5.923   1.242 -2.1069  0.5269  0.1025
13335TIP3   OH261495   0.447   5.063   5.328  0.2052  0.6214 -0.5565
13335TIP3    H161496   0.459   4.982   5.378 -1.4327  0.5592 -0.2215
13335TIP3    H261497   0.530   5.075   5.283  0.8981 -0.6021  0.3285
13336TIP3   OH261498   3.888   0.984  12.484 -0.1665  0.1207 -0.4479
13336TIP3    H161499   3.853   0.950  12.402  0.5996  1.3174 -1.2933
13336TIP3    H261500   3.892   1.078  12.472  1.5275  0.1859  0.3315
13337TIP3   OH261501   4.980   3.623  12.903 -0.1720 -0.4480 -0.4990
13337TIP3    H161502   4.906   3.575  12.939 -2.3762  0.2440 -3.6237
13337TIP3    H261503   4.955   3.715  12.912  1.7577  0.0003  1.0246
13338TIP3   OH261504   6.252   3.316  15.887 -0.5273 -0.2067  0.2516
13338TIP3    H161505   6.193   3.389  15.867  0.4953  0.5097 -0.2262
13338TIP3    H261506   6.297   3.298  15.804 -1.2650 -1.8826  0.1586
13339TIP3   OH261507   2.812   1.816  12.322  0.1068 -0.3452  0.2354
13339TIP3    H161508   2.732   1.781  12.283  0.2046 -1.9415  1.3516
13339TIP3    H261509   2.869   1.740  12.331  0.5786  0.1914  2.2559
13340TIP3   OH261510   3.207   3.192   3.479 -0.6283 -0.2361 -0.7182
13340TIP3    H161511   3.297   3.219   3.459 -0.0820 -0.7160  0.9497
13340TIP3    H261512   3.199   3.204   3.574 -1.6636 -2.1334 -0.5258
13341TIP3   OH261513   6.472   5.871   5.641  0.0911 -1.2400 -0.6480
13341TIP3    H161514   6.405   5.805   5.624 -0.4953 -1.0370  0.7254
13341TIP3    H261515   6.423   5.947   5.673  1.0644 -2.2107  3.8579
13342TIP3   OH261516   2.680   4.384  15.675 -0.2771 -0.3585 -0.3360
13342TIP3    H161517   2.720   4.299  15.690  0.3110  0.1500  1.2946
13342TIP3    H261518   2.593   4.365  15.640  0.3115 -1.5727 -1.1883
13343TIP3   OH261519   0.261   3.854  11.929  0.4946 -0.2176  0.3408
13343TIP3    H161520   0.203   3.913  11.977  1.4028 -0.0046  1.2113
13343TIP3    H261521   0.336   3.908  11.906  0.9370 -0.8140  0.3691
13344TIP3   OH261522   1.502   1.867   3.552  0.1992 -0.0600 -0.5095
13344TIP3    H161523   1.474   1.867   3.461 -1.9576  1.4343  0.0778
13344TIP3    H261524   1.485   1.778   3.583 -1.0568 -0.0114 -1.0112
13345TIP3   OH261525   6.135   0.567   0.887 -0.2907  0.9277  0.0815
13345TIP3    H161526   6.090   0.483   0.892  0.8385  0.2959 -0.1137
13345TIP3    H261527   6.120   0.597   0.798  1.1539 -0.1532 -0.5624
13346TIP3   OH261528   1.727   0.093  12.604 -0.3022  0.0002  0.0600
13346TIP3    H161529   1.713   0.054  12.690 -1.1950 -1.3584 -0.6510
13346TIP3    H261530   1.752   0.184  12.621  1.5385 -0.7631  1.8001
13347TIP3   OH261531   4.667   2.733  14.831 -0.4304 -0.5287  0.0470
13347TIP3    H161532   4.761   2.744  14.843 -0.3722 -0.1072 -0.7565
13347TIP3    H261533   4.632   2.822  14.833 -0.6818 -0.6117 -0.7062
13348TIP3   OH261534   1.224   5.826   5.156  0.6611  0.6466 -0.2225
13348TIP3    H161535   1.166   5.853   5.227  0.8369 -1.8673  1.0151
13348TIP3    H261536   1.307   5.807   5.200  0.7502 -1.0363 -1.0313
13349TIP3   OH261537   4.193   2.380  12.973  0.5362 -0.5444  0.1442
13349TIP3    H161538   4.265   2.340  12.924  1.2943  0.4710  0.4085
13349TIP3    H261539   4.122   2.390  12.908  1.8877  1.8083 -1.1181
13350TIP3   OH261540   4.559   2.245  10.704  0.5446  0.0418 -0.6043
13350TIP3    H161541   4.599   2.162  10.731  1.5054  0.8016  0.4268
13350TIP3    H261542   4.467   2.237  10.729  0.1066 -1.5314 -2.5239
13351TIP3   OH261543   1.818   1.227  10.909  0.1189  0.3655  0.0972
13351TIP3    H161544   1.748   1.286  10.939 -0.2710 -0.0594  0.0292
13351TIP3    H261545   1.856   1.272  10.833  0.6666  1.1269  0.7983
13352TIP3   OH261546   2.084   2.672  16.021 -0.4871 -0.3995 -0.3006
13352TIP3    H161547   2.075   2.643  15.930 -0.9805  0.9539 -0.7115
13352TIP3    H261548   2.071   2.593  16.073 -0.9510 -1.0621 -1.3876
13353TIP3   OH261549   3.151   3.705   2.127  0.0256 -0.1300  0.0608
13353TIP3    H161550   3.175   3.757   2.050  0.0341 -0.3135 -0.0604
13353TIP3    H261551   3.062   3.735   2.148  0.3271  0.5060  0.4738
13354TIP3   OH261552   0.603   4.010   1.347 -0.3436  1.0295 -0.4458
13354TIP3    H161553   0.646   3.958   1.415 -1.3134 -1.3502 -1.5371
13354TIP3    H261554   0.510   3.997   1.362 -0.5832  0.9721 -1.8483
13355TIP3   OH261555   2.223   1.187   6.384  0.6554  0.1108 -0.4982
13355TIP3    H161556   2.211   1.094   6.369  0.8729 -0.0437  0.2428
13355TIP3    H261557   2.214   1.227   6.297 -0.4099 -0.4862 -0.6745
13356TIP3   OH261558   0.860   1.292  17.136 -0.2362  0.0224 -0.5844
13356TIP3    H161559   0.820   1.248  17.062 -1.5958  1.7573 -0.9505
13356TIP3    H261560   0.944   1.324  17.103 -0.1902 -0.4611 -0.9327
13357TIP3   OH261561   5.887   3.559   2.190 -0.5384  0.3035  0.4719
13357TIP3    H161562   5.892   3.539   2.283  2.8721  0.5650  0.4750
13357TIP3    H261563   5.897   3.475   2.146 -0.2694  0.3899  0.3644
13358TIP3   OH261564   6.180   5.538   3.354 -0.2117 -0.4048  0.7014
13358TIP3    H161565   6.233   5.581   3.287  0.7324 -3.1495 -0.4529
13358TIP3    H261566   6.095   5.524   3.312 -0.3955 -0.0227  0.9414
13359TIP3   OH261567   1.200   2.309  10.658 -0.4158  0.0310  0.7469
13359TIP3    H161568   1.132   2.271  10.713 -1.1682 -0.0675 -0.2379
13359TIP3    H261569   1.282   2.283  10.700 -0.9648 -0.4155  1.5651
13360TIP3   OH261570   2.723   2.889   2.496 -0.2994 -0.2116 -0.6609
13360TIP3    H161571   2.716   2.925   2.408 -0.4435  0.2654 -0.4523
13360TIP3    H261572   2.645   2.834   2.506 -1.0337  0.8826 -0.3002
13361TIP3   OH261573   5.145   6.223  12.091 -0.0156  0.4561  0.1647
13361TIP3    H161574   5.126   6.133  12.119  1.0109 -0.3560 -1.5536
13361TIP3    H261575   5.059   6.261  12.072 -0.3930 -0.7023 -0.5582
13362TIP3   OH261576   3.916   3.985   5.929  0.2663  0.7498  0.4820
13362TIP3    H161577   3.834   3.941   5.953 -0.5581  0.8191 -1.9008
13362TIP3    H261578   3.901   4.077   5.951 -1.0926  1.0896 -1.5074
13363TIP3   OH261579   2.755   2.962   1.244  0.0322 -0.3507  0.3981
13363TIP3    H161580   2.710   3.040   1.210  0.8550 -0.4209 -0.9435
13363TIP3    H261581   2.686   2.896   1.247 -0.0969 -0.3390 -1.2172
13364TIP3   OH261582   6.012   5.511   2.564 -0.1141 -0.4212 -0.3980
13364TIP3    H161583   6.008   5.436   2.624  3.4968 -1.1752 -0.8780
13364TIP3    H261584   5.970   5.480   2.484 -0.0573 -1.3908 -0.0605
13365TIP3   OH261585   6.253   5.341   1.349 -0.1515 -0.6861 -0.0302
13365TIP3    H161586   6.172   5.296   1.325  0.6885 -2.2069 -0.1027
13365TIP3    H261587   6.250   5.346   1.444 -1.3030  1.2061 -0.1047
13366TIP3   OH261588   1.087   2.399  13.380 -0.7099  0.1750 -0.3267
13366TIP3    H161589   1.028   2.414  13.306 -1.5804  0.4498  0.4012
13366TIP3    H261590   1.074   2.307  13.403  0.2167 -0.1532 -1.0535
13367TIP3   OH261591   2.638   5.358   5.589 -0.0515  0.8196 -0.6943
13367TIP3    H161592   2.673   5.445   5.573  0.1906  0.8165 -0.2119
13367TIP3    H261593   2.698   5.299   5.543  1.4665  0.7017  1.3023
13368TIP3   OH261594   4.865   5.703   1.784 -0.3898 -0.0655 -0.1276
13368TIP3    H161595   4.958   5.720   1.768 -0.6859 -0.7837 -3.3348
13368TIP3    H261596   4.826   5.790   1.793  0.3820  0.3160 -0.3840
13369TIP3   OH261597   3.094   5.370  13.298 -0.1245  0.2234  0.9847
13369TIP3    H161598   3.172   5.426  13.294 -1.4286  2.0782 -0.1202
13369TIP3    H261599   3.086   5.348  13.391  0.4482  1.8960  1.4658
13370TIP3   OH261600   2.001   1.860  10.717  0.0355 -0.5553 -0.2961
13370TIP3    H161601   2.088   1.890  10.691 -0.6520  0.4134 -1.6391
13370TIP3    H261602   2.016   1.775  10.758  1.7738  0.3400  1.0902
13371TIP3   OH261603   1.788   3.614  15.158  0.1009 -0.0032  0.4253
13371TIP3    H161604   1.819   3.530  15.193  1.4773  0.5561  0.5976
13371TIP3    H261605   1.726   3.646  15.223  0.5036 -0.3103  0.9702
13372TIP3   OH261606   4.734   1.926  14.823 -0.7033 -0.2963 -0.0875
13372TIP3    H161607   4.662   1.984  14.797 -0.2100 -0.3395 -1.6189
13372TIP3    H261608   4.716   1.844  14.778 -1.5915 -1.5320  2.3370
13373TIP3   OH261609   2.172   5.520   4.343  0.2012  0.2103 -0.3925
13373TIP3    H161610   2.146   5.520   4.251 -0.3916 -1.0213 -0.2426
13373TIP3    H261611   2.180   5.613   4.366 -0.1519  0.5336 -1.5399
13374TIP3   OH261612   2.412   4.028  14.741  0.0866 -0.2087  0.9113
13374TIP3    H161613   2.362   4.098  14.784 -1.1955 -1.1085  0.9490
13374TIP3    H261614   2.347   3.979  14.692  0.5793 -2.5523  2.4399
13375TIP3   OH261615   1.649   0.519  13.263  0.2233 -0.2792  0.0890
13375TIP3    H161616   1.666   0.588  13.198 -1.4565 -0.1926 -0.2887
13375TIP3    H261617   1.711   0.537  13.333  0.1891  1.3013 -0.2496
13376TIP3   OH261618   3.584   4.684  10.173  0.2716 -1.0955 -0.1882
13376TIP3    H161619   3.552   4.602  10.135 -0.3621 -1.2417  0.6477
13376TIP3    H261620   3.528   4.699  10.249  0.1533  0.3088 -0.5330
13377TIP3   OH261621   5.392   1.977   3.192  1.1015 -0.5181 -0.5226
13377TIP3    H161622   5.464   2.019   3.145  1.2506 -1.2946 -1.0130
13377TIP3    H261623   5.374   1.897   3.142 -1.2650  0.4928 -1.4052
13378TIP3   OH261624   0.062   5.234  14.528  0.1752 -0.2322  0.7970
13378TIP3    H161625   0.054   5.328  14.512  0.2880 -0.4748 -0.7550
13378TIP3    H261626   0.034   5.193  14.447  2.0055 -1.4971  0.7540
13379TIP3   OH261627   6.710   4.277   6.159  0.5737 -0.6187  0.1855
13379TIP3    H161628   6.767   4.325   6.219  1.0936  0.0984 -0.8446
13379TIP3    H261629   6.624   4.318   6.168  0.4606 -1.0240  0.9951
13380TIP3   OH261630   0.888   4.180   1.135 -0.3290 -0.5467  0.0040
13380TIP3    H161631   0.800   4.192   1.169 -0.2216  1.2145 -0.2488
13380TIP3    H261632   0.926   4.112   1.191 -1.9657 -1.6642 -0.1823
13381TIP3   OH261633   4.907   6.608  16.397 -0.4210 -0.8523 -0.0808
13381TIP3    H161634   4.927   6.521  16.361 -0.4948 -0.3276 -1.4023
13381TIP3    H261635   4.942   6.669  16.333 -4.2340  0.1484 -1.4332
13382TIP3   OH261636   4.385   0.923   2.236  1.1080 -0.1401  0.0261
13382TIP3    H161637   4.436   0.842   2.245 -0.4659 -1.1250  0.5985
13382TIP3    H261638   4.373   0.933   2.142  0.9313 -0.8265 -0.0267
13383TIP3   OH261639   6.548   6.574  10.152  0.0304  0.5534 -0.1714
13383TIP3    H161640   6.536   6.528  10.070  0.0625  0.3293 -0.0527
13383TIP3    H261641   6.637   6.551  10.179 -0.0966  0.3569  0.0904
13384TIP3   OH261642   1.905   3.619   0.445 -0.5864  0.3272 -0.5819
13384TIP3    H161643   1.911   3.594   0.537 -1.1222 -1.2598 -0.9459
13384TIP3    H261644   1.945   3.706   0.441  0.0185  0.1569  1.0306
13385TIP3   OH261645   3.585   5.882  17.057  0.1829 -0.3581 -0.0945
13385TIP3    H161646   3.595   5.841  17.143  0.7020 -2.0458 -0.9233
13385TIP3    H261647   3.511   5.942  17.068  0.0858 -0.7173  1.4623
13386TIP3   OH261648   1.531   4.912   4.368  0.2563 -0.0580  0.6649
13386TIP3    H161649   1.521   4.962   4.449  0.4385  0.7918  0.1707
13386TIP3    H261650   1.501   4.824   4.390 -0.2500  0.3160  1.4920
13387TIP3   OH261651   2.079   2.600   1.432  0.1178  0.0359  0.3224
13387TIP3    H161652   2.126   2.671   1.476 -1.7442  1.2128  0.5562
13387TIP3    H261653   2.055   2.540   1.502 -0.8077  0.7084  0.6155
13388TIP3   OH261654   6.845   3.208   3.776  0.2981  0.7466  0.7713
13388TIP3    H161655   6.806   3.243   3.856  2.8007  0.6571  2.1043
13388TIP3    H261656   6.883   3.285   3.733  3.8800  0.1942  2.6050
13389TIP3   OH261657   6.037   0.813  12.636 -0.1066  0.4932 -0.6074
13389TIP3    H161658   6.002   0.791  12.550  0.1724 -1.9502 -0.1905
13389TIP3    H261659   5.962   0.844  12.686 -0.7615 -0.3090 -1.0709
13390TIP3   OH261660   0.056   5.548  14.776  0.5861 -0.3348 -0.1587
13390TIP3    H161661   0.103   5.466  14.764  1.0915 -0.1761  0.6137
13390TIP3    H261662   0.062   5.565  14.870  0.3684  0.5123 -0.2914
13391TIP3   OH261663   1.406   5.921  15.126  0.6846  0.1741 -0.0967
13391TIP3    H161664   1.391   5.869  15.204  2.2873  0.0099  0.1397
13391TIP3    H261665   1.466   5.991  15.155  2.1467 -0.4930 -1.3601
13392TIP3   OH261666   4.383   4.178  12.776 -0.6570  0.0260 -0.2442
13392TIP3    H161667   4.432   4.224  12.709 -1.7524 -0.2801 -1.2824
13392TIP3    H261668   4.383   4.087  12.748 -1.6367 -0.0096 -0.1449
13393TIP3   OH261669   2.107   2.529   4.581 -0.5728  0.0141 -0.1717
13393TIP3    H161670   2.061   2.572   4.508 -0.1333  0.5644 -0.1268
13393TIP3    H261671   2.041   2.523   4.650 -0.4201  1.3660  0.1159
13394TIP3   OH261672   5.213   3.265  13.391  0.4073 -0.1176  0.1130
13394TIP3    H161673   5.228   3.170  13.389 -0.0246 -0.1835 -1.6985
13394TIP3    H261674   5.220   3.292  13.300 -0.0104  1.5192  0.5398
13395TIP3   OH261675   6.182   4.712   2.324  0.3984 -0.4338 -0.5363
13395TIP3    H161676   6.117   4.675   2.384 -1.0636 -0.2991 -1.9776
13395TIP3    H261677   6.263   4.666   2.345 -0.5302 -1.8012  0.1806
13396TIP3   OH261678   2.936   6.211   4.786  0.1536 -0.4444  0.1218
13396TIP3    H161679   2.850   6.252   4.775  1.0527  1.9443  1.2015
13396TIP3    H261680   2.991   6.251   4.719  0.5204 -1.7885 -0.4169
13397TIP3   OH261681   4.292   2.302  11.621  0.1026 -0.0272  0.1336
13397TIP3    H161682   4.246   2.380  11.650 -1.0433 -0.2382 -1.0408
13397TIP3    H261683   4.383   2.330  11.611  0.5456  0.1588  3.4413
13398TIP3   OH261684   3.103   2.101   4.632  0.6910  0.3720 -0.1878
13398TIP3    H161685   3.152   2.178   4.602  1.5998  0.7217  2.0197
13398TIP3    H261686   3.169   2.043   4.670 -0.2926 -0.3944  0.4071
13399TIP3   OH261687   6.127   4.474  12.382  0.2083  0.1053 -0.0770
13399TIP3    H161688   6.183   4.474  12.305 -0.0887  1.3959 -0.3024
13399TIP3    H261689   6.063   4.404  12.365 -0.4088  0.9696 -1.4141
13400TIP3   OH261690   5.170   4.586  12.581 -0.3455  0.4929 -0.1746
13400TIP3    H161691   5.186   4.671  12.622  1.5205 -0.4015  1.1174
13400TIP3    H261692   5.257   4.553  12.559 -1.0068 -1.1672 -0.4664
13401TIP3   OH261693   6.822   0.441   2.167  0.0300  0.0405  0.4566
13401TIP3    H161694   6.832   0.446   2.262  1.3267 -0.3863  0.3725
13401TIP3    H261695   6.733   0.410   2.153 -0.3147  0.5136  1.5173
13402TIP3   OH261696   0.110   6.042  10.960 -0.1106  0.8660 -0.4337
13402TIP3    H161697   0.137   6.076  10.875  1.6736  0.0732 -0.2294
13402TIP3    H261698   0.033   5.989  10.941 -0.4658  1.6974 -1.3673
13403TIP3   OH261699   0.076   6.088   4.872 -0.2440  0.5682  0.2397
13403TIP3    H161700   0.128   6.043   4.805 -0.7591 -0.2226  0.3659
13403TIP3    H261701   0.126   6.074   4.953  0.9112  2.3774 -0.1028
13404TIP3   OH261702   1.783   6.438   1.364 -0.1843 -0.2361  0.2323
13404TIP3    H161703   1.712   6.491   1.398 -0.3009 -0.2043 -0.0593
13404TIP3    H261704   1.754   6.411   1.277 -0.4574 -1.4139  0.6768
13405TIP3   OH261705   6.663   6.300   0.971 -0.0854 -0.3642  0.1657
13405TIP3    H161706   6.581   6.250   0.972 -0.3847  0.1186  0.8112
13405TIP3    H261707   6.643   6.378   0.919  0.0753 -0.4229  0.0159
13406TIP3   OH261708   1.299   3.065  12.587  0.0609  0.0227  0.1396
13406TIP3    H161709   1.357   3.098  12.656  1.6152 -0.9974 -0.6035
13406TIP3    H261710   1.279   2.976  12.614  0.6250 -0.3587 -0.6662
13407TIP3   OH261711   1.683   6.181   6.047 -0.5967  0.3062  0.0323
13407TIP3    H161712   1.608   6.147   5.998  0.9773 -2.0223 -0.9212
13407TIP3    H261713   1.723   6.104   6.086  0.4857  1.6784  1.7766
13408TIP3   OH261714   2.104   4.271   2.234  0.2700  0.3500  0.1338
13408TIP3    H161715   2.027   4.326   2.254  0.5560  0.7980  0.0286
13408TIP3    H261716   2.071   4.182   2.236 -1.0288  0.6375 -3.2497
13409TIP3   OH261717   4.656   6.703  14.632  0.0427  0.1953 -0.3054
13409TIP3    H161718   4.604   6.782  14.624 -0.1593  0.1112  0.1936
13409TIP3    H261719   4.666   6.689  14.726  0.0886 -0.3643 -0.3876
13410TIP3   OH261720   5.907   0.003   4.497 -0.7112  0.2972 -0.4359
13410TIP3    H161721   5.994   0.043   4.506 -0.8250  0.4350  0.0848
13410TIP3    H261722   5.852   0.074   4.464 -0.7290  0.3419 -0.3115
13411TIP3   OH261723   2.153   6.278  10.770  0.3025  0.7681  0.6736
13411TIP3    H161724   2.227   6.332  10.743  0.1703  0.7922  0.3584
13411TIP3    H261725   2.189   6.221  10.838  0.7231  0.4742  0.2135
13412TIP3   OH261726   2.962   1.528  15.344  0.3412  0.1601 -0.2370
13412TIP3    H161727   2.896   1.481  15.292 -0.4241 -0.4620  1.2487
13412TIP3    H261728   2.996   1.462  15.405 -0.2234  1.3265  1.3935
13413TIP3   OH261729   5.708   6.088  14.132 -0.0404 -0.0963 -0.3569
13413TIP3    H161730   5.730   6.000  14.101 -1.0012 -0.8070  0.9013
13413TIP3    H261731   5.653   6.124  14.063  0.2719 -0.5062 -0.8331
13414TIP3   OH261732   2.835   1.433  12.802  0.2311 -0.1108  0.1520
13414TIP3    H161733   2.763   1.446  12.864  0.7407 -0.4632  0.8337
13414TIP3    H261734   2.883   1.357  12.836  0.7005 -0.1187 -0.5052
13415TIP3   OH261735   5.613   2.269   0.841 -0.7379 -0.5696 -0.6577
13415TIP3    H161736   5.576   2.355   0.860  2.3702  1.2374 -2.0098
13415TIP3    H261737   5.675   2.253   0.913  1.4392  0.1861 -2.2619
13416TIP3   OH261738   2.492   2.634   5.530 -0.7484 -0.5767 -0.1043
13416TIP3    H161739   2.578   2.606   5.559 -0.1276  0.5784 -0.7623
13416TIP3    H261740   2.446   2.553   5.508 -0.5257 -1.3398  2.0457
13417TIP3   OH261741   1.282   2.333  10.962  0.5734 -0.6132  0.7301
13417TIP3    H161742   1.321   2.265  10.907  0.5438  0.4867 -0.7194
13417TIP3    H261743   1.190   2.306  10.971  0.6704 -1.0042  0.5797
13418TIP3   OH261744   1.981   3.639  14.739  0.1392  0.4164 -0.5205
13418TIP3    H161745   2.076   3.643  14.746  0.4470 -3.7273  0.5449
13418TIP3    H261746   1.949   3.679  14.820  1.0730  0.3270 -0.0965
13419TIP3   OH261747   1.499   5.431  15.309 -0.2462 -0.3384 -0.4732
13419TIP3    H161748   1.410   5.459  15.287 -1.0917 -1.0756  1.7796
13419TIP3    H261749   1.506   5.444  15.403  1.3684 -2.1073 -0.2882
13420TIP3   OH261750   3.114   2.207  11.161 -0.4652  0.4883 -0.1127
13420TIP3    H161751   3.117   2.163  11.076 -0.6419  1.2481 -0.5182
13420TIP3    H261752   3.059   2.150  11.215 -1.6184  0.7511 -0.9641
13421TIP3   OH261753   1.504   3.177   2.981 -0.2942 -0.7984  0.3704
13421TIP3    H161754   1.430   3.138   3.028 -0.1284 -1.2557  0.2568
13421TIP3    H261755   1.572   3.111   2.984 -0.1106 -0.6369 -0.0906
13422TIP3   OH261756   2.867   3.210  14.956 -0.0730  0.2560  1.0599
13422TIP3    H161757   2.881   3.115  14.948 -0.4540  0.2789 -0.0558
13422TIP3    H261758   2.953   3.248  14.940 -0.4789  0.2105 -1.7161
13423TIP3   OH261759   0.344   4.115  12.232  0.3387  0.2668  0.2564
13423TIP3    H161760   0.282   4.085  12.166 -1.0874 -0.2465  1.7662
13423TIP3    H261761   0.366   4.204  12.206 -1.8600  0.8506  0.2154
13424TIP3   OH261762   1.572   5.146  11.725  0.1563 -0.6642 -0.5496
13424TIP3    H161763   1.508   5.169  11.793  1.1347 -1.3384  0.6274
13424TIP3    H261764   1.582   5.226  11.674 -0.1532  0.0401  0.4655
13425TIP3   OH261765   4.317   2.140  15.217 -0.1126 -0.2572  0.3045
13425TIP3    H161766   4.322   2.053  15.256  0.2293  0.0338  0.9342
13425TIP3    H261767   4.393   2.186  15.253 -1.4397  0.9763  1.6599
13426TIP3   OH261768   5.702   5.021   3.617 -0.6155 -0.3922  0.2800
13426TIP3    H161769   5.637   5.090   3.630  0.3931  0.8754 -1.0502
13426TIP3    H261770   5.652   4.946   3.585 -1.5114  0.2990  0.0335
13427TIP3   OH261771   0.307   0.129   2.624  0.5905 -0.2808  0.1703
13427TIP3    H161772   0.344   0.181   2.553  0.7605  0.8626  1.0737
13427TIP3    H261773   0.213   0.128   2.607  0.5636  0.5086  0.2592
13428TIP3   OH261774   0.396   6.390   2.313 -1.0787  0.1951 -0.0905
13428TIP3    H161775   0.400   6.378   2.408  1.6892  0.0201 -0.1364
13428TIP3    H261776   0.345   6.315   2.282 -0.6564 -0.6508  1.1484
13429TIP3   OH261777   3.923   2.751  16.913  0.3363  0.1635 -0.0134
13429TIP3    H161778   3.840   2.798  16.920 -0.1922 -0.3798 -1.8286
13429TIP3    H261779   3.938   2.744  16.818  3.4984  1.9945  0.2056
13430TIP3   OH261780   1.576   6.084   4.343  0.0236  0.3235  0.1840
13430TIP3    H161781   1.580   6.028   4.420  0.1062  1.0756  0.7300
13430TIP3    H261782   1.643   6.048   4.284 -0.1122 -0.3169  0.4073
13431TIP3   OH261783   1.163   4.260  16.699  0.3299  1.0480 -0.5592
13431TIP3    H161784   1.152   4.342  16.748  1.3874  2.0009 -1.8257
13431TIP3    H261785   1.189   4.288  16.612  0.5467 -0.6553 -1.0779
13432TIP3   OH261786   0.668   6.747  17.072  0.0251 -0.4713  0.2494
13432TIP3    H161787   0.722   6.743  17.150 -0.1172 -1.2040  0.3217
13432TIP3    H261788   0.699   6.674  17.018 -0.6552 -0.6916  0.1439
13433TIP3   OH261789   1.690   1.114   0.886  0.1092 -0.4095 -0.3406
13433TIP3    H161790   1.689   1.149   0.975 -0.9633 -0.0570 -0.4783
13433TIP3    H261791   1.597   1.110   0.860  0.4415  0.1374 -1.6896
13434TIP3   OH261792   4.614   1.638   5.000 -0.0587 -0.5444  0.1828
13434TIP3    H161793   4.526   1.672   4.985  0.5841  0.7440 -0.9135
13434TIP3    H261794   4.659   1.707   5.048  0.3747 -1.1966  0.7489
13435TIP3   OH261795   4.079   0.980  16.740 -0.1017  0.2463  0.4064
13435TIP3    H161796   4.050   0.940  16.822  0.5240  1.4012  1.1996
13435TIP3    H261797   4.022   1.056  16.729 -0.7630 -0.3715 -0.7027
13436TIP3   OH261798   3.953   0.034   5.182 -0.3587 -1.3724  0.2638
13436TIP3    H161799   4.047   0.026   5.196 -0.2660 -3.2432 -0.9524
13436TIP3    H261800   3.926   0.108   5.236  1.8864 -0.4501  0.2036
13437TIP3   OH261801   1.628   5.454   2.652 -0.4112  0.3005 -0.0290
13437TIP3    H161802   1.562   5.443   2.583  1.6168  0.5672 -2.1396
13437TIP3    H261803   1.645   5.548   2.653  1.9361 -0.0167 -1.6367
13438TIP3   OH261804   0.362   5.417   2.357 -0.4200  0.2429 -0.0274
13438TIP3    H161805   0.369   5.396   2.450 -1.7262 -0.6129 -0.0909
13438TIP3    H261806   0.318   5.341   2.319 -1.3522  1.2678 -1.0551
13439TIP3   OH261807   1.651   1.311  14.473 -0.4362 -0.4359  0.2036
13439TIP3    H161808   1.641   1.236  14.532 -0.2106 -0.4156  0.2688
13439TIP3    H261809   1.565   1.351  14.471 -0.1284  0.3691  1.6102
13440TIP3   OH261810   2.408   6.052  11.106 -0.0022  0.4668 -0.2859
13440TIP3    H161811   2.423   6.003  11.025 -1.2615  1.9375 -1.4901
13440TIP3    H261812   2.465   6.128  11.100  0.7692 -0.0015  0.8028
13441TIP3   OH261813   4.664   6.636  14.890  0.3869 -0.3305 -0.1790
13441TIP3    H161814   4.673   6.650  14.984 -1.9789  1.1936 -0.1061
13441TIP3    H261815   4.700   6.548  14.876  1.1666 -0.4341  2.0447
13442TIP3   OH261816   6.656   6.303  14.401  0.6429  0.3348  0.0633
13442TIP3    H161817   6.721   6.367  14.431  1.6271  0.0945 -1.4181
13442TIP3    H261818   6.706   6.222  14.390 -0.2448 -0.2628  0.3452
13443TIP3   OH261819   0.917   5.124   1.099 -0.0843 -0.0085 -0.0207
13443TIP3    H161820   0.891   5.163   1.183  1.6776 -0.2011  0.6576
13443TIP3    H261821   0.945   5.198   1.046 -1.4162  0.1386 -0.5493
13444TIP3   OH261822   0.489   0.696  11.330 -0.1906  0.3396 -0.7257
13444TIP3    H161823   0.551   0.639  11.378 -1.9406 -0.1204  1.1312
13444TIP3    H261824   0.505   0.783  11.366  0.8714  0.6526 -1.8811
13445TIP3   OH261825   4.802   4.451  12.081  0.8268 -0.4042 -0.2358
13445TIP3    H161826   4.798   4.519  12.013  1.0607  0.2646  0.4041
13445TIP3    H261827   4.796   4.500  12.163 -1.6440 -1.3428  0.2389
13446TIP3   OH261828   6.687   1.829   0.382  0.0434  0.3554 -0.4756
13446TIP3    H161829   6.694   1.921   0.357 -0.1113 -0.1077 -2.4069
13446TIP3    H261830   6.776   1.805   0.410  0.3705  0.8055 -1.0893
13447TIP3   OH261831   3.740   5.518  17.018  0.1548  0.1758  0.5453
13447TIP3    H161832   3.815   5.477  16.973 -0.7765  0.9716 -1.9139
13447TIP3    H261833   3.776   5.552  17.099  2.0678 -1.0084  0.2578
13448TIP3   OH261834   3.622   3.856  13.282  0.1778  0.2413  0.4321
13448TIP3    H161835   3.564   3.827  13.212  0.6671 -1.0789  0.5325
13448TIP3    H261836   3.582   3.821  13.362  1.0991 -0.7083  0.4979
13449TIP3   OH261837   2.164   5.412   6.748  0.0293 -0.5457 -0.0221
13449TIP3    H161838   2.236   5.435   6.806 -0.9062 -0.0157  0.9461
13449TIP3    H261839   2.206   5.396   6.663  1.1767  0.6243  0.3002
13450TIP3   OH261840   4.642   1.466   2.767 -0.0598 -0.3467 -0.7217
13450TIP3    H161841   4.700   1.535   2.801  0.4975 -1.0365 -0.2460
13450TIP3    H261842   4.591   1.510   2.699 -1.1066  1.0498  0.8803
13451TIP3   OH261843   4.358   0.660  12.922  0.5928 -0.2516 -0.2467
13451TIP3    H161844   4.414   0.583  12.906  3.2686  1.7153 -1.0185
13451TIP3    H261845   4.384   0.689  13.010 -0.6897 -0.4274  0.2013
13452TIP3   OH261846   6.695   0.289  11.572  0.2987 -0.0356 -0.2000
13452TIP3    H161847   6.636   0.275  11.646 -0.0905 -0.0993 -0.5215
13452TIP3    H261848   6.642   0.272  11.495  0.4411  0.9419 -0.5345
13453TIP3   OH261849   5.408   2.383   5.850  0.8544  0.6256 -0.3047
13453TIP3    H161850   5.451   2.303   5.818  0.5116 -0.0965  0.9744
13453TIP3    H261851   5.433   2.387   5.943 -0.6104  1.0138  0.0848
13454TIP3   OH261852   0.880   1.380   3.939 -0.4440 -0.5047  0.7348
13454TIP3    H161853   0.871   1.320   4.013 -1.0825 -1.5767 -0.1903
13454TIP3    H261854   0.972   1.408   3.942 -0.3821 -0.7615  1.7339
13455TIP3   OH261855   0.805   4.202  11.141  0.2091 -0.2516  0.0130
13455TIP3    H161856   0.830   4.200  11.048 -0.1734  0.8463 -0.1220
13455TIP3    H261857   0.757   4.120  11.154  2.8866 -1.9619  0.0304
13456TIP3   OH261858   5.604   0.381   3.243 -0.1759  0.1288  0.3475
13456TIP3    H161859   5.553   0.352   3.318 -0.7879 -0.1055 -0.1470
13456TIP3    H261860   5.683   0.419   3.281 -1.0938  1.2887  1.1951
13457TIP3   OH261861   0.644   2.876   0.221  0.0552  0.1489  0.0957
13457TIP3    H161862   0.698   2.871   0.300 -1.0140  1.6220  0.9761
13457TIP3    H261863   0.660   2.964   0.187 -1.5980  0.5420  0.2650
13458TIP3   OH261864   6.600   5.642   4.211  0.0167 -0.1714 -0.5703
13458TIP3    H161865   6.525   5.582   4.205 -0.3228  0.4097 -3.5280
13458TIP3    H261866   6.564   5.721   4.251 -0.1021 -1.0185  1.0910
13459TIP3   OH261867   6.376   1.891  12.662  0.2240  0.8023  0.3368
13459TIP3    H161868   6.469   1.902  12.679  0.0922 -0.7666  2.6694
13459TIP3    H261869   6.337   1.975  12.686  0.9701  1.3069 -0.1817
13460TIP3   OH261870   0.621   5.140   4.592  0.0585  0.4713 -0.5391
13460TIP3    H161871   0.715   5.153   4.583  0.4405 -1.1761  0.6362
13460TIP3    H261872   0.591   5.117   4.504  0.5093  2.2208 -1.1761
13461TIP3   OH261873   2.200   5.134   3.893 -0.3438 -0.0093 -0.2540
13461TIP3    H161874   2.112   5.097   3.896 -0.3550 -0.1939 -1.7797
13461TIP3    H261875   2.186   5.229   3.886 -0.3074  0.6824  5.1922
13462TIP3   OH261876   3.748   5.622   0.512 -0.1278 -0.2543 -0.4778
13462TIP3    H161877   3.735   5.577   0.595 -1.2796  1.1842  0.1713
13462TIP3    H261878   3.720   5.559   0.445  0.5716 -1.3300  0.2166
13463TIP3   OH261879   2.860   4.633  11.701  0.1489  0.7860 -0.5853
13463TIP3    H161880   2.907   4.679  11.770 -1.0914 -1.0288  1.5849
13463TIP3    H261881   2.775   4.676  11.698  0.0086  0.5077 -0.6026
13464TIP3   OH261882   4.645   2.035   3.052 -0.0643 -0.3808 -0.1320
13464TIP3    H161883   4.627   2.123   3.087  0.2024 -0.5557  0.4559
13464TIP3    H261884   4.675   2.051   2.962  1.5661  0.2816  0.4796
13465TIP3   OH261885   5.239   6.661   2.643 -0.5095 -0.3835  0.3332
13465TIP3    H161886   5.287   6.729   2.596 -0.2740 -0.8956 -0.1802
13465TIP3    H261887   5.288   6.648   2.724 -1.2538  0.9343  1.0304
13466TIP3   OH261888   3.034   1.652  16.705  0.0117 -1.0755 -0.0305
13466TIP3    H161889   2.967   1.720  16.700  1.3079  0.4867  1.9934
13466TIP3    H261890   3.015   1.606  16.788  0.1493 -2.0941 -0.5446
13467TIP3   OH261891   3.126   5.706  13.245 -0.3556 -0.0038  0.0998
13467TIP3    H161892   3.208   5.663  13.271  0.0569  0.8727  0.2692
13467TIP3    H261893   3.127   5.789  13.292 -0.6007  0.6940 -1.1010
13468TIP3   OH261894   6.549   5.328   1.663 -0.3432  0.1980 -0.5260
13468TIP3    H161895   6.570   5.239   1.691  1.3239  0.6133 -0.3790
13468TIP3    H261896   6.453   5.329   1.658 -0.5738 -0.8231  2.0413
13469TIP3   OH261897   6.810   4.777  15.910 -0.0656  0.0077  0.0212
13469TIP3    H161898   6.889   4.828  15.926  0.4299 -0.3194 -1.2371
13469TIP3    H261899   6.827   4.693  15.953  0.7303 -0.4278 -1.0881
13470TIP3   OH261900   2.407   6.771   2.002  0.2450 -0.4390  0.0333
13470TIP3    H161901   2.363   6.728   2.075 -0.4655  1.8907  1.0761
13470TIP3    H261902   2.500   6.761   2.021  0.0691  0.9770  1.8378
13471TIP3   OH261903   2.214   5.759   4.450 -0.0848 -0.3674 -0.3662
13471TIP3    H161904   2.150   5.799   4.509  0.1928  0.2019 -0.4459
13471TIP3    H261905   2.280   5.721   4.508 -1.2269 -2.2636 -0.2258
13472TIP3   OH261906   2.526   0.273   5.251  0.0645  0.0432  0.0655
13472TIP3    H161907   2.544   0.318   5.333 -1.8844 -0.8302  1.0458
13472TIP3    H261908   2.605   0.287   5.198  0.3574  2.7944  1.0696
13473TIP3   OH261909   3.814   2.767   1.947 -0.2276  0.1271 -0.2687
13473TIP3    H161910   3.822   2.813   2.031 -1.5913  0.5499 -0.3529
13473TIP3    H261911   3.879   2.810   1.891 -0.6218  1.1463  0.0265
13474TIP3   OH261912   3.847   6.713   5.012  0.0181  0.0676  1.0536
13474TIP3    H161913   3.912   6.644   5.027 -1.2685 -0.8527  2.7642
13474TIP3    H261914   3.878   6.786   5.066 -0.6300 -0.5864  2.3659
13475TIP3   OH261915   3.664   1.440   4.937  0.3266 -0.2433  0.4756
13475TIP3    H161916   3.659   1.534   4.919  1.4588 -0.3344 -0.4649
13475TIP3    H261917   3.654   1.433   5.031  0.4204  0.8424  0.5797
13476TIP3   OH261918   0.318   3.182   0.057  0.4087  0.3535  0.6424
13476TIP3    H161919   0.244   3.171   0.117  0.6710 -3.1857  0.5160
13476TIP3    H261920   0.372   3.104   0.070  1.6821  0.5391 -2.5668
13477TIP3   OH261921   3.122   5.555  16.247 -0.5942  0.3412 -0.2015
13477TIP3    H161922   3.113   5.575  16.341  2.6065 -1.3317  0.6017
13477TIP3    H261923   3.086   5.467  16.238  1.4784 -0.5994  0.1114
13478TIP3   OH261924   1.717   5.700   2.749  0.1917  0.0976 -0.6385
13478TIP3    H161925   1.763   5.667   2.827  0.4360  1.9838  0.0744
13478TIP3    H261926   1.647   5.755   2.784 -0.2814  0.2365 -1.7557
13479TIP3   OH261927   5.971   5.907   3.910  0.2130 -0.3105  0.3115
13479TIP3    H161928   5.938   5.943   3.827  0.4900 -0.8903 -0.0594
13479TIP3    H261929   5.894   5.870   3.953 -0.3439  1.8617  1.3329
13480TIP3   OH261930   4.264   2.262   0.328  0.6914 -0.3779 -0.2774
13480TIP3    H161931   4.228   2.267   0.416 -0.9819  2.0806 -0.9846
13480TIP3    H261932   4.223   2.185   0.289  1.2701 -1.3509  0.9847
13481TIP3   OH261933   6.395   6.289   0.247  0.0676 -0.0860 -0.0530
13481TIP3    H161934   6.344   6.354   0.296  0.6105  0.8215 -0.6626
13481TIP3    H261935   6.415   6.221   0.311 -2.2486 -0.6867  0.0991
13482TIP3   OH261936   0.928   2.062   3.337 -0.1698 -0.0830  0.3066
13482TIP3    H161937   0.970   2.033   3.256 -0.8161 -0.8179  0.2232
13482TIP3    H261938   0.998   2.059   3.403 -0.0798 -1.3439  0.1831
13483TIP3   OH261939   5.794   6.609  13.131  0.4642  0.1834  0.3214
13483TIP3    H161940   5.761   6.521  13.112 -1.3003  1.0714 -0.9872
13483TIP3    H261941   5.728   6.668  13.095  1.6648  2.0699  1.0518
13484TIP3   OH261942   2.867   4.928  15.359 -0.3395 -0.1442  0.6992
13484TIP3    H161943   2.857   4.876  15.279 -1.4432  0.2698  0.5517
13484TIP3    H261944   2.801   4.997  15.351  2.2242  2.4309  0.0495
13485TIP3   OH261945   2.002   0.642  14.732  0.3510  0.4053  0.2076
13485TIP3    H161946   2.083   0.634  14.781  0.1580  0.5606  0.5592
13485TIP3    H261947   2.029   0.648  14.640  0.5863 -3.1153 -0.0832
13486TIP3   OH261948   4.700   2.779   0.787  0.5070 -0.0504  0.2280
13486TIP3    H161949   4.640   2.841   0.828  0.2517 -0.3597  0.3264
13486TIP3    H261950   4.651   2.697   0.784  0.8658 -0.2644  0.1605
13487TIP3   OH261951   2.275   1.155  13.585  0.0946 -0.1072 -0.4997
13487TIP3    H161952   2.322   1.076  13.559 -0.9049 -0.9526  0.1643
13487TIP3    H261953   2.327   1.191  13.657 -0.7998 -1.6764  1.0204
13488TIP3   OH261954   3.759   2.358  15.534  0.0765  0.0855 -0.5297
13488TIP3    H161955   3.767   2.395  15.446  0.8910  1.7574  0.2140
13488TIP3    H261956   3.807   2.418  15.590 -0.3912 -0.9747  1.0741
13489TIP3   OH261957   2.568   5.365   3.268 -0.0926  0.6805 -1.0500
13489TIP3    H161958   2.525   5.448   3.248 -0.3452  0.5372 -1.0979
13489TIP3    H261959   2.567   5.360   3.364  0.1627  0.8574 -1.0352
13490TIP3   OH261960   6.614   1.955   0.665  0.0858  0.1735  0.6506
13490TIP3    H161961   6.598   1.893   0.594  1.3929  0.4408  0.1044
13490TIP3    H261962   6.602   1.904   0.745 -0.6326 -0.3213  0.2449
13491TIP3   OH261963   3.744   1.297   3.625 -0.3000 -0.2881  0.5316
13491TIP3    H161964   3.757   1.392   3.627 -0.2813 -0.2922  1.8141
13491TIP3    H261965   3.770   1.268   3.713 -1.0044 -1.3841  0.3969
13492TIP3   OH261966   6.555   6.674   5.639 -0.6285 -0.8102  0.4113
13492TIP3    H161967   6.555   6.687   5.544 -0.9766 -1.4603  0.3124
13492TIP3    H261968   6.462   6.665   5.662 -0.6055  0.1958  0.9484
13493TIP3   OH261969   5.723   2.474   3.947  0.6079 -0.3705  0.0791
13493TIP3    H161970   5.774   2.425   3.882  1.3645  1.6974 -1.0236
13493TIP3    H261971   5.634   2.475   3.912  0.9263  0.3663 -0.7667
13494TIP3   OH261972   6.654   6.155  10.778  0.0552  0.3751 -0.1362
13494TIP3    H161973   6.748   6.141  10.788  0.0929 -0.1711 -1.1397
13494TIP3    H261974   6.621   6.072  10.743 -0.9137  0.3310  0.8280
13495TIP3   OH261975   5.385   3.177  10.934  0.1300  0.8427 -0.1127
13495TIP3    H161976   5.396   3.195  10.841 -1.0748 -1.9936 -0.9219
13495TIP3    H261977   5.463   3.127  10.958 -2.1647 -3.9615 -1.4012
13496TIP3   OH261978   0.773   4.044   3.513 -0.3326 -0.2756  0.4295
13496TIP3    H161979   0.718   3.967   3.528  1.5478 -1.8056 -0.0159
13496TIP3    H261980   0.737   4.084   3.434 -0.8889 -1.1660  0.2113
13497TIP3   OH261981   2.207   1.994   4.752 -0.9278 -0.2833 -0.0560
13497TIP3    H161982   2.213   2.061   4.820 -0.4410  0.4894 -0.8380
13497TIP3    H261983   2.221   2.041   4.670 -0.3483 -1.3700 -0.6130
13498TIP3   OH261984   2.712   1.816  14.481 -0.5819 -0.1050 -0.1971
13498TIP3    H161985   2.703   1.860  14.566 -1.5783 -1.2820  0.3207
13498TIP3    H261986   2.669   1.875  14.419  0.1606  0.7691  0.0883
13499TIP3   OH261987   2.838   3.295  10.270  0.1200  0.3414  0.7715
13499TIP3    H161988   2.916   3.350  10.273 -0.4729  1.2365  0.2029
13499TIP3    H261989   2.870   3.206  10.289  1.0730  0.8802  1.7813
13500TIP3   OH261990   6.635   0.243  16.629  0.1452 -0.5032 -0.1209
13500TIP3    H161991   6.576   0.306  16.670 -1.5157 -2.0117 -0.0552
13500TIP3    H261992   6.723   0.280  16.641 -0.7797  2.0624 -0.6413
13501TIP3   OH261993   3.452   2.672   1.070  0.6814 -0.1454  0.1625
13501TIP3    H161994   3.437   2.590   1.117  1.3787 -0.5213 -0.2469
13501TIP3    H261995   3.429   2.740   1.132  1.2249 -0.6369  0.9204
13502TIP3   OH261996   5.898   5.490  15.776  1.1820  0.7221  0.4956
13502TIP3    H161997   5.877   5.573  15.819  0.9620  0.7120  0.4067
13502TIP3    H261998   5.934   5.436  15.846 -2.1657 -0.4663  1.5008
13503TIP3   OH261999   1.193   3.436   3.574 -0.1188  0.0304  0.2706
13503TIP3    H162000   1.106   3.463   3.604 -0.0139  0.0313  0.5769
13503TIP3    H262001   1.188   3.341   3.570  0.5150 -0.1404  2.3679
13504TIP3   OH262002   6.208   1.002   0.684 -0.4730 -0.6562  0.4421
13504TIP3    H162003   6.174   0.947   0.613 -2.2994 -0.3075  0.9917
13504TIP3    H262004   6.301   1.011   0.664 -0.7608 -1.2792 -1.4326
13505TIP3   OH262005   1.098   5.934  13.860  0.4350 -0.1733 -0.3720
13505TIP3    H162006   1.060   5.907  13.944 -1.1544 -1.8976 -1.5516
13505TIP3    H262007   1.054   6.016  13.839 -0.9659 -0.9355 -0.5761
13506TIP3   OH262008   2.600   3.219   2.410  0.9251 -0.6313  0.1242
13506TIP3    H162009   2.694   3.214   2.393  0.5571  0.2615 -2.7034
13506TIP3    H262010   2.561   3.154   2.352 -0.2838 -0.2182  0.4288
13507TIP3   OH262011   3.415   5.514  13.939 -0.1440 -0.0466 -0.2029
13507TIP3    H162012   3.325   5.542  13.927 -0.8193 -0.8941  2.3016
13507TIP3    H262013   3.410   5.442  14.003  2.0430 -2.1122 -2.1517
13508TIP3   OH262014   6.169   6.230  12.664  0.3306  0.0115 -0.1959
13508TIP3    H162015   6.130   6.258  12.747  0.1362 -2.4611  0.6276
13508TIP3    H262016   6.252   6.190  12.689  0.5610 -0.2043 -1.2651
13509TIP3   OH262017   3.980   1.814  15.341 -0.4585 -0.0699 -0.0016
13509TIP3    H162018   3.992   1.825  15.247 -0.1296  1.0211  0.1515
13509TIP3    H262019   4.030   1.886  15.380 -0.6283 -0.4801  1.0009
13510TIP3   OH262020   3.337   5.434   4.151  0.3993 -0.0715  0.2612
13510TIP3    H162021   3.388   5.509   4.121  1.0011 -0.0996  1.1685
13510TIP3    H262022   3.324   5.381   4.072 -0.9090  1.4509 -0.6073
13511TIP3   OH262023   6.497   3.313  12.432  0.0508 -0.1279  0.5122
13511TIP3    H162024   6.541   3.238  12.473  0.6719  0.1878  0.4249
13511TIP3    H262025   6.466   3.279  12.348  0.0677 -0.3647  0.5998
13512TIP3   OH262026   3.410   3.055  14.232 -0.0842 -0.6128  0.2152
13512TIP3    H162027   3.445   2.967  14.249  0.7546 -0.7657 -1.9549
13512TIP3    H262028   3.315   3.045  14.243 -0.1495 -2.1875 -1.3742
13513TIP3   OH262029   4.434   1.590   5.801  0.4314  0.8295  0.4597
13513TIP3    H162030   4.405   1.546   5.721  0.6584  2.1458 -0.3819
13513TIP3    H262031   4.362   1.577   5.863  0.5900 -0.8912  0.3428
13514TIP3   OH262032   2.979   4.725  15.158  0.1206  0.3452  0.7085
13514TIP3    H162033   2.929   4.643  15.157 -1.2618  1.1632  0.1603
13514TIP3    H262034   3.064   4.700  15.193 -0.0802 -1.4341  0.0250
13515TIP3   OH262035   3.042   3.087   4.336 -0.4056  0.5294 -0.3555
13515TIP3    H162036   2.958   3.119   4.370 -1.2085 -0.3793 -1.3766
13515TIP3    H262037   3.071   3.156   4.276 -1.2677  0.1529 -1.2421
13516TIP3   OH262038   2.135   1.171   5.529  0.5483  0.0907 -0.2432
13516TIP3    H162039   2.120   1.114   5.453 -1.8309 -1.0497  0.9736
13516TIP3    H262040   2.194   1.121   5.585  0.4680 -0.0772 -0.3072
13517TIP3   OH262041   0.501   1.267   3.359 -0.2257 -0.0838 -0.4942
13517TIP3    H162042   0.434   1.278   3.291 -1.5476  1.6200  0.9946
13517TIP3    H262043   0.478   1.331   3.426  1.1432 -1.5647  1.4977
13518TIP3   OH262044   5.039   5.374  12.891 -0.0583  0.2749 -0.3858
13518TIP3    H162045   5.030   5.290  12.844  0.2459  0.0740 -0.0870
13518TIP3    H262046   5.035   5.350  12.983 -0.5629  0.6623 -0.3051
13519TIP3   OH262047   4.239   3.667  16.044 -0.3879  0.4194  0.5948
13519TIP3    H162048   4.206   3.704  16.125 -1.4828 -1.6416  1.1510
13519TIP3    H262049   4.191   3.712  15.975 -3.7608 -1.7206  1.3351
13520TIP3   OH262050   3.583   1.512  16.801  0.1608 -0.0412 -0.2727
13520TIP3    H162051   3.577   1.553  16.888  0.7795  0.9106 -0.6575
13520TIP3    H262052   3.668   1.468  16.802  0.4207  0.4398 -0.5752
13521TIP3   OH262053   0.684   1.739  16.840  0.2818 -0.1826 -0.4973
13521TIP3    H162054   0.618   1.782  16.785 -0.4856  0.1962  0.6734
13521TIP3    H262055   0.643   1.735  16.927  1.7004 -0.1984  0.1919
13522TIP3   OH262056   3.600   2.875  13.077 -0.7057  0.0476 -0.2252
13522TIP3    H162057   3.520   2.928  13.073 -0.6612  0.1342  0.0228
13522TIP3    H262058   3.669   2.939  13.096 -0.6428 -0.0884  0.0051
13523TIP3   OH262059   5.339   0.991   4.028 -0.1672  0.1311  0.6096
13523TIP3    H162060   5.276   1.056   3.998 -0.4878 -1.2899 -2.1142
13523TIP3    H262061   5.304   0.907   3.996  1.2017 -1.1703  2.3155
13524TIP3   OH262062   5.744   5.575  13.348 -0.0320  0.3560 -0.2633
13524TIP3    H162063   5.752   5.517  13.273  1.0585 -0.4768  0.4682
13524TIP3    H262064   5.804   5.647  13.329 -1.3678  1.2800 -1.1598
13525TIP3   OH262065   6.126   5.250  11.081  0.1176 -0.1396  0.1747
13525TIP3    H162066   6.047   5.235  11.132 -0.3920 -0.9053 -0.7907
13525TIP3    H262067   6.095   5.251  10.990  1.4280 -2.4456 -0.3905
13526TIP3   OH262068   0.323   6.570   3.841  0.4659 -0.3571  0.4833
13526TIP3    H162069   0.327   6.544   3.933 -0.3953  0.9846  0.9446
13526TIP3    H262070   0.407   6.614   3.825  0.1374  0.4831  1.0031
13527TIP3   OH262071   5.145   0.373  15.150  0.5017 -0.1635  0.2165
13527TIP3    H162072   5.131   0.408  15.239  0.1894 -3.4814  1.6117
13527TIP3    H262073   5.059   0.340  15.124  0.8973 -0.4502 -0.7444
13528TIP3   OH262074   2.305   0.822   1.292 -0.7212  0.6822 -0.4563
13528TIP3    H162075   2.276   0.739   1.330 -0.8362  0.8548 -0.1647
13528TIP3    H262076   2.353   0.796   1.214 -1.0217  0.3552 -0.5369
13529TIP3   OH262077   5.152   6.380  14.561 -0.0760  0.4779  0.3993
13529TIP3    H162078   5.159   6.377  14.656 -0.7062 -1.1743  0.4380
13529TIP3    H262079   5.167   6.289  14.533  1.3169  1.1295 -1.1932
13530TIP3   OH262080   2.615   6.130   2.833 -0.7246 -0.1776  0.3199
13530TIP3    H162081   2.700   6.132   2.877 -0.6589 -0.3485  0.2019
13530TIP3    H262082   2.606   6.040   2.802 -1.9712 -0.8110  2.3222
13531TIP3   OH262083   6.171   1.898   4.452  0.0746 -0.8876  0.5211
13531TIP3    H162084   6.178   1.810   4.490  0.1451 -1.3822 -0.6141
13531TIP3    H262085   6.116   1.887   4.375  1.3677 -0.2285 -0.5172
13532TIP3   OH262086   4.288   0.635   1.424 -0.0110  0.3416  0.2846
13532TIP3    H162087   4.333   0.552   1.437 -0.7781 -0.0556  0.4501
13532TIP3    H262088   4.320   0.691   1.494  0.5698  0.2125  0.1252
13533TIP3   OH262089   2.854   3.270   3.055  0.2376 -0.2558  0.0686
13533TIP3    H162090   2.772   3.267   3.104 -0.1498 -0.0947 -0.5693
13533TIP3    H262091   2.879   3.178   3.044  0.0618 -0.3085  0.1137
13534TIP3   OH262092   4.636   5.190   5.411  0.0955  0.2387 -0.4150
13534TIP3    H162093   4.672   5.187   5.322 -1.3456 -1.9616 -1.0077
13534TIP3    H262094   4.708   5.159   5.466  1.0845  1.8530 -0.7200
13535TIP3   OH262095   1.172   1.305   5.460 -0.1802  0.0053  0.2674
13535TIP3    H162096   1.241   1.304   5.393 -0.2379  0.6643  0.1914
13535TIP3    H262097   1.112   1.236   5.434  0.8707 -1.1349  0.7771
13536TIP3   OH262098   3.802   6.178  11.730  0.0613 -0.3751 -0.1481
13536TIP3    H162099   3.794   6.083  11.728 -0.3129 -0.4428  2.1025
13536TIP3    H262100   3.812   6.200  11.823 -1.2157  1.8802 -0.4626
13537TIP3   OH262101   4.939   2.850  11.729  0.4649  0.0682  0.0124
13537TIP3    H162102   4.868   2.876  11.670  0.1371 -0.6781  0.0719
13537TIP3    H262103   5.011   2.910  11.707 -0.7380  2.0471  1.1966
13538TIP3   OH262104   5.543   6.414   1.691 -0.8591 -0.1724  0.0073
13538TIP3    H162105   5.498   6.499   1.690 -2.4239 -0.9483  1.0122
13538TIP3    H262106   5.618   6.426   1.633 -1.3778  1.7193 -0.3334
13539TIP3   OH262107   3.393   3.009   2.264 -0.4578 -0.7549  0.3929
13539TIP3    H162108   3.322   3.072   2.279 -1.7586 -2.1239  0.2872
13539TIP3    H262109   3.379   2.942   2.330  2.2723  0.1008  2.0027
13540TIP3   OH262110   2.386   4.240   3.423 -0.0930  0.1551 -0.5649
13540TIP3    H162111   2.383   4.219   3.516  0.2939  2.6424  0.0980
13540TIP3    H262112   2.295   4.234   3.393 -0.1660 -0.9996 -0.1299
13541TIP3   OH262113   1.688   1.094   1.177 -0.3884  0.1429  0.1249
13541TIP3    H162114   1.757   1.143   1.221  1.5382 -2.2862  0.0307
13541TIP3    H262115   1.735   1.027   1.126 -2.7678 -0.6810 -1.1521
13542TIP3   OH262116   5.110   3.505  10.717 -0.1616  0.0998  0.6370
13542TIP3    H162117   5.164   3.532  10.642 -1.3478 -0.2314 -0.3752
13542TIP3    H262118   5.068   3.585  10.746 -1.2654 -0.0901 -0.3707
13543TIP3   OH262119   0.245   3.051  11.525 -0.7437  0.6261 -0.1540
13543TIP3    H162120   0.192   3.084  11.452  2.4845  1.0882 -2.5060
13543TIP3    H262121   0.254   3.126  11.583 -1.9497  0.7723 -0.1303
13544TIP3   OH262122   1.430   4.676  13.189  0.0862  0.1004  0.3999
13544TIP3    H162123   1.387   4.596  13.160  0.7515  0.1602 -0.8392
13544TIP3    H262124   1.492   4.647  13.256  0.2564 -0.4127  0.0237
13545TIP3   OH262125   6.844   6.619   4.602  0.1222 -0.0643  0.2021
13545TIP3    H162126   6.883   6.552   4.657  0.0470 -0.7187 -0.5133
13545TIP3    H262127   6.824   6.573   4.520 -0.8604  0.5894  0.0636
13546TIP3   OH262128   2.098   3.450  11.092 -0.2080  0.4698  0.0437
13546TIP3    H162129   2.004   3.466  11.085 -0.4202 -0.3720  0.7479
13546TIP3    H262130   2.131   3.459  11.003 -0.4030  3.8132  0.1996
13547TIP3   OH262131   1.832   5.788  10.637 -0.2349 -0.6785 -0.1137
13547TIP3    H162132   1.916   5.753  10.608 -0.3751  0.4512 -2.0113
13547TIP3    H262133   1.830   5.878  10.604  0.0562  1.2711  4.4197
13548TIP3   OH262134   2.200   6.824  11.835 -0.7348 -0.5911 -0.0061
13548TIP3    H162135   2.252   6.752  11.872 -1.1511 -1.1536 -0.5073
13548TIP3    H262136   2.121   6.782  11.802 -2.6964  0.5009  2.8439
13549TIP3   OH262137   6.234   4.100   3.315  0.1183  0.4711 -0.1865
13549TIP3    H162138   6.196   4.180   3.352 -0.5469 -0.4391  1.1616
13549TIP3    H262139   6.158   4.049   3.287  0.4132 -0.5507  0.8191
13550TIP3   OH262140   2.078   0.651  15.102 -0.3773 -0.0830 -0.3323
13550TIP3    H162141   2.046   0.730  15.146 -0.7215 -0.4176  0.0155
13550TIP3    H262142   2.103   0.682  15.015 -0.8756  0.3422 -0.3350
13551TIP3   OH262143   0.513   4.410  16.264  0.1732  0.1662 -0.2033
13551TIP3    H162144   0.465   4.415  16.181  0.9781 -0.8090 -0.7540
13551TIP3    H262145   0.489   4.491  16.310 -0.3060  0.7236 -1.3736
13552TIP3   OH262146   0.092   1.938   2.540 -0.1333  0.1054 -0.0577
13552TIP3    H162147   0.041   2.019   2.538 -1.3544 -0.6248  0.4938
13552TIP3    H262148   0.030   1.870   2.512 -0.4294 -1.2875  3.4729
13553TIP3   OH262149   5.632   4.727   6.202  0.1403  0.0068 -0.1749
13553TIP3    H162150   5.653   4.721   6.109 -1.6879 -1.0753 -0.5735
13553TIP3    H262151   5.712   4.702   6.247 -0.0989 -3.9505 -1.5719
13554TIP3   OH262152   3.318   5.768  15.602  0.4402 -0.1991  0.2780
13554TIP3    H162153   3.412   5.781  15.593  0.1483  1.9507 -0.0933
13554TIP3    H262154   3.298   5.698  15.540  1.8772 -1.2147  0.9089
13555TIP3   OH262155   3.763   4.971  13.103  0.0639  0.2193  0.1235
13555TIP3    H162156   3.782   5.057  13.066 -0.7444  0.3774  0.0499
13555TIP3    H262157   3.831   4.957  13.169 -0.6176  1.5562  1.1619
13556TIP3   OH262158   6.417   4.452   5.163  0.4204 -0.6039  0.6620
13556TIP3    H162159   6.478   4.512   5.119 -0.3334 -0.9411 -0.8740
13556TIP3    H262160   6.474   4.391   5.210  1.2922 -0.9741 -0.8279
13557TIP3   OH262161   0.764   3.196   3.654  0.1220  0.5759 -0.6813
13557TIP3    H162162   0.835   3.260   3.659 -2.1294  3.1889  0.0665
13557TIP3    H262163   0.755   3.163   3.743 -0.7701  1.6703 -0.3458
13558TIP3   OH262164   1.877   2.163   3.892 -0.0156  0.3650  0.4407
13558TIP3    H162165   1.962   2.206   3.905 -0.5240  1.4304  0.3115
13558TIP3    H262166   1.851   2.135   3.980 -0.1500  1.2406  0.6876
13559TIP3   OH262167   6.269   3.577   0.432  0.5386  0.5243  0.3232
13559TIP3    H162168   6.251   3.512   0.500 -0.1129 -1.8489 -1.9524
13559TIP3    H262169   6.283   3.658   0.480 -2.2217 -0.4552  3.1747
13560TIP3   OH262170   2.540   2.595  17.068 -0.1386 -0.3397  0.2992
13560TIP3    H162171   2.543   2.647  16.988 -2.1430  0.9116  0.9700
13560TIP3    H262172   2.593   2.643  17.131 -0.1597 -0.2809  0.2712
13561TIP3   OH262173   5.458   2.537   4.910  0.2169  0.6652  0.2489
13561TIP3    H162174   5.527   2.575   4.855  1.4308 -0.3434  1.0154
13561TIP3    H262175   5.412   2.476   4.852 -1.0651  2.4468 -0.6933
13562TIP3   OH262176   2.324   2.573  12.493  0.2522  0.4689 -0.2549
13562TIP3    H162177   2.336   2.498  12.550  0.8096  0.5967 -0.2027
13562TIP3    H262178   2.276   2.539  12.418 -0.5368  0.3079  0.3006
13563TIP3   OH262179   4.787   0.006   6.544  0.3371 -0.1265  0.1325
13563TIP3    H162180   4.766   0.095   6.573  1.6377 -0.1568  1.2532
13563TIP3    H262181   4.857   0.018   6.479  0.9507 -0.3414  0.7372
13564TIP3   OH262182   1.284   6.075  11.671  0.4622 -0.2838  0.6100
13564TIP3    H162183   1.353   6.058  11.736 -0.0429 -0.8225  1.0140
13564TIP3    H262184   1.325   6.054  11.587  2.2563  3.5884  0.2921
13565TIP3   OH262185   2.296   2.253  14.716  0.5965 -0.2012 -0.6501
13565TIP3    H162186   2.353   2.306  14.772  1.9217 -1.4384 -0.7521
13565TIP3    H262187   2.229   2.219  14.776  1.3531 -0.6082 -0.0022
13566TIP3   OH262188   6.100   5.928  10.332 -0.1602 -0.0493  0.4215
13566TIP3    H162189   6.061   5.980  10.403 -1.1579  0.8385 -0.7306
13566TIP3    H262190   6.113   5.841  10.370  0.3572  0.6931  2.0112
13567TIP3   OH262191   3.177   6.846  15.286 -0.5099  0.7825  0.8529
13567TIP3    H162192   3.238   6.864  15.357  0.2094  1.4153  0.0942
13567TIP3    H262193   3.136   6.762  15.310  1.5154 -0.2816  0.8055
13568TIP3   OH262194   5.824   3.314  13.371 -0.2589  0.7178  0.2859
13568TIP3    H162195   5.778   3.374  13.430  1.7141 -0.1584  2.9322
13568TIP3    H262196   5.897   3.366  13.337 -0.5767  0.8194 -0.2376
13569TIP3   OH262197   3.686   3.140   4.838  0.0647  0.2544  0.1322
13569TIP3    H162198   3.715   3.193   4.912  1.6256  0.7295 -0.7573
13569TIP3    H262199   3.679   3.202   4.765  1.7483 -0.6553 -0.8841
13570TIP3   OH262200   2.070   2.804   2.693  0.1116 -0.6404 -0.7657
13570TIP3    H162201   2.011   2.870   2.730  0.5529 -0.4597 -0.3694
13570TIP3    H262202   2.012   2.737   2.656 -0.3469 -1.0629  0.6765
13571TIP3   OH262203   0.588   0.557   4.094 -0.0824  0.2799  0.2504
13571TIP3    H162204   0.524   0.487   4.111 -0.7735  0.6825 -0.6223
13571TIP3    H262205   0.649   0.551   4.168  0.3570 -1.7593 -0.2078
13572TIP3   OH262206   3.355   2.338   4.897  0.0475  0.2610 -0.1458
13572TIP3    H162207   3.405   2.311   4.974 -0.6760  1.1675  0.6716
13572TIP3    H262208   3.279   2.384   4.933  0.1664  1.5250 -1.4166
13573TIP3   OH262209   5.788   0.666   4.610 -0.1360 -0.0578 -0.0135
13573TIP3    H162210   5.794   0.710   4.525 -0.6826 -0.5604 -0.3130
13573TIP3    H262211   5.868   0.614   4.616 -1.0851 -1.7029 -1.1679
13574TIP3   OH262212   3.526   2.788  14.229  0.6600 -0.4492  0.2388
13574TIP3    H162213   3.602   2.731  14.238  1.0352 -0.1240 -0.7449
13574TIP3    H262214   3.472   2.746  14.162 -0.0147 -0.6532  0.8935
13575TIP3   OH262215   2.841   0.124   5.710  0.4065 -0.5441  0.1403
13575TIP3    H162216   2.856   0.196   5.773  0.2927  1.1223 -1.6479
13575TIP3    H262217   2.746   0.120   5.700  0.4150 -0.9250  0.1971
13576TIP3   OH262218   6.780   5.111   2.864  0.2465  0.1664 -0.5628
13576TIP3    H162219   6.864   5.090   2.905 -0.8147 -1.6464  0.8133
13576TIP3    H262220   6.797   5.103   2.770  1.3750 -1.2002 -0.2727
13577TIP3   OH262221   0.315   4.536   4.263 -0.0811 -0.1091  0.0458
13577TIP3    H162222   0.257   4.517   4.190 -0.2514  0.6166 -0.0179
13577TIP3    H262223   0.329   4.452   4.306  2.5030 -1.2270 -2.6040
13578TIP3   OH262224   0.482   2.056  13.279  0.1581  0.0807 -0.5643
13578TIP3    H162225   0.476   1.962  13.261 -0.4258  0.2900 -1.5567
13578TIP3    H262226   0.565   2.083  13.239  0.7946 -0.1784  0.5566
13579TIP3   OH262227   6.181   3.560   2.209 -0.9282 -0.3738  0.5235
13579TIP3    H162228   6.091   3.584   2.188 -1.1599 -1.3348  0.3735
13579TIP3    H262229   6.213   3.516   2.130 -0.1123  0.4948  0.3417
13580TIP3   OH262230   3.508   5.142  15.056 -0.2351  0.1626  0.1438
13580TIP3    H162231   3.467   5.139  14.969 -0.0382 -0.2740  0.0645
13580TIP3    H262232   3.468   5.068  15.103 -0.6011  0.6091  0.5414
13581TIP3   OH262233   4.265   5.449  11.845  0.4808  0.4440 -0.3570
13581TIP3    H162234   4.218   5.370  11.873  0.6450  0.6743  0.6220
13581TIP3    H262235   4.344   5.450  11.899  0.2259  1.5513  0.0298
13582TIP3   OH262236   4.245   5.875  13.090 -0.4276  0.7548 -0.1520
13582TIP3    H162237   4.338   5.870  13.068 -0.3332  0.5015  0.2987
13582TIP3    H262238   4.237   5.956  13.141 -0.4478  0.7543 -0.1546
13583TIP3   OH262239   5.701   2.795  16.910 -0.2730 -0.3865  0.9171
13583TIP3    H162240   5.698   2.747  16.992  1.1435 -1.4771  0.3625
13583TIP3    H262241   5.736   2.733  16.846 -2.2244  0.1024 -0.7701
13584TIP3   OH262242   3.293   2.218  11.825  0.3780 -0.4027  0.4901
13584TIP3    H162243   3.231   2.220  11.897 -0.6842  0.2384 -0.4007
13584TIP3    H262244   3.265   2.289  11.767  1.9344 -0.1138  0.0357
13585TIP3   OH262245   5.554   3.450   2.811  0.1472  0.3690  0.0583
13585TIP3    H162246   5.489   3.455   2.880  1.2704 -0.5885  1.2267
13585TIP3    H262247   5.516   3.390   2.747 -0.3081  0.1690  0.5067
13586TIP3   OH262248   4.776   1.909  13.259  0.2774 -0.0004  0.1980
13586TIP3    H162249   4.764   1.997  13.223  2.3205 -0.3770 -1.6076
13586TIP3    H262250   4.694   1.863  13.239 -0.2475  1.0555 -0.1286
13587TIP3   OH262251   6.302   1.309  12.817  0.4495  0.0953  0.6369
13587TIP3    H162252   6.389   1.307  12.856 -0.2392 -2.3981  2.2794
13587TIP3    H262253   6.307   1.249  12.743 -0.2749 -1.5220  1.8443
13588TIP3   OH262254   1.686   6.343  13.075 -0.0052 -0.1611 -0.4579
13588TIP3    H162255   1.698   6.438  13.075  0.0135 -0.1633  0.0456
13588TIP3    H262256   1.603   6.329  13.120  0.7352 -0.4738  0.8464
13589TIP3   OH262257   1.761   2.468   0.506 -0.1987  0.1035 -0.0203
13589TIP3    H162258   1.845   2.503   0.535  0.2320  0.2792 -1.4036
13589TIP3    H262259   1.740   2.518   0.427 -1.2833 -0.3986 -0.0738
13590TIP3   OH262260   3.033   5.749   0.213 -0.2449 -0.8284  0.1363
13590TIP3    H162261   3.007   5.698   0.289 -1.3514 -2.2581 -1.1293
13590TIP3    H262262   3.106   5.802   0.243 -1.1703 -0.7425  2.3917
13591TIP3   OH262263   4.350   0.450  15.897  0.3220  0.2707 -0.9685
13591TIP3    H162264   4.353   0.412  15.809  0.7764  1.1969 -1.3645
13591TIP3    H262265   4.436   0.491  15.909  0.1653  0.3917 -0.2061
13592TIP3   OH262266   5.054   0.368   0.178 -0.0617 -0.4770  0.3893
13592TIP3    H162267   5.046   0.393   0.086  0.9934  1.9139  0.8473
13592TIP3    H262268   4.967   0.339   0.203 -1.2252  1.8204 -0.6346
13593TIP3   OH262269   0.876   5.854   0.133 -0.4810 -0.2957 -0.3762
13593TIP3    H162270   0.945   5.918   0.151 -0.4965 -0.7825  1.6007
13593TIP3    H262271   0.922   5.772   0.115 -0.4644 -0.9829  2.3685
13594TIP3   OH262272   6.537   5.900  14.739 -0.2725  1.0527 -0.4539
13594TIP3    H162273   6.541   5.838  14.812 -1.3625  0.8933 -0.5166
13594TIP3    H262274   6.443   5.912  14.723 -0.1307  3.2425  0.0071
13595TIP3   OH262275   6.712   1.794  16.604  0.0472  0.6043 -0.2769
13595TIP3    H162276   6.740   1.704  16.623 -0.9521  0.2886 -0.2468
13595TIP3    H262277   6.776   1.849  16.650 -0.9223 -0.1253  2.0914
13596TIP3   OH262278   0.344   5.825   5.075  0.3701 -0.3600  0.1346
13596TIP3    H162279   0.396   5.786   5.004  1.3846  2.1437 -0.6125
13596TIP3    H262280   0.358   5.768   5.150  0.5549 -2.2124 -1.2484
13597TIP3   OH262281   2.027   0.886  10.331  0.4463 -0.1704 -0.2776
13597TIP3    H162282   2.085   0.886  10.255  1.8050  1.1503  0.6895
13597TIP3    H262283   2.079   0.848  10.402 -0.9914 -1.9118 -0.0929
13598TIP3   OH262284   4.286   0.140  15.036 -0.3787  0.6930  0.1910
13598TIP3    H162285   4.363   0.197  15.026 -0.5054  0.4231 -3.9655
13598TIP3    H262286   4.218   0.198  15.070  0.8726  1.6386  1.2070
13599TIP3   OH262287   5.126   3.173   5.243 -0.2719 -0.1327  0.6832
13599TIP3    H162288   5.200   3.149   5.187 -0.4434  1.5474 -0.3294
13599TIP3    H262289   5.072   3.094   5.247 -0.2057 -0.3570 -1.5026
13600TIP3   OH262290   2.617   2.485   1.811  0.2506 -0.3525 -0.0513
13600TIP3    H162291   2.603   2.392   1.830  2.3644 -1.3527 -2.7306
13600TIP3    H262292   2.664   2.518   1.887  1.3632 -2.0446  0.0430
13601TIP3   OH262293   0.732   3.959   0.477 -0.1007 -0.4907 -0.0935
13601TIP3    H162294   0.683   3.878   0.459 -1.5082  0.5755 -1.3157
13601TIP3    H262295   0.674   4.011   0.532  1.5282 -0.9660  2.2487
13602TIP3   OH262296   3.145   0.842   5.810  0.1431 -0.3990 -0.0228
13602TIP3    H162297   3.074   0.819   5.751  1.5941 -1.3099 -1.5219
13602TIP3    H262298   3.190   0.759   5.827  1.5941  0.3260 -0.1627
13603TIP3   OH262299   5.017   1.483  12.622 -0.0639 -0.0165 -0.6198
13603TIP3    H162300   5.077   1.508  12.693  1.5176 -2.8204 -0.8399
13603TIP3    H262301   5.050   1.529  12.546  0.0214  0.7288 -0.1427
13604TIP3   OH262302   0.257   2.585  13.216  0.3670  0.1442 -0.4569
13604TIP3    H162303   0.176   2.535  13.223  0.4269  0.0783 -0.2233
13604TIP3    H262304   0.327   2.519  13.215  0.3688  0.1394 -1.7753
13605TIP3   OH262305   2.525   5.379  11.810  0.0374 -0.6053  0.3668
13605TIP3    H162306   2.536   5.466  11.848  0.4002  0.2123 -1.5281
13605TIP3    H262307   2.601   5.330  11.840  1.8402  0.8782 -1.5119
13606TIP3   OH262308   1.681   6.107  15.070  0.0134  0.6271 -0.0681
13606TIP3    H162309   1.651   6.126  15.159  0.1319 -0.8857  0.3134
13606TIP3    H262310   1.696   6.013  15.069 -0.7544  0.4814 -1.9247
13607TIP3   OH262311   6.620   1.743   5.506  0.5428  0.5608 -0.2988
13607TIP3    H162312   6.541   1.718   5.554  1.5031  1.9634  2.2119
13607TIP3    H262313   6.649   1.662   5.464 -0.7546 -0.6080  0.9554
13608TIP3   OH262314   6.642   5.438  15.071 -0.3186  0.2108 -0.4344
13608TIP3    H162315   6.606   5.380  15.004  3.1547 -0.4301 -1.9997
13608TIP3    H262316   6.649   5.383  15.149  0.6189 -0.7651 -1.1774
13609TIP3   OH262317   4.096   0.624  12.853  0.6343  0.1310  0.2781
13609TIP3    H162318   4.061   0.545  12.893  0.8313  0.7799  1.7756
13609TIP3    H262319   4.186   0.629  12.883  0.3646  1.3826  0.9390
13610TIP3   OH262320   1.514   1.185  11.279 -0.2953  0.9000  0.2734
13610TIP3    H162321   1.504   1.146  11.192 -1.0470  1.2136  0.2143
13610TIP3    H262322   1.529   1.111  11.337  0.8728  0.7349 -0.2118
13611TIP3   OH262323   5.900   1.982   5.314 -0.1088 -0.2052  0.6198
13611TIP3    H162324   5.949   2.010   5.391  1.2404 -1.2399  0.1890
13611TIP3    H262325   5.967   1.949   5.254 -1.1847  0.0123 -0.7543
13612TIP3   OH262326   6.149   3.129   3.153 -0.4477  0.0506  0.2959
13612TIP3    H162327   6.173   3.042   3.186 -2.2605 -0.3229  0.7966
13612TIP3    H262328   6.220   3.186   3.182  0.7023 -1.2186  0.1092
13613TIP3   OH262329   3.261   0.120   1.179 -0.5683 -0.5779  0.0098
13613TIP3    H162330   3.333   0.182   1.183 -0.0972 -1.1808  1.1497
13613TIP3    H262331   3.183   0.171   1.202 -0.4534 -0.0347 -0.7679
13614TIP3   OH262332   1.814   2.096  14.645  0.1610  0.4526 -0.1040
13614TIP3    H162333   1.732   2.120  14.602  1.5057  1.3663 -2.3708
13614TIP3    H262334   1.793   2.019  14.696 -1.7317 -0.4177 -2.0330
13615TIP3   OH262335   3.066   1.187   4.095 -0.2282  0.3646 -0.2981
13615TIP3    H162336   3.160   1.183   4.113 -0.2494  0.5220 -0.1440
13615TIP3    H262337   3.028   1.222   4.176 -0.6203 -1.3635  0.2995
13616TIP3   OH262338   2.294   5.963   1.464 -0.3831  0.1944  0.1958
13616TIP3    H162339   2.213   5.913   1.460  1.0489 -2.2417 -2.1282
13616TIP3    H262340   2.362   5.897   1.483  1.4535  1.3914 -1.7359
13617TIP3   OH262341   0.319   4.243  13.692  0.1954 -0.3594 -0.3493
13617TIP3    H162342   0.233   4.281  13.679  0.0771 -0.1723  0.8362
13617TIP3    H262343   0.359   4.297  13.761  0.7424 -1.2440  0.0456
13618TIP3   OH262344   5.049   1.983  14.765  1.0206 -0.0641 -0.5761
13618TIP3    H162345   5.040   1.951  14.676  0.5798  0.3048 -0.6670
13618TIP3    H262346   5.009   2.070  14.764 -0.8284 -0.8579  0.4321
13619TIP3   OH262347   1.935   3.775  14.961  0.4578 -0.3558 -0.2722
13619TIP3    H162348   1.991   3.775  15.039 -1.1545 -1.7166  0.9853
13619TIP3    H262349   1.863   3.715  14.984 -0.5465 -0.0941 -2.4861
13620TIP3   OH262350   0.406   1.028  16.609 -0.1421 -0.3642  0.2389
13620TIP3    H162351   0.319   1.031  16.648  0.1697 -2.6061  1.2587
13620TIP3    H262352   0.465   1.010  16.682  0.8941 -1.1659 -0.7513
13621TIP3   OH262353   6.251   3.158  14.450 -0.7650 -0.4123  0.2399
13621TIP3    H162354   6.236   3.169  14.356  0.8279  0.4948  0.0647
13621TIP3    H262355   6.335   3.200  14.467 -0.9965 -0.5850  2.0805
13622TIP3   OH262356   2.889   1.612   2.553  0.0841  0.0090  0.0883
13622TIP3    H162357   2.983   1.627   2.543  0.2917 -0.7502  0.8345
13622TIP3    H262358   2.858   1.597   2.463  0.9331 -1.0943 -0.0519
13623TIP3   OH262359   0.787   1.649   1.600  0.2791  0.5903 -0.3834
13623TIP3    H162360   0.787   1.554   1.609 -0.0712  0.5896 -0.3690
13623TIP3    H262361   0.879   1.672   1.590  0.7010  0.5371  2.5933
13624TIP3   OH262362   1.718   2.473  15.808 -0.4082 -0.1412 -0.2204
13624TIP3    H162363   1.694   2.514  15.725 -1.9362  1.5065  0.9512
13624TIP3    H262364   1.698   2.381  15.796  0.5064 -0.1464 -2.0414
13625TIP3   OH262365   0.355   2.848   5.345 -0.1649 -0.5412 -0.6540
13625TIP3    H162366   0.321   2.819   5.429 -0.9640 -1.4970 -1.2828
13625TIP3    H262367   0.416   2.918   5.367 -2.7406  1.5264  0.5272
13626TIP3   OH262368   6.380   1.339  11.528  0.3587  0.3873 -0.3010
13626TIP3    H162369   6.355   1.397  11.600  2.6364 -0.5101  1.3341
13626TIP3    H262370   6.394   1.397  11.453  0.1677  1.6233  0.5947
13627TIP3   OH262371   4.047   3.056  14.309 -0.2877  0.2477  0.0751
13627TIP3    H162372   4.031   3.134  14.361 -1.6763 -1.0577  1.7274
13627TIP3    H262373   4.128   3.020  14.344  0.0487  0.6399 -0.2982
13628TIP3   OH262374   4.677   4.325  11.446 -0.4164  0.0074  0.3500
13628TIP3    H162375   4.618   4.351  11.376 -2.6880  0.1722  2.1999
13628TIP3    H262376   4.655   4.233  11.464  1.0465 -0.4370  0.0238
13629TIP3   OH262377   5.419   4.058   0.954 -0.2250  0.3040  0.1267
13629TIP3    H162378   5.428   3.994   1.024  0.2554 -0.2492 -0.4352
13629TIP3    H262379   5.508   4.093   0.942  0.2099 -1.2792 -1.7617
13630TIP3   OH262380   1.226   0.673  16.312 -0.2227 -0.1002  0.5544
13630TIP3    H162381   1.141   0.659  16.271 -0.0924  1.9023 -0.5603
13630TIP3    H262382   1.205   0.707  16.399 -0.6445  1.6572 -0.1870
13631TIP3   OH262383   5.570   3.320   2.118  0.2760  0.1893  0.5411
13631TIP3    H162384   5.567   3.227   2.100  0.7863 -0.0142  1.4476
13631TIP3    H262385   5.583   3.361   2.033 -2.7871 -0.3443 -0.3126
13632TIP3   OH262386   3.805   2.599  16.680  0.0427 -0.0869 -0.5067
13632TIP3    H162387   3.711   2.585  16.690  0.0514  0.9871  1.7634
13632TIP3    H262388   3.813   2.681  16.631 -0.1891 -0.3129 -0.9253
13633TIP3   OH262389   2.082   6.802   3.307  0.1064  0.1935  0.1106
13633TIP3    H162390   2.031   6.810   3.226 -0.4001  0.6106  0.4697
13633TIP3    H262391   2.077   6.709   3.329  1.2046 -0.1342 -0.9540
13634TIP3   OH262392   3.362   1.304   1.197 -0.9154 -0.2839 -0.5274
13634TIP3    H162393   3.276   1.339   1.220 -0.1811  1.2535  0.0161
13634TIP3    H262394   3.421   1.337   1.265  0.0089 -1.8715 -0.4954
13635TIP3   OH262395   1.084   4.634  13.668  0.1204 -0.3877 -0.0647
13635TIP3    H162396   1.148   4.677  13.611 -0.4925 -0.2109 -0.6260
13635TIP3    H262397   1.035   4.705  13.708 -0.5057 -0.5424 -0.5434
13636TIP3   OH262398   0.779   3.858   3.174  0.8893 -0.4691 -0.3482
13636TIP3    H162399   0.794   3.934   3.117 -0.9186  0.7308  0.6519
13636TIP3    H262400   0.839   3.871   3.248  0.1061  0.4077  0.1582
13637TIP3   OH262401   3.655   2.792   5.805 -0.6410 -0.1561 -0.1213
13637TIP3    H162402   3.576   2.842   5.827  0.1613  0.8786  0.5487
13637TIP3    H262403   3.693   2.770   5.890 -0.4892 -1.1153 -0.4322
13638TIP3   OH262404   1.614   5.504  10.343  0.7212  0.2709 -0.1252
13638TIP3    H162405   1.660   5.548  10.271  2.4618  0.3587  0.9784
13638TIP3    H262406   1.541   5.562  10.363  1.1639  1.0730 -0.7714
13639TIP3   OH262407   3.687   0.377  14.545  0.1168  0.1121  0.1558
13639TIP3    H162408   3.673   0.466  14.577 -3.5907 -0.5470  0.7592
13639TIP3    H262409   3.759   0.343  14.599  0.2318  2.0730  1.3112
13640TIP3   OH262410   6.013   1.194   2.650  0.0454  0.1498 -0.0039
13640TIP3    H162411   6.099   1.221   2.681 -0.0002  0.2188  0.0654
13640TIP3    H262412   6.017   1.098   2.649  0.1655  0.1565 -0.1277
13641TIP3   OH262413   2.580   4.951  11.532  0.4243  0.3401  0.0518
13641TIP3    H162414   2.671   4.957  11.561 -0.1248  1.2964  1.7260
13641TIP3    H262415   2.555   5.042  11.513  0.9705 -0.2226 -4.5436
13642TIP3   OH262416   0.844   3.504   0.447  0.1659  0.4102  0.7475
13642TIP3    H162417   0.867   3.487   0.355 -2.2587  1.9572 -0.2321
13642TIP3    H262418   0.918   3.553   0.481  0.8714  0.3077 -0.5470
13643TIP3   OH262419   4.344   6.351   3.453  0.0948  0.0564  0.4250
13643TIP3    H162420   4.304   6.277   3.408  0.9962 -0.8332  1.0415
13643TIP3    H262421   4.362   6.319   3.541  1.2171  0.7475  0.4744
13644TIP3   OH262422   2.349   0.916  11.048  0.4503  0.4635  0.0957
13644TIP3    H162423   2.320   1.007  11.046 -0.8209  0.1472  1.9211
13644TIP3    H262424   2.328   0.882  10.960  0.6912  1.8203 -0.5070
13645TIP3   OH262425   4.833   0.314   4.882  0.1265  0.0938 -0.2527
13645TIP3    H162426   4.836   0.402   4.920 -2.7830 -0.0019  0.3850
13645TIP3    H262427   4.847   0.327   4.789  0.7203  1.0943 -0.0359
13646TIP3   OH262428   0.854   2.193  12.321 -0.0102 -0.3428  0.4992
13646TIP3    H162429   0.778   2.248  12.300  0.0900 -0.3542  0.1080
13646TIP3    H262430   0.828   2.106  12.292 -0.4998 -0.6854  1.8620
13647TIP3   OH262431   1.722   1.634  13.030  0.0112  0.1340  0.6159
13647TIP3    H162432   1.768   1.574  13.090 -0.7339  0.0760  1.1421
13647TIP3    H262433   1.678   1.576  12.967  1.8745  0.2159 -0.8498
13648TIP3   OH262434   4.606   0.226   3.290  0.5376 -0.1526 -0.5772
13648TIP3    H162435   4.606   0.284   3.365 -1.7570 -0.9286  0.1064
13648TIP3    H262436   4.697   0.195   3.283  0.8025 -0.1379  1.9340
13649TIP3   OH262437   0.035   1.882   3.648  0.2739  0.1879  0.2125
13649TIP3    H162438   0.127   1.859   3.656 -0.0406 -1.1389  0.4109
13649TIP3    H262439  -0.011   1.806   3.684 -0.8989  0.6490 -0.2638
13650TIP3   OH262440   2.221   1.645   1.551  0.3616 -0.1546 -0.5909
13650TIP3    H162441   2.165   1.635   1.628  1.1015 -2.1299 -0.2423
13650TIP3    H262442   2.217   1.559   1.508  3.6333 -0.6460 -0.1671
13651TIP3   OH262443   0.470   5.408   0.632  0.1765 -0.5400 -0.4462
13651TIP3    H162444   0.541   5.361   0.587  1.5166  1.0739 -0.1205
13651TIP3    H262445   0.485   5.500   0.610 -1.6716 -0.1183 -0.1020
13652TIP3   OH262446   2.400   1.581   3.433 -0.0308 -0.0988 -0.2712
13652TIP3    H162447   2.332   1.572   3.366 -0.0865  1.3928 -0.4471
13652TIP3    H262448   2.353   1.607   3.512  0.3004  0.8077 -0.3602
13653TIP3   OH262449   2.530   6.565  16.689 -1.0419  0.2713  0.1320
13653TIP3    H162450   2.509   6.617  16.611  0.2657  1.0110  0.2457
13653TIP3    H262451   2.505   6.621  16.763  0.1345  0.6483  0.2544
13654TIP3   OH262452   5.917   0.189  13.712  0.2322  0.6532  0.1993
13654TIP3    H162453   6.005   0.187  13.673  0.0786  0.0346 -0.1395
13654TIP3    H262454   5.890   0.280  13.706  0.4500  0.6723 -0.6207
13655TIP3   OH262455   2.898   2.551   4.698 -0.1517 -0.0263  0.1491
13655TIP3    H162456   2.980   2.559   4.648 -0.9249  1.4197 -0.9573
13655TIP3    H262457   2.882   2.639   4.732 -1.4040 -0.2177  0.0957
13656TIP3   OH262458   6.339   1.324   6.210 -0.3543 -0.5993 -0.6549
13656TIP3    H162459   6.265   1.277   6.172 -0.8993  0.8114 -1.4382
13656TIP3    H262460   6.397   1.256   6.244 -2.4946 -1.7727  0.9550
13657TIP3   OH262461   4.744   5.639  14.363 -0.0768  0.9635 -0.2540
13657TIP3    H162462   4.782   5.625  14.450 -0.3062  2.3266  0.1039
13657TIP3    H262463   4.808   5.693  14.317 -0.4035  1.0861 -0.5718
13658TIP3   OH262464   4.680   0.334  11.253 -0.2644 -0.0317 -0.1988
13658TIP3    H162465   4.666   0.427  11.267  0.6252  0.0957 -0.0842
13658TIP3    H262466   4.641   0.316  11.167 -4.0886 -0.4312  1.4268
13659TIP3   OH262467   0.915   1.379  14.031 -0.1547  0.5333  0.1901
13659TIP3    H162468   0.988   1.327  13.997 -0.5184  1.0008 -1.3926
13659TIP3    H262469   0.853   1.314  14.065  0.2943  0.0403  0.0714
13660TIP3   OH262470   1.620   4.601  12.178 -0.1056  0.0353 -0.2782
13660TIP3    H162471   1.558   4.540  12.138 -0.3091 -0.8830  1.3612
13660TIP3    H262472   1.570   4.643  12.249  0.7954  0.1685  0.2953
13661TIP3   OH262473   1.527   4.358   4.131  0.0003  0.4683  0.0039
13661TIP3    H162474   1.479   4.296   4.077 -1.8087  1.7316  0.0660
13661TIP3    H262475   1.588   4.400   4.071  2.2542 -2.2105  0.2209
13662TIP3   OH262476   1.715   3.721  11.137  0.1324 -0.0420  0.0522
13662TIP3    H162477   1.805   3.748  11.118 -0.0293  1.1135  0.7920
13662TIP3    H262478   1.709   3.722  11.233 -1.3954  2.6275  0.0359
13663TIP3   OH262479   2.684   2.370  13.577 -0.2983  0.4418 -0.4368
13663TIP3    H162480   2.645   2.403  13.658  1.4065  1.1723  0.1298
13663TIP3    H262481   2.778   2.386  13.587  0.0729 -0.4494 -2.1091
13664TIP3   OH262482   4.058   5.396   4.219  0.3811  0.1926 -0.1145
13664TIP3    H162483   4.066   5.301   4.228  0.7262  0.3741  1.8169
13664TIP3    H262484   4.036   5.409   4.126  0.8689 -1.7188 -0.5429
13665TIP3   OH262485   5.116   5.583  11.524  0.5704 -0.5941 -0.4269
13665TIP3    H162486   5.101   5.661  11.472  0.5254 -0.0890  0.3280
13665TIP3    H262487   5.100   5.610  11.615  0.6894 -1.4365 -0.1373
13666TIP3   OH262488   1.827   1.661  13.879  0.5057 -0.3920 -0.1821
13666TIP3    H162489   1.887   1.664  13.804  0.0220  0.9081 -0.5410
13666TIP3    H262490   1.857   1.731  13.937 -0.2981 -0.1307 -0.0788
13667TIP3   OH262491   1.525   1.415   5.397  0.4481  0.8044  0.4493
13667TIP3    H162492   1.557   1.491   5.446  1.8547  0.2647  0.4161
13667TIP3    H262493   1.450   1.448   5.348  0.2815  1.8658  1.3659
13668TIP3   OH262494   4.250   5.069   3.839  0.5230 -0.4064  1.0228
13668TIP3    H162495   4.287   5.129   3.904  1.8436 -0.5729  0.4430
13668TIP3    H262496   4.257   4.982   3.880 -0.6518 -0.2760  1.5326
13669TIP3   OH262497   4.655   3.380   1.938 -0.4881 -0.0052 -0.8165
13669TIP3    H162498   4.585   3.414   1.882  0.0752 -1.6606 -2.6524
13669TIP3    H262499   4.733   3.384   1.883  1.1325  2.4572  1.4023
13670TIP3   OH262500   5.792   2.925   4.906 -0.6039  0.0382  0.4036
13670TIP3    H162501   5.812   3.018   4.914  0.2949 -0.0835 -0.3183
13670TIP3    H262502   5.812   2.903   4.815 -1.2631 -0.7604  0.4363
13671TIP3   OH262503   3.213   1.890  17.078 -0.0594  0.4383  0.1732
13671TIP3    H162504   3.198   1.940  17.158 -1.2963  1.5598 -0.7280
13671TIP3    H262505   3.159   1.811  17.089 -0.0701  0.4903  0.5200
13672TIP3   OH262506   3.151   3.047  16.178 -0.0273 -0.0082 -0.4684
13672TIP3    H162507   3.151   2.975  16.115  0.4920  0.0273 -0.5073
13672TIP3    H262508   3.242   3.073  16.186  0.0149 -0.4435  0.7800
13673TIP3   OH262509   4.591   5.261   2.901 -0.0305 -0.1448  0.1214
13673TIP3    H162510   4.671   5.217   2.931  0.5029 -0.4663 -1.6702
13673TIP3    H262511   4.527   5.190   2.890 -0.1375 -0.0667  0.2371
13674TIP3   OH262512   3.231   4.818  13.943 -0.6447  0.2618  0.0800
13674TIP3    H162513   3.319   4.785  13.925 -0.3640  0.7282  0.5619
13674TIP3    H262514   3.190   4.750  13.998  0.3167  1.1519  2.0108
13675TIP3   OH262515   1.036   4.757   5.280 -0.0514 -0.8150  0.5210
13675TIP3    H162516   1.051   4.712   5.197 -0.2193 -1.3242  0.7675
13675TIP3    H262517   1.120   4.798   5.301 -0.2467  0.0901 -0.3576
13676TIP3   OH262518   2.046   3.167  13.802  0.0007 -0.0015  0.0885
13676TIP3    H162519   2.001   3.083  13.787  0.5980 -0.5401  1.1568
13676TIP3    H262520   1.976   3.228  13.824 -0.4894 -0.0907 -1.1284
13677TIP3   OH262521   5.272   1.941   3.582  0.4997  0.3878  0.3407
13677TIP3    H162522   5.192   1.890   3.598 -0.2952  1.1189 -1.0392
13677TIP3    H262523   5.329   1.921   3.656 -0.0787 -1.8677  0.2575
13678TIP3   OH262524   2.332   1.553  11.509  0.1632  0.3064  0.0745
13678TIP3    H162525   2.343   1.605  11.589 -1.7492 -2.3490  2.2579
13678TIP3    H262526   2.385   1.475  11.524 -2.4701 -1.5695  0.1387
13679TIP3   OH262527   0.532   0.541  16.816 -0.5205 -0.3988 -0.2275
13679TIP3    H162528   0.496   0.466  16.863  0.6995 -1.3102 -0.6779
13679TIP3    H262529   0.623   0.547  16.846  0.0890 -0.5767 -1.9052
13680TIP3   OH262530   5.092   5.383  12.274  0.5179 -0.2193 -0.3661
13680TIP3    H162531   5.055   5.343  12.195  1.9404 -0.5356 -0.8937
13680TIP3    H262532   5.173   5.424  12.244  0.4928  0.6558  0.7227
13681TIP3   OH262533   6.649   1.239  14.974 -0.2443 -0.9083  0.3682
13681TIP3    H162534   6.558   1.213  14.987 -0.2813 -1.2449 -0.5039
13681TIP3    H262535   6.667   1.219  14.882  0.6036 -0.5165  0.4381
13682TIP3   OH262536   2.628   4.518   3.915 -0.3765 -0.0534  0.1932
13682TIP3    H162537   2.616   4.424   3.909 -1.6826  0.0780  0.5854
13682TIP3    H262538   2.707   4.529   3.969  0.9725 -0.9215 -1.5110
13683TIP3   OH262539   1.761   1.443   1.172  0.2133 -0.6150 -0.6041
13683TIP3    H162540   1.790   1.455   1.262  0.9263 -1.0678 -0.7707
13683TIP3    H262541   1.841   1.428   1.122 -0.1367 -0.0277 -1.3759
13684TIP3   OH262542   0.558   5.681  14.168  0.0272 -0.3362 -0.7050
13684TIP3    H162543   0.577   5.741  14.240  0.2627  0.4735 -1.4281
13684TIP3    H262544   0.577   5.594  14.204 -1.0261 -0.0615  0.5895
13685TIP3   OH262545   3.193   6.170   5.098 -0.2051  0.2776  0.3777
13685TIP3    H162546   3.219   6.213   5.179 -0.9920  0.6561  0.4455
13685TIP3    H262547   3.097   6.168   5.102 -0.2618  0.4675 -0.6215
13686TIP3   OH262548   3.421   0.921   2.427  0.0435  0.5599  1.1280
13686TIP3    H162549   3.335   0.960   2.444 -0.2464  0.6914 -0.5526
13686TIP3    H262550   3.402   0.839   2.381  0.8277  0.9962 -0.0208
13687TIP3   OH262551   6.024   6.290  12.893  0.6292  0.2514  0.6003
13687TIP3    H162552   6.089   6.298  12.963  0.0655  0.5039  1.1086
13687TIP3    H262553   5.960   6.359  12.912  1.9405  2.2547 -1.8024
13688TIP3   OH262554   1.093   5.809   3.359  0.2130  0.1879 -0.2073
13688TIP3    H162555   1.150   5.802   3.282 -0.3081 -0.5988 -0.5317
13688TIP3    H262556   1.105   5.726   3.405  0.1463  0.4574  0.2983
13689TIP3   OH262557   4.081   6.374  13.393  0.1255 -0.1595 -0.0207
13689TIP3    H162558   4.009   6.349  13.450  0.6337  0.1546  0.7828
13689TIP3    H262559   4.081   6.470  13.396  0.9173 -0.1627  0.4495
13690TIP3   OH262560   5.252   0.971   5.655  0.2338  0.5432  0.4448
13690TIP3    H162561   5.182   1.034   5.638 -0.6524  0.2387  2.5591
13690TIP3    H262562   5.323   1.024   5.692  0.7602  0.7117 -0.7683
13691TIP3   OH262563   1.232   0.736   4.098 -0.2235  0.1222  0.1241
13691TIP3    H162564   1.230   0.810   4.036  1.3552 -0.6500 -0.9132
13691TIP3    H262565   1.312   0.689   4.076 -0.9760 -1.6704  1.0583
13692TIP3   OH262566   5.518   1.783   4.744  0.0701  0.5584  0.2879
13692TIP3    H162567   5.565   1.754   4.665 -0.6051  0.6092 -0.1381
13692TIP3    H262568   5.545   1.875   4.755  0.0979  0.5777  0.0673
13693TIP3   OH262569   3.919   1.250  15.275  0.1065 -0.2718 -0.0876
13693TIP3    H162570   3.915   1.332  15.225  0.4887  0.1169  0.5083
13693TIP3    H262571   3.995   1.204  15.240 -0.6414 -0.8034 -1.0580
13694TIP3   OH262572   6.449   4.742  14.879 -0.4909 -0.6623 -0.2492
13694TIP3    H162573   6.472   4.658  14.919 -0.6175 -0.5912 -0.0305
13694TIP3    H262574   6.370   4.723  14.828 -0.5980 -0.6448 -0.0905
13695TIP3   OH262575   1.055   3.531  15.697 -0.4195  0.7750 -0.4060
13695TIP3    H162576   1.009   3.599  15.746  1.1971  1.0422  0.8510
13695TIP3    H262577   1.054   3.455  15.755  0.7445  0.8154 -0.3078
13696TIP3   OH262578   2.665   0.645  16.266 -0.0323  0.6106 -0.1331
13696TIP3    H162579   2.640   0.625  16.357 -1.7517  1.7636 -0.3009
13696TIP3    H262580   2.711   0.729  16.272 -1.5782  1.5200 -0.4558
13697TIP3   OH262581   0.143   5.735   5.984  0.7727  0.3808 -0.5487
13697TIP3    H162582   0.141   5.790   5.906  1.5027 -0.1718 -0.9789
13697TIP3    H262583   0.236   5.724   6.003  0.6116  0.1936  0.1815
13698TIP3   OH262584   1.426   5.524  12.595 -0.2528 -0.6198 -0.3871
13698TIP3    H162585   1.443   5.480  12.512 -0.3328  0.2639 -0.8842
13698TIP3    H262586   1.380   5.604  12.571 -2.7410 -1.6163  0.7032
13699TIP3   OH262587   4.247   1.023  12.506 -0.7730 -0.0655 -0.5759
13699TIP3    H162588   4.182   0.985  12.446 -1.7762 -0.0681  0.4705
13699TIP3    H262589   4.198   1.039  12.587  0.3672  0.6379  0.0002
13700TIP3   OH262590   5.220   2.369  11.844  0.2242 -0.0197  0.1967
13700TIP3    H162591   5.151   2.421  11.884  1.3571  3.4114 -1.8324
13700TIP3    H262592   5.301   2.413  11.871  1.2929 -0.9025 -1.4046
13701TIP3   OH262593   4.181   0.012  16.557  0.2195  0.0825 -0.4804
13701TIP3    H162594   4.211  -0.073  16.588  0.8154  1.0867  1.8729
13701TIP3    H262595   4.260   0.066  16.555 -0.4170  1.0423 -0.3457
13702TIP3   OH262596   3.001   1.272  17.122 -0.1177  0.0658  0.0133
13702TIP3    H162597   3.067   1.215  17.083  0.1612 -1.9680  3.0817
13702TIP3    H262598   2.918   1.228  17.106 -0.2808  0.4971 -0.3467
13703TIP3   OH262599   3.235   2.977   0.999  0.4625  0.2427 -0.3433
13703TIP3    H162600   3.318   2.952   0.958  1.9825  2.2105  1.3500
13703TIP3    H262601   3.260   3.021   1.080 -2.3189 -0.3459  0.9360
13704TIP3   OH262602   0.632   6.753   5.745  0.4284  0.2175 -0.8224
13704TIP3    H162603   0.715   6.707   5.739 -0.2670 -0.8955 -2.5957
13704TIP3    H262604   0.592   6.721   5.826  0.7290 -0.9709 -1.1325
13705TIP3   OH262605   6.318   3.847   2.053 -0.0315 -0.2119  0.2291
13705TIP3    H162606   6.287   3.859   2.143  1.3201  1.2132  0.5520
13705TIP3    H262607   6.336   3.936   2.021 -0.5614 -0.6824 -1.4923
13706TIP3   OH262608   2.293   1.139   6.065 -0.4095 -0.0487  0.0327
13706TIP3    H162609   2.300   1.085   6.143 -0.4355 -2.7032 -1.6888
13706TIP3    H262610   2.382   1.168   6.047 -0.2377 -0.3357  0.4166
13707TIP3   OH262611   4.488   0.912  16.085 -0.4438 -0.1748 -0.4245
13707TIP3    H162612   4.465   0.853  16.013 -3.1749 -0.2585  0.4191
13707TIP3    H262613   4.421   0.897  16.151  0.8845  1.2920  1.3612
13708TIP3   OH262614   4.019   4.021   4.581 -0.7686 -0.1623  0.4717
13708TIP3    H162615   3.927   4.010   4.559 -0.5040 -0.3978 -0.5739
13708TIP3    H262616   4.035   4.115   4.573 -0.9163 -0.1229  0.6424
13709TIP3   OH262617   5.032   3.195  16.638  0.3689 -0.4563 -0.0945
13709TIP3    H162618   5.123   3.197  16.668  0.1197  0.3162  0.6568
13709TIP3    H262619   5.035   3.147  16.555  1.7597  1.1787 -1.0518
13710TIP3   OH262620   1.188   6.422   0.332 -0.3652  0.7290  0.1773
13710TIP3    H162621   1.205   6.351   0.394 -0.5943  0.1216 -0.4521
13710TIP3    H262622   1.273   6.465   0.321 -0.2258  0.5624  0.5595
13711TIP3   OH262623   3.698   2.192  15.300 -0.6560 -0.0811  0.4442
13711TIP3    H162624   3.675   2.113  15.349  0.2430 -0.9357 -0.4692
13711TIP3    H262625   3.743   2.159  15.222 -1.1358  1.2942 -0.4419
13712TIP3   OH262626   4.210   4.072   2.400  0.0850 -0.5234  0.8115
13712TIP3    H162627   4.218   3.978   2.385  0.6115 -0.7037  2.0705
13712TIP3    H262628   4.126   4.096   2.361 -0.8856 -1.8563  1.9539
13713TIP3   OH262629   5.999   1.600   1.983 -0.0993 -0.4430  0.3573
13713TIP3    H162630   5.915   1.558   1.999  0.1167 -1.4323 -0.9388
13713TIP3    H262631   6.025   1.636   2.068 -2.2336  0.6819  0.5991
13714TIP3   OH262632   6.247   2.939   2.238 -0.0092  0.8309 -0.2353
13714TIP3    H162633   6.342   2.945   2.249 -0.1098  1.5320  0.3430
13714TIP3    H262634   6.212   3.003   2.299 -0.8423  0.8911 -0.7598
13715TIP3   OH262635   6.224   5.037  13.258  0.1675  0.3464 -0.3276
13715TIP3    H162636   6.202   4.979  13.185  0.0512  0.1248 -0.1201
13715TIP3    H262637   6.292   4.990  13.306 -0.0737  0.2868 -0.0408
13716TIP3   OH262638   0.579   2.763   2.630  0.3654  0.4388  0.2331
13716TIP3    H162639   0.613   2.834   2.684  2.6946 -0.3173 -0.1406
13716TIP3    H262640   0.606   2.683   2.675  0.1900 -0.2030 -0.7600
13717TIP3   OH262641   1.634   3.000  13.216 -0.4538  0.1950 -0.0767
13717TIP3    H162642   1.660   3.053  13.141  0.4780  0.7701  0.6312
13717TIP3    H262643   1.670   3.046  13.292  1.2868 -1.9375  0.5110
13718TIP3   OH262644   2.401   5.449  10.585 -0.0564 -0.4878 -0.4127
13718TIP3    H162645   2.368   5.539  10.590  0.9382 -0.1115 -0.5286
13718TIP3    H262646   2.476   5.454  10.525 -1.5911 -1.8606 -2.6188
13719TIP3   OH262647   0.122   4.353   2.196  0.0422 -0.0368 -0.3827
13719TIP3    H162648   0.158   4.409   2.127  1.8596 -0.9989 -0.2618
13719TIP3    H262649   0.115   4.267   2.155 -2.8692  0.1883 -0.6109
13720TIP3   OH262650   3.846   4.338  10.632 -0.1226  0.0288 -0.3155
13720TIP3    H162651   3.906   4.412  10.629 -0.9088  0.6616 -2.3939
13720TIP3    H262652   3.759   4.377  10.628 -0.5646 -0.9704 -1.0276
13721TIP3   OH262653   6.106   0.410  14.882  0.6791  0.0901 -0.5593
13721TIP3    H162654   6.180   0.468  14.900  1.2555 -1.4352  2.5261
13721TIP3    H262655   6.038   0.438  14.943 -0.0915 -0.6747 -1.0436
13722TIP3   OH262656   1.250   4.952  12.631 -0.4499 -0.2353  0.0825
13722TIP3    H162657   1.299   5.021  12.586 -0.6793  0.5916  1.0620
13722TIP3    H262658   1.312   4.918  12.696 -0.7585 -0.0526  0.4752
13723TIP3   OH262659   0.424   3.975   1.965  0.2619  0.7985 -0.2088
13723TIP3    H162660   0.339   4.016   1.947  0.4181  1.4826  0.5977
13723TIP3    H262661   0.456   4.018   2.044  1.9960  1.5064 -1.2406
13724TIP3   OH262662   0.833   2.680  15.759  0.7254  0.3144 -0.2326
13724TIP3    H162663   0.893   2.623  15.712 -2.2463 -0.8844 -2.9377
13724TIP3    H262664   0.857   2.768  15.730  0.1312 -0.2730 -2.7934
13725TIP3   OH262665   4.971   4.171   5.003 -0.4448 -0.1796  0.3202
13725TIP3    H162666   4.945   4.238   5.066 -0.2086  0.0685  0.1548
13725TIP3    H262667   4.902   4.104   5.010  1.1407 -1.6937  3.0738
13726TIP3   OH262668   0.120   1.189   5.193 -0.1558  0.4780  0.7724
13726TIP3    H162669   0.052   1.154   5.252 -0.9508 -0.2518 -0.5266
13726TIP3    H262670   0.114   1.284   5.205 -0.2510  0.3497  1.9047
13727TIP3   OH262671   5.204   5.755   6.084  0.5922 -0.2459  0.4678
13727TIP3    H162672   5.228   5.837   6.041 -0.9747 -0.1660 -0.3414
13727TIP3    H262673   5.196   5.778   6.176 -3.4887  1.5985 -0.0889
13728TIP3   OH262674   5.147   3.044   1.217 -0.8867 -0.1520  0.2580
13728TIP3    H162675   5.209   3.031   1.289  1.3897  0.4274 -1.4606
13728TIP3    H262676   5.139   3.139   1.210  0.5692 -0.1034 -1.4819
13729TIP3   OH262677   5.365   0.819  12.648  0.3954  0.0481 -0.0891
13729TIP3    H162678   5.423   0.851  12.580 -0.8865  0.5274 -1.0067
13729TIP3    H262679   5.283   0.799  12.603 -1.4054  2.8552  1.5797
13730TIP3   OH262680   3.289   3.580  14.407  0.0505  0.1452  0.4590
13730TIP3    H162681   3.254   3.660  14.448 -2.8759 -0.9464  0.2588
13730TIP3    H262682   3.227   3.558  14.339  0.8116 -2.3029  0.4693
13731TIP3   OH262683   0.600   6.190   5.404  0.1847  0.3598  0.1284
13731TIP3    H162684   0.599   6.274   5.359  0.2614  0.1040 -0.3537
13731TIP3    H262685   0.509   6.175   5.429  0.0653  0.2899 -0.3425
13732TIP3   OH262686   2.388   2.102   0.172  0.1856  0.7267 -0.3668
13732TIP3    H162687   2.475   2.086   0.210 -0.7621 -1.3951  1.1100
13732TIP3    H262688   2.395   2.071   0.082  1.1526  1.2654 -0.4871
13733TIP3   OH262689   2.051   3.770  15.258 -0.2148  0.8386  0.6857
13733TIP3    H162690   1.957   3.774  15.270 -0.3077 -0.2033  0.4361
13733TIP3    H262691   2.088   3.806  15.339 -0.8206  0.9638  0.9054
13734TIP3   OH262692   5.439   6.515  12.293 -0.3773 -0.3888  0.2634
13734TIP3    H162693   5.475   6.590  12.246  1.3275 -2.5937 -2.2347
13734TIP3    H262694   5.503   6.497  12.363 -0.5829  0.2099  0.6106
13735TIP3   OH262695   4.966   3.206   2.535 -0.0566 -0.2666 -0.0213
13735TIP3    H162696   5.019   3.169   2.465  0.6531 -0.8100  0.7805
13735TIP3    H262697   4.948   3.132   2.593 -0.4188  0.2244  0.5057
13736TIP3   OH262698   0.839   2.281  16.187 -0.3848 -0.2833 -0.0000
13736TIP3    H162699   0.790   2.310  16.110  0.4174  0.3290 -0.2944
13736TIP3    H262700   0.892   2.208  16.156 -0.8219 -0.7051  0.2292
13737TIP3   OH262701   5.592   6.765  10.501  0.1363  0.5362  0.1703
13737TIP3    H162702   5.587   6.680  10.457  0.3782  0.5630  0.0907
13737TIP3    H262703   5.669   6.807  10.463  0.7092  0.3112  1.0463
13738TIP3   OH262704   1.540   0.447   4.222 -0.0215 -0.8515  0.0752
13738TIP3    H162705   1.506   0.502   4.151  1.2209  0.2896  0.3125
13738TIP3    H262706   1.466   0.393   4.248 -0.9084 -0.2585 -1.1104
13739TIP3   OH262707   0.231   3.312   3.996 -0.2182  0.2617 -0.0197
13739TIP3    H162708   0.214   3.403   3.971  2.2335  0.6075 -0.6197
13739TIP3    H262709   0.266   3.272   3.916  2.6496 -0.0636  1.3063
13740TIP3   OH262710   4.533   5.250   5.959 -0.0551  0.8751  0.7320
13740TIP3    H162711   4.445   5.220   5.937  0.3227 -0.4693  0.9670
13740TIP3    H262712   4.521   5.313   6.030 -0.7648 -0.0944  1.4940
13741TIP3   OH262713   0.878   2.370   3.899 -0.3318  0.0397 -0.4011
13741TIP3    H162714   0.930   2.426   3.841  0.3811 -0.6308 -0.4289
13741TIP3    H262715   0.901   2.281   3.872 -0.1076 -0.2849  0.8041
13742TIP3   OH262716   4.845   6.225  14.641 -0.2187  0.4029 -0.1608
13742TIP3    H162717   4.833   6.317  14.617  3.4360  1.3147  0.8342
13742TIP3    H262718   4.925   6.199  14.596  0.2317 -1.4805  1.5609
13743TIP3   OH262719   3.043   0.328   3.264  0.2285  0.1539 -0.2101
13743TIP3    H162720   2.982   0.279   3.208 -0.5512  0.8860 -0.0211
13743TIP3    H262721   3.094   0.382   3.203  0.1165  0.1534 -0.3038
13744TIP3   OH262722   0.604   2.132   1.944 -0.2447  0.5207 -0.0167
13744TIP3    H162723   0.695   2.109   1.925 -0.3026 -0.3194  0.6495
13744TIP3    H262724   0.553   2.090   1.875 -0.0920  1.4642 -0.7152
13745TIP3   OH262725   3.474   3.858  13.986 -0.1382 -0.4272  0.0655
13745TIP3    H162726   3.410   3.913  14.031 -0.8327 -0.9226 -0.2914
13745TIP3    H262727   3.547   3.916  13.966 -0.4740  0.1434  0.4937
13746TIP3   OH262728   3.514   6.761  11.065  0.2541  0.3780 -0.4020
13746TIP3    H162729   3.520   6.791  11.155  1.0400  0.3343 -0.4320
13746TIP3    H262730   3.420   6.754  11.048  0.1027 -0.8857  0.8322
13747TIP3   OH262731   5.441   4.214   2.779 -0.4413 -0.0709  0.1912
13747TIP3    H162732   5.423   4.192   2.687 -1.4075 -1.2523  0.6323
13747TIP3    H262733   5.408   4.138   2.828  0.1544  0.5020  1.5073
13748TIP3   OH262734   5.243   4.230  14.807 -0.3505  0.6234 -0.4408
13748TIP3    H162735   5.286   4.297  14.754  0.5943  0.5775  0.2476
13748TIP3    H262736   5.154   4.263  14.819  0.3170  2.1763  0.5529
13749TIP3   OH262737   1.850   4.808   4.042 -0.3741  0.2448 -0.5301
13749TIP3    H162738   1.774   4.837   4.093 -0.5586  0.8272 -1.1178
13749TIP3    H262739   1.908   4.767   4.106 -1.2506 -0.3570 -0.0998
13750TIP3   OH262740   4.700   3.001  15.108 -0.2880  0.3889 -0.1566
13750TIP3    H162741   4.790   2.980  15.085 -0.3206  1.0840 -0.9504
13750TIP3    H262742   4.663   2.919  15.140  0.2598 -0.2071 -1.0260
13751TIP3   OH262743   4.629   2.698  16.760 -0.2734 -0.1116 -0.2246
13751TIP3    H162744   4.535   2.690  16.774 -0.3075 -1.3304 -0.9407
13751TIP3    H262745   4.652   2.619  16.710  0.7486  1.1925 -1.9319
13752TIP3   OH262746   6.516   3.785   1.448  0.1577 -0.5657 -0.2600
13752TIP3    H162747   6.440   3.745   1.405  0.1131 -0.3074 -0.4274
13752TIP3    H262748   6.555   3.840   1.380  0.7948 -1.0909 -0.3332
13753TIP3   OH262749   3.224   0.380  14.735 -0.5081 -0.7114  0.1677
13753TIP3    H162750   3.273   0.399  14.655 -0.0906  0.1227  0.6068
13753TIP3    H262751   3.290   0.376  14.804 -0.6914 -2.8719  0.2732
13754TIP3   OH262752   1.930   3.669   2.652 -0.4307 -0.6980 -0.0108
13754TIP3    H162753   1.916   3.762   2.667 -0.1450 -0.4122 -1.3809
13754TIP3    H262754   2.003   3.646   2.710 -0.7830 -0.1747  0.6502
13755TIP3   OH262755   5.477   3.526  12.027  0.1324  0.1183  0.1622
13755TIP3    H162756   5.416   3.453  12.016  0.1476  0.2410 -0.8522
13755TIP3    H262757   5.436   3.583  12.092 -0.7659  0.1225 -0.3928
13756TIP3   OH262758   2.427   5.180  15.345  0.4790  0.2262 -0.0610
13756TIP3    H162759   2.387   5.207  15.262  0.0311  1.4283  0.5144
13756TIP3    H262760   2.375   5.224  15.412  2.1247  1.0126  0.7611
13757TIP3   OH262761   3.252   4.812   4.361 -0.0352  0.1804  0.1762
13757TIP3    H162762   3.249   4.871   4.437  4.1435 -0.3559  0.9949
13757TIP3    H262763   3.207   4.733   4.390 -1.6795  1.2524  0.7073
13758TIP3   OH262764   5.804   2.137   1.511  0.4357  0.7748 -0.1583
13758TIP3    H162765   5.870   2.203   1.491 -1.5451  2.7732 -0.5612
13758TIP3    H262766   5.724   2.187   1.526 -0.5288 -1.3508  2.7197
13759TIP3   OH262767   0.708   5.319   6.203  0.6075  0.0952 -0.6821
13759TIP3    H162768   0.782   5.265   6.175  0.1733  0.6062 -2.9350
13759TIP3    H262769   0.637   5.256   6.216  1.3577 -0.3971  1.4836
13760TIP3   OH262770   5.573   4.867   5.545 -0.2787  0.4895  0.3367
13760TIP3    H162771   5.487   4.898   5.515  1.3696  2.6142 -2.7920
13760TIP3    H262772   5.630   4.943   5.538  2.2385 -1.2320  0.7118
13761TIP3   OH262773   3.880   0.952   5.610  0.1357 -0.0828  0.5315
13761TIP3    H162774   3.849   0.895   5.681  0.4985  1.3457  1.9198
13761TIP3    H262775   3.964   0.985   5.642  0.5136  0.2704 -0.7873
13762TIP3   OH262776   5.968   4.919  14.948 -0.7417  0.2334 -0.1271
13762TIP3    H162777   6.014   4.887  14.871  3.1269  0.4755  1.8612
13762TIP3    H262778   5.976   5.015  14.943 -0.2826  0.2407  0.6541
13763TIP3   OH262779   2.871   1.582   5.785 -0.4086  0.0601  0.2424
13763TIP3    H162780   2.785   1.549   5.810 -0.9366  1.1765 -0.0598
13763TIP3    H262781   2.886   1.547   5.697 -0.5380 -0.1548  0.3039
13764TIP3   OH262782   6.711   6.208  13.475  0.1834  0.0829 -0.3312
13764TIP3    H162783   6.795   6.254  13.474  0.3840 -0.0998  1.9813
13764TIP3    H262784   6.647   6.273  13.448  0.7258  1.1349  0.8322
13765TIP3   OH262785   2.731   5.894   0.006 -0.2399  0.0016 -0.0650
13765TIP3    H162786   2.809   5.848   0.037 -0.0333 -0.3015 -1.0061
13765TIP3    H262787   2.752   5.920  -0.084 -0.9259  0.6201 -0.0587
13766TIP3   OH262788   4.249   3.073  13.757 -0.0574  0.3831  0.3806
13766TIP3    H162789   4.174   3.049  13.811 -2.6029  0.7231 -2.6484
13766TIP3    H262790   4.268   2.994  13.706  1.9687  0.1912  1.3787
13767TIP3   OH262791   6.574   4.254   4.646 -0.2141  0.0115  0.0477
13767TIP3    H162792   6.615   4.219   4.725  1.1248 -0.8066 -0.9646
13767TIP3    H262793   6.594   4.347   4.647 -0.0069 -0.0386  0.5471
13768TIP3   OH262794   2.093   1.094   2.524  0.4234  0.4153  0.7469
13768TIP3    H162795   2.182   1.122   2.547  0.4774 -0.4591  1.7212
13768TIP3    H262796   2.053   1.071   2.608 -0.3742 -0.1817  0.2184
13769TIP3   OH262797   3.951   5.212   4.751  0.3560  0.1317 -0.0192
13769TIP3    H162798   3.955   5.148   4.679  1.1135  0.9242 -0.6988
13769TIP3    H262799   4.028   5.192   4.804  1.1374  1.0505 -0.7559
13770TIP3   OH262800   1.420   0.114   5.750 -0.6589  0.8181  0.1596
13770TIP3    H162801   1.376   0.198   5.739  0.8109  1.6216  0.2498
13770TIP3    H262802   1.483   0.128   5.821  0.5942  0.0770 -0.7659
13771TIP3   OH262803   0.574   0.950  14.971 -0.4509 -0.2992  0.2331
13771TIP3    H162804   0.585   1.014  14.901 -0.7135  0.6415  1.0238
13771TIP3    H262805   0.632   0.878  14.947  0.2589  0.4676 -0.4206
13772TIP3   OH262806   3.007   0.170  10.454  0.0394 -0.4969 -0.2840
13772TIP3    H162807   2.916   0.169  10.423  0.1421  1.2353 -0.7281
13772TIP3    H262808   3.038   0.081  10.439 -0.9648 -0.5985 -2.0411
13773TIP3   OH262809   0.637   0.271   1.654 -0.2825  0.4848  0.2127
13773TIP3    H162810   0.578   0.244   1.725 -0.9207  1.0620 -0.0951
13773TIP3    H262811   0.683   0.347   1.689  1.7723 -1.1005  1.2138
13774TIP3   OH262812   2.726   5.084  12.110 -0.5840  0.2517 -0.5513
13774TIP3    H162813   2.677   5.002  12.111 -0.9544  0.3823 -2.6790
13774TIP3    H262814   2.813   5.060  12.140 -0.5823 -1.0306 -1.4783
13775TIP3   OH262815   3.737   0.255  12.860  0.5676  0.4862  0.5769
13775TIP3    H162816   3.771   0.318  12.923 -2.4162  0.6485  2.2400
13775TIP3    H262817   3.720   0.307  12.781  2.6504  0.6561  0.1788
13776TIP3   OH262818   0.054   1.332  12.987  0.0930 -0.2005  0.5270
13776TIP3    H162819   0.008   1.403  12.943 -3.2266 -1.3137  1.8469
13776TIP3    H262820   0.126   1.309  12.928 -0.5738  2.1879 -1.3661
13777TIP3   OH262821   5.390   1.110  10.983  0.1539  0.2803 -0.2209
13777TIP3    H162822   5.397   1.071  10.896  2.0199  0.1453 -0.0469
13777TIP3    H262823   5.417   1.201  10.971 -3.4499  1.4615 -0.4780
13778TIP3   OH262824   4.628   6.008  13.509  0.4557  0.2622 -0.0584
13778TIP3    H162825   4.608   6.094  13.548  0.9291  0.1161  0.5228
13778TIP3    H262826   4.563   5.997  13.440  0.4817  1.1608 -0.2406
13779TIP3   OH262827   2.956   1.569  12.289  0.3269 -0.2997 -0.0022
13779TIP3    H162828   3.030   1.530  12.243  2.0396  0.8175  1.6488
13779TIP3    H262829   2.925   1.500  12.348  0.3535 -0.6219 -0.3625
13780TIP3   OH262830   5.266   6.573  14.107 -0.2762  0.0476  0.3107
13780TIP3    H162831   5.281   6.510  14.037 -0.1624  0.1080  0.2810
13780TIP3    H262832   5.255   6.519  14.186  2.9657  0.0453  0.8875
13781TIP3   OH262833   3.653   6.413   1.958  0.5078 -0.0085 -0.7668
13781TIP3    H162834   3.629   6.453   2.042 -1.6457 -2.0617 -0.2994
13781TIP3    H262835   3.735   6.456   1.934  1.6468  0.1474  2.7529
13782TIP3   OH262836   4.882   3.559   5.361 -0.2953 -0.0196 -0.1104
13782TIP3    H162837   4.872   3.477   5.312 -0.1846  0.7500 -1.4464
13782TIP3    H262838   4.795   3.598   5.363 -0.5785 -0.6239  1.4287
13783TIP3   OH262839   2.199   4.284   5.199  0.0830  0.3243 -0.0016
13783TIP3    H162840   2.273   4.302   5.141  0.5832 -0.7933  0.2481
13783TIP3    H262841   2.126   4.335   5.164  0.4643 -0.0873 -1.4329
13784TIP3   OH262842   3.812   0.470   0.563  0.5923  0.3346 -0.0183
13784TIP3    H162843   3.735   0.514   0.601  0.0094  0.1455 -0.9612
13784TIP3    H262844   3.803   0.482   0.469  1.4376 -0.1736 -0.1762
13785TIP3   OH262845   6.346   5.675   3.190  0.6129  0.4454 -0.2650
13785TIP3    H162846   6.378   5.701   3.104  0.1945  0.8066 -0.3140
13785TIP3    H262847   6.389   5.735   3.251  0.7408  0.3303 -0.2408
13786TIP3   OH262848   0.515   0.369   4.294  0.4794 -0.8067 -0.0426
13786TIP3    H162849   0.526   0.274   4.302  1.3453 -0.7202 -0.1975
13786TIP3    H262850   0.578   0.406   4.356  0.1032 -0.3303  0.0608
13787TIP3   OH262851   5.873   0.726  12.427  0.1777  0.5800  0.5031
13787TIP3    H162852   5.787   0.724  12.469  0.0964  0.1851  0.3184
13787TIP3    H262853   5.863   0.673  12.349  0.6409  0.3887  0.5688
13788TIP3   OH262854   3.204   1.477  10.902  0.2476  0.7677 -0.1899
13788TIP3    H162855   3.257   1.449  10.828 -0.5175  0.1809 -0.5255
13788TIP3    H262856   3.172   1.564  10.878  1.5580  1.4123  0.2907
13789TIP3   OH262857   5.925   0.701   3.143 -0.5867 -0.3184  0.3703
13789TIP3    H162858   6.003   0.745   3.108 -1.4628  0.9576 -0.0681
13789TIP3    H262859   5.904   0.750   3.222 -0.8001 -0.8276  0.6324
13790TIP3   OH262860   2.631   2.004   3.173  0.1059 -0.1488  0.4236
13790TIP3    H162861   2.688   1.941   3.130 -0.4970 -0.3325 -0.1265
13790TIP3    H262862   2.563   1.951   3.213 -0.7347  0.1620 -0.5370
13791TIP3   OH262863   5.156   3.301  10.392  0.2053  0.1414  0.1014
13791TIP3    H162864   5.231   3.350  10.360 -0.0799  1.3787  1.2598
13791TIP3    H262865   5.164   3.303  10.487 -0.9245 -0.3027  0.2241
13792TIP3   OH262866   2.664   1.359  12.286  0.1242 -0.1999 -0.5102
13792TIP3    H162867   2.706   1.354  12.200 -0.5215  0.6160 -0.8871
13792TIP3    H262868   2.736   1.364  12.349  0.6132  1.7239 -1.1740
13793TIP3   OH262869   6.602   2.512   1.482  0.3953 -0.1970 -0.2087
13793TIP3    H162870   6.693   2.493   1.504  1.0090 -1.1038 -3.1065
13793TIP3    H262871   6.606   2.592   1.429 -0.5072 -0.1577 -0.2405
13794TIP3   OH262872   5.463   1.407   0.490  0.2129 -0.0947  0.3515
13794TIP3    H162873   5.387   1.462   0.474  0.0498 -0.8351 -1.7360
13794TIP3    H262874   5.429   1.332   0.539 -0.0168  0.4450  1.0452
13795TIP3   OH262875   5.923   4.358  14.198  0.0574 -0.2882 -0.1047
13795TIP3    H162876   5.915   4.277  14.248  1.7808 -0.2529  0.3013
13795TIP3    H262877   5.858   4.417  14.235 -0.6895 -1.2287  0.1072
13796TIP3   OH262878   3.222   5.347   0.374  0.5069  0.0664 -0.2933
13796TIP3    H162879   3.127   5.338   0.376  0.5495 -0.3753  0.0171
13796TIP3    H262880   3.240   5.398   0.295 -0.0121  0.5232 -0.1208
13797TIP3   OH262881   0.997   1.343   0.722  1.3935 -0.1219 -0.1576
13797TIP3    H162882   1.011   1.358   0.629  0.5614 -0.4846 -0.3456
13797TIP3    H262883   1.083   1.359   0.762  1.5132  1.0409 -0.8505
13798TIP3   OH262884   5.862   2.716   1.872 -0.6204  0.1638  0.3428
13798TIP3    H162885   5.780   2.734   1.918 -1.3456 -1.7135 -0.1142
13798TIP3    H262886   5.834   2.673   1.791  0.7549  0.9768 -0.5906
13799TIP3   OH262887   5.217   2.767   2.225 -0.0808  0.6535 -0.6196
13799TIP3    H162888   5.191   2.788   2.136 -0.3730 -1.1991 -1.0047
13799TIP3    H262889   5.312   2.763   2.222 -0.0942  0.4955 -0.8854
13800TIP3   OH262890   4.473   1.032   5.114  0.3584 -0.4242 -0.1394
13800TIP3    H162891   4.404   1.010   5.051 -0.1439 -1.1120  0.6252
13800TIP3    H262892   4.437   1.104   5.165  0.9218  0.3966 -0.8720
13801TIP3   OH262893   5.444   0.349  13.851  0.0596 -0.6885 -0.1839
13801TIP3    H162894   5.417   0.349  13.759 -0.4110 -4.7373 -0.2537
13801TIP3    H262895   5.393   0.419  13.891 -0.3072  0.6881 -2.8402
13802TIP3   OH262896   6.108   5.277  11.592 -0.4745 -0.2823  0.4808
13802TIP3    H162897   6.026   5.238  11.563  0.1884 -1.9165  0.6848
13802TIP3    H262898   6.082   5.344  11.655 -1.7746  1.4305 -1.7435
13803TIP3   OH262899   2.881   0.768   2.567  0.5409 -0.4802  0.5398
13803TIP3    H162900   2.848   0.683   2.597  1.8298 -1.4893 -0.7641
13803TIP3    H262901   2.975   0.763   2.580  0.7291  0.3993 -0.4020
13804TIP3   OH262902   2.835   1.572  15.668 -0.0075 -0.4419  0.1701
13804TIP3    H162903   2.777   1.543  15.739  1.2412 -1.3252  0.8550
13804TIP3    H262904   2.802   1.526  15.591  0.2091 -1.5122  0.6977
13805TIP3   OH262905   3.960   4.235   2.305  0.0001  0.4195 -0.1378
13805TIP3    H162906   3.914   4.154   2.282  1.6248 -0.3410 -0.8368
13805TIP3    H262907   3.941   4.294   2.232  0.7169 -0.1536 -0.8089
13806TIP3   OH262908   1.013   0.595   0.334 -0.0987  0.1647  0.4390
13806TIP3    H162909   0.923   0.598   0.301  0.3219  1.6173 -0.6850
13806TIP3    H262910   1.062   0.550   0.264 -0.2932 -2.9490  2.1075
13807TIP3   OH262911   4.051   5.483  10.406  0.1969  0.8289  0.2085
13807TIP3    H162912   4.019   5.551  10.465 -2.2906  0.4124 -0.5332
13807TIP3    H262913   3.974   5.429  10.388  1.2565 -0.0323 -2.1281
13808TIP3   OH262914   0.364   2.406  15.934  0.0246 -0.0839 -0.7693
13808TIP3    H162915   0.356   2.342  16.005 -1.3443 -1.2008 -1.8869
13808TIP3    H262916   0.420   2.475  15.971  1.6592 -1.9364  0.4567
13809TIP3   OH262917   4.630   2.228  15.576  0.3047  0.0823 -0.5881
13809TIP3    H162918   4.714   2.190  15.551 -0.1268 -1.0401 -0.4049
13809TIP3    H262919   4.613   2.194  15.664  0.4011  1.5917  0.0512
13810TIP3   OH262920   5.662   5.688   0.218 -0.0602 -0.1194  0.3550
13810TIP3    H162921   5.677   5.599   0.248 -0.8691 -1.0010 -1.6318
13810TIP3    H262922   5.612   5.677   0.136 -0.7614  2.1700  0.4042
13811TIP3   OH262923   1.701   1.705   2.377 -0.0880 -0.2158  0.0866
13811TIP3    H162924   1.796   1.715   2.382 -0.0934 -0.4357  0.6294
13811TIP3    H262925   1.686   1.611   2.366 -0.2498 -0.1897  0.0761
13812TIP3   OH262926   4.907   4.924  14.683  0.5410  0.8752  0.2472
13812TIP3    H162927   4.994   4.942  14.717  0.5284  0.7752  0.3317
13812TIP3    H262928   4.874   4.853  14.737  1.2015 -0.4871 -1.0374
13813TIP3   OH262929   3.295   2.724  12.724 -0.3153  0.3332  0.0670
13813TIP3    H162930   3.247   2.710  12.806 -1.4902 -2.1864 -0.9598
13813TIP3    H262931   3.229   2.717  12.655  0.8810  1.0049 -1.2049
13814TIP3   OH262932   3.562   4.029  14.266  0.3298  0.1470 -0.0292
13814TIP3    H162933   3.656   4.041  14.251  0.4290 -1.0352 -0.5041
13814TIP3    H262934   3.557   3.949  14.318 -0.4291  0.0488 -0.2482
13815TIP3   OH262935   3.687   5.377   1.842  0.4321  0.6083  0.3415
13815TIP3    H162936   3.749   5.308   1.866 -0.5743  0.3934  2.5482
13815TIP3    H262937   3.690   5.438   1.915 -1.1108  1.1948 -0.0535
13816TIP3   OH262938   6.836   2.435   3.506 -0.1930 -0.5837  0.8029
13816TIP3    H162939   6.868   2.494   3.574  0.3729  1.3840 -1.0265
13816TIP3    H262940   6.752   2.402   3.539 -0.0480  0.4943  2.3327
13817TIP3   OH262941   1.220   0.482  13.663 -0.1046 -0.3137  0.4217
13817TIP3    H162942   1.229   0.463  13.756  1.7645 -1.8940 -0.0166
13817TIP3    H262943   1.132   0.519  13.654 -0.9820 -1.7386  2.5520
13818TIP3   OH262944   0.164   2.764  11.459  0.1802  0.0291 -0.3422
13818TIP3    H162945   0.214   2.696  11.414 -0.2052 -0.0713 -0.6220
13818TIP3    H262946   0.211   2.845  11.440 -0.3689  0.0873 -1.5152
13819TIP3   OH262947   4.778   1.097   5.472  0.0693  0.3568  0.6311
13819TIP3    H162948   4.765   1.191   5.458  1.7202  0.6109  0.5836
13819TIP3    H262949   4.726   1.077   5.550  0.5975  1.5692  1.3184
13820TIP3   OH262950   0.310   4.106   5.645  0.1741 -0.3582 -0.3867
13820TIP3    H162951   0.333   4.117   5.737  0.4711 -1.5385 -0.2994
13820TIP3    H262952   0.243   4.172   5.629 -0.8795 -1.0254  1.0458
13821TIP3   OH262953   5.266   5.651  13.413  0.3892  0.4779  0.8782
13821TIP3    H162954   5.351   5.617  13.441  0.2613 -1.6218 -0.9882
13821TIP3    H262955   5.275   5.662  13.318 -0.4531  3.3753  1.0258
13822TIP3   OH262956   3.511   3.337  13.615 -0.4960 -0.0697 -0.4253
13822TIP3    H162957   3.546   3.274  13.553 -0.9441  0.0502 -0.8082
13822TIP3    H262958   3.579   3.404  13.623 -0.0382 -0.5741 -0.0460
13823TIP3   OH262959   1.462   1.184  12.706 -0.3040  0.1527 -0.2250
13823TIP3    H162960   1.383   1.222  12.667 -0.5603  1.9759  1.8357
13823TIP3    H262961   1.534   1.231  12.663 -0.4874  0.6345 -0.0209
13824TIP3   OH262962   5.471   5.793  14.925 -0.0628  0.1189 -0.3358
13824TIP3    H162963   5.387   5.840  14.926 -0.9136 -1.3262  0.0396
13824TIP3    H262964   5.530   5.848  14.975 -1.0015  0.8154  0.0480
13825TIP3   OH262965   4.565   0.752  11.638  0.3077 -0.6282  0.7696
13825TIP3    H162966   4.653   0.786  11.626  0.4332 -1.1695  0.0997
13825TIP3    H262967   4.552   0.692  11.564 -0.8610 -0.0532  0.4829
13826TIP3   OH262968   4.829   6.573   5.538 -0.1094 -0.0145  0.2880
13826TIP3    H162969   4.785   6.639   5.592 -0.8828 -1.5874  1.6663
13826TIP3    H262970   4.761   6.544   5.476  0.5227  1.1542 -1.0075
13827TIP3   OH262971   2.663   4.731   1.723  0.3344  0.0612  0.0502
13827TIP3    H162972   2.674   4.679   1.803 -2.0432 -0.7802 -0.0994
13827TIP3    H262973   2.669   4.667   1.652  2.9561  0.8784 -0.5606
13828TIP3   OH262974   3.541   5.372  16.639 -0.2596  0.4720 -0.5986
13828TIP3    H162975   3.485   5.450  16.634 -0.2637  0.5042 -0.1026
13828TIP3    H262976   3.629   5.406  16.649 -0.2482  0.4176 -0.5067
13829TIP3   OH262977   3.419   0.655  12.988 -0.2058 -0.6223 -0.2262
13829TIP3    H162978   3.503   0.682  12.951  0.5142  0.1944  1.8809
13829TIP3    H262979   3.431   0.562  13.010  0.8782 -0.0463  1.8419
13830TIP3   OH262980   4.974   5.042   3.768 -0.3173  0.7067  0.0504
13830TIP3    H162981   4.942   5.131   3.752  1.4216  1.1792 -1.2402
13830TIP3    H262982   4.970   5.000   3.682  1.4246  0.4793  0.0351
13831TIP3   OH262983   5.252   1.624  11.150 -0.7325  0.1863  0.2580
13831TIP3    H162984   5.294   1.622  11.236  0.3546 -1.5894 -0.2423
13831TIP3    H262985   5.225   1.533  11.135 -1.2388  0.5385 -1.1041
13832TIP3   OH262986   3.757   6.264   0.865  0.3343 -0.2229  0.0938
13832TIP3    H162987   3.830   6.203   0.877  0.9723  0.4059 -0.5216
13832TIP3    H262988   3.709   6.260   0.948  0.7915 -0.9962  0.3315
13833TIP3   OH262989   4.320   3.370   5.569  0.5323 -0.0963  0.7878
13833TIP3    H162990   4.272   3.406   5.644  1.0156  2.8869 -0.2034
13833TIP3    H262991   4.266   3.393   5.493  0.6476 -2.0175  0.0702
13834TIP3   OH262992   6.373   5.692  14.198  0.0306 -0.0969 -0.1782
13834TIP3    H162993   6.313   5.620  14.179  1.4208 -1.3577  0.0383
13834TIP3    H262994   6.325   5.749  14.258 -0.8445 -1.1929  0.1833
13835TIP3   OH262995   0.003   2.627  14.285 -0.3846  0.1000  0.4586
13835TIP3    H162996   0.078   2.664  14.239 -0.7128  1.8638  1.2680
13835TIP3    H262997   0.038   2.553  14.334  0.5525  0.0837 -0.2190
13836TIP3   OH262998   4.578   0.168  14.536  0.6498 -0.3265  0.2223
13836TIP3    H162999   4.551   0.181  14.445 -0.6631  0.8120  0.7336
13836TIP3    H263000   4.657   0.114  14.530  1.9401  1.6079 -1.7222
13837TIP3   OH263001   3.593   3.836   1.918  0.6038 -0.1687 -0.6546
13837TIP3    H163002   3.510   3.811   1.958  0.5079 -0.3041 -0.9406
13837TIP3    H263003   3.578   3.925   1.886 -0.0266 -0.8706 -2.3718
13838TIP3   OH263004   0.694   3.063  14.758 -0.2799 -0.5785  0.2487
13838TIP3    H163005   0.696   3.092  14.667  0.7568 -1.6848 -0.1007
13838TIP3    H263006   0.602   3.043  14.775 -0.9405  2.1168  0.2923
13839TIP3   OH263007   6.815   0.026   4.554 -0.0794  0.2213 -0.6283
13839TIP3    H163008   6.813  -0.070   4.555 -0.8003  0.2351 -0.3050
13839TIP3    H263009   6.743   0.051   4.496 -0.9953  0.5769  0.6116
13840TIP3   OH263010   4.441   2.038  11.510 -0.4338  0.1694 -0.9036
13840TIP3    H163011   4.453   2.073  11.422 -0.4460  1.5919 -0.3654
13840TIP3    H263012   4.457   2.113  11.568 -2.2407 -0.2775  0.2340
13841TIP3   OH263013   2.526   3.495   6.275 -0.0492 -0.1770  0.3013
13841TIP3    H163014   2.431   3.505   6.264 -0.6322  0.5484  4.3816
13841TIP3    H263015   2.563   3.543   6.201 -2.9575  4.0933  1.2038
13842TIP3   OH263016   4.300   4.778  14.883 -0.0590 -0.0420  0.5288
13842TIP3    H163017   4.395   4.775  14.878 -0.1501 -0.9502 -1.8882
13842TIP3    H263018   4.279   4.871  14.875  0.5903  0.0328 -0.4665
13843TIP3   OH263019   4.033   5.906  16.460  0.1486  0.3479 -0.4967
13843TIP3    H163020   3.973   5.968  16.502 -0.3658 -1.1784  1.1059
13843TIP3    H263021   4.120   5.939  16.481 -0.0935 -0.4529  2.0002
13844TIP3   OH263022   1.127   4.999   3.066  0.1311 -0.3513 -0.0661
13844TIP3    H163023   1.115   4.914   3.108 -0.7615 -0.4873 -0.5507
13844TIP3    H263024   1.039   5.038   3.067  0.5318  0.5628  0.1506
13845TIP3   OH263025   1.766   6.509   0.392  0.8684 -0.5109  0.0830
13845TIP3    H163026   1.769   6.564   0.469  1.3251 -1.2290  0.5909
13845TIP3    H263027   1.744   6.569   0.320 -2.0085 -0.2266  1.1107
13846TIP3   OH263028   3.603   0.695  13.326 -0.1711  0.1503  0.0845
13846TIP3    H163029   3.691   0.730  13.313  0.2533 -0.4513  1.2116
13846TIP3    H263030   3.559   0.761  13.380 -0.5413  0.6211 -0.7746
13847TIP3   OH263031   4.892   4.467  17.084  0.1060 -0.2542 -0.4963
13847TIP3    H163032   4.844   4.522  17.023 -3.0937  0.5369  2.3649
13847TIP3    H263033   4.871   4.377  17.058  2.1068 -0.1386 -2.8085
13848TIP3   OH263034   6.515   3.692   0.886  0.4580 -0.3808  0.5872
13848TIP3    H163035   6.434   3.667   0.842  0.8515 -2.1982  0.8045
13848TIP3    H263036   6.528   3.784   0.862 -0.9103 -0.4584 -0.6072
13849TIP3   OH263037   2.308   3.269   5.239 -0.5962  0.3878 -0.1559
13849TIP3    H163038   2.319   3.298   5.148  0.6964 -0.0323 -0.1445
13849TIP3    H263039   2.229   3.214   5.237 -0.9787  0.9489 -0.8783
13850TIP3   OH263040   0.550   5.186   5.033  0.2181  0.3621 -0.2948
13850TIP3    H163041   0.642   5.160   5.027  0.4867  0.2205  2.6733
13850TIP3    H263042   0.501   5.105   5.024  0.5764  0.0239  0.6396
13851TIP3   OH263043   6.288   1.573   1.831 -0.1757  0.5480  0.2407
13851TIP3    H163044   6.327   1.574   1.743  0.0522 -1.0436  0.2815
13851TIP3    H263045   6.319   1.653   1.872 -2.5248  2.7912 -2.0276
13852TIP3   OH263046   6.507   3.906  16.014 -0.3225  0.5639  0.2624
13852TIP3    H163047   6.531   3.996  16.036 -0.3225  0.5785  0.2038
13852TIP3    H263048   6.590   3.860  16.006 -0.2860  0.7780 -0.6386
13853TIP3   OH263049   6.047   6.341  15.011  0.2171  0.0631 -0.3855
13853TIP3    H163050   5.954   6.322  15.025  0.3956  0.2779  1.3084
13853TIP3    H263051   6.052   6.373  14.920 -1.1272 -1.2683 -0.9582
13854TIP3   OH263052   4.538   5.125  11.114  0.0889 -0.4468 -0.5231
13854TIP3    H163053   4.605   5.161  11.056  0.3297  1.4275  0.8497
13854TIP3    H263054   4.495   5.202  11.152  0.2800 -1.5815  2.1807
13855TIP3   OH263055   5.311   6.771   2.050 -0.3230 -0.0703  0.1664
13855TIP3    H163056   5.375   6.833   2.015  2.3514 -1.8996  1.4634
13855TIP3    H263057   5.305   6.794   2.143 -0.1443 -1.0706  0.4271
13856TIP3   OH263058   3.479   1.728  14.107  0.2193 -0.2451  0.1242
13856TIP3    H163059   3.473   1.806  14.052  2.0555  0.6234  1.0490
13856TIP3    H263060   3.394   1.685  14.098 -0.9510  1.9946 -0.2290
13857TIP3   OH263061   5.839   6.081   0.053  0.2225  0.1223  0.4687
13857TIP3    H163062   5.906   6.139   0.090 -0.2805  0.0470  1.5358
13857TIP3    H263063   5.797   6.041   0.129 -1.0292  0.1560 -0.1778
13858TIP3   OH263064   0.265   5.785  14.108 -0.0461 -0.1298  0.0931
13858TIP3    H163065   0.338   5.788  14.047  1.4131 -1.8905  1.6405
13858TIP3    H263066   0.238   5.693  14.110 -1.4840  0.2664  0.5221
13859TIP3   OH263067   5.294   1.877   1.054 -0.4434 -0.6985 -0.4374
13859TIP3    H163068   5.386   1.901   1.037 -0.5700  1.0391  0.9592
13859TIP3    H263069   5.245   1.920   0.983 -0.3362  0.2054  0.0171
13860TIP3   OH263070   1.092   3.398   0.585  0.4291 -0.2946  0.0356
13860TIP3    H163071   1.077   3.380   0.492 -0.7063 -0.0149  0.1397
13860TIP3    H263072   1.096   3.312   0.626 -3.9388 -0.5896  0.3875
13861TIP3   OH263073   6.532   0.317   2.075 -0.5896 -0.0248  0.4608
13861TIP3    H163074   6.478   0.285   2.003 -0.1882  1.6457 -0.6535
13861TIP3    H263075   6.470   0.354   2.137 -0.8313  0.6687 -0.1734
13862TIP3   OH263076   6.770   0.209   0.368  0.2590 -0.3804 -0.5256
13862TIP3    H163077   6.699   0.172   0.316 -0.3725  1.6420 -1.2039
13862TIP3    H263078   6.727   0.250   0.442  0.9955 -1.5267  0.5672
13863TIP3   OH263079   0.749   6.055  13.288 -0.6557 -0.3411  0.2895
13863TIP3    H163080   0.792   6.041  13.204 -1.5120  0.7059 -0.3433
13863TIP3    H263081   0.661   6.019  13.277 -0.1379 -2.1132  1.4519
13864TIP3   OH263082   4.785   4.873  11.002 -0.2031 -0.0773  0.1520
13864TIP3    H163083   4.790   4.849  11.094 -1.0796  1.2599  0.5757
13864TIP3    H263084   4.774   4.968  11.002  0.8810  0.0938 -1.3709
13865TIP3   OH263085   5.277   3.070   2.316 -0.1076 -0.0271  0.4243
13865TIP3    H163086   5.195   3.023   2.304 -0.0657  0.0772 -0.2985
13865TIP3    H263087   5.250   3.160   2.335 -0.1658 -0.0290  0.3511
13866TIP3   OH263088   3.623   5.744   0.821 -0.2119  0.2740 -0.3729
13866TIP3    H163089   3.561   5.813   0.799 -1.6654 -0.4547  1.2401
13866TIP3    H263090   3.568   5.667   0.838  1.2560 -0.8615 -0.5865
13867TIP3   OH263091   2.093   0.966  15.676 -0.0353  0.8992 -0.2193
13867TIP3    H163092   2.168   1.007  15.634  1.3714  0.2682  1.5530
13867TIP3    H263093   2.120   0.875  15.690 -0.9524  0.7638  0.8045
13868TIP3   OH263094   4.493   5.970  14.765 -0.2413  0.3026 -0.2032
13868TIP3    H163095   4.555   5.921  14.818 -0.5712 -1.4191 -1.3064
13868TIP3    H263096   4.408   5.950  14.802 -0.3926 -0.1408 -0.7644
13869TIP3   OH263097   3.095   2.044   2.336 -0.1135 -0.2807  0.2057
13869TIP3    H163098   3.052   2.103   2.274 -1.2797 -0.9551  0.3445
13869TIP3    H263099   3.127   1.971   2.282  1.9852  0.7760 -0.0764
13870TIP3   OH263100   2.680   6.545  15.367 -0.5773  0.0024 -0.2328
13870TIP3    H163101   2.692   6.480  15.436 -0.0459 -0.4832 -0.7727
13870TIP3    H263102   2.600   6.591  15.392 -0.7295 -0.5698  0.3823
13871TIP3   OH263103   4.639   3.328  15.993 -0.3145  0.3081 -0.1974
13871TIP3    H163104   4.625   3.404  15.937 -0.7259 -0.8475 -1.7399
13871TIP3    H263105   4.729   3.300  15.974  0.0588  0.7720  0.8441
13872TIP3   OH263106   3.985   4.244  14.363  0.0151 -0.3862 -0.2281
13872TIP3    H163107   3.895   4.275  14.348  0.0193 -0.4931 -0.4714
13872TIP3    H263108   4.014   4.214  14.277  0.3141 -0.2717 -0.1659
13873TIP3   OH263109   2.551   2.302   6.031 -0.0532  0.4071 -0.6337
13873TIP3    H163110   2.599   2.257   5.962  1.1412 -0.2613  0.5795
13873TIP3    H263111   2.575   2.394   6.021  1.1537  0.1446 -0.3388
13874TIP3   OH263112   0.394   0.514   0.133 -0.2337  0.4402  0.7396
13874TIP3    H163113   0.337   0.469   0.070  1.5064 -2.7512  1.2624
13874TIP3    H263114   0.340   0.521   0.212 -0.2421 -1.9926  1.0365
13875TIP3   OH263115   2.750   6.355  13.816  0.0800  0.1952 -0.3668
13875TIP3    H163116   2.802   6.432  13.791  1.2728 -0.5480 -0.2591
13875TIP3    H263117   2.692   6.341  13.742  2.8492 -1.3573 -2.4277
13876TIP3   OH263118   4.200   3.447   5.796 -0.1574  0.1558 -0.3725
13876TIP3    H163119   4.185   3.357   5.825 -0.5354  0.8993  1.9868
13876TIP3    H263120   4.289   3.467   5.825  0.7789 -0.0933 -2.8353
13877TIP3   OH263121   3.659   6.390  11.674 -0.4755 -0.5291  0.0557
13877TIP3    H163122   3.723   6.320  11.688  0.1330 -0.5603 -2.4161
13877TIP3    H263123   3.580   6.361  11.720  0.9388 -0.8921  2.4647
13878TIP3   OH263124   1.113   4.544  11.528 -0.3172 -0.4336  0.1151
13878TIP3    H163125   1.094   4.465  11.477  0.9877 -1.8037  1.6292
13878TIP3    H263126   1.117   4.614  11.463 -2.5622 -1.3700 -1.1574
13879TIP3   OH263127   1.355   1.667  14.713 -0.4287  0.1198  0.0193
13879TIP3    H163128   1.439   1.674  14.669 -0.2483  1.5152  0.5457
13879TIP3    H263129   1.353   1.577  14.747  0.1833 -0.3985 -1.2711
13880TIP3   OH263130   6.032   1.807   3.608 -0.0417  0.0810 -0.2591
13880TIP3    H163131   6.106   1.831   3.553  0.4481  2.0608  1.1581
13880TIP3    H263132   5.959   1.859   3.574 -0.3023 -0.3670 -0.4006
13881TIP3   OH263133   6.822   5.990   2.178 -0.0190  0.5348 -0.0133
13881TIP3    H163134   6.736   5.974   2.138 -0.0326 -0.2682  0.3119
13881TIP3    H263135   6.842   6.081   2.157 -0.0450  0.1483 -1.8125
13882TIP3   OH263136   3.336   0.398  15.899  0.1347 -0.6881 -0.3314
13882TIP3    H163137   3.265   0.341  15.929 -0.4114  0.1759  0.0621
13882TIP3    H263138   3.304   0.433  15.816  0.2257 -0.5211 -0.2962
13883TIP3   OH263139   4.549   5.602   0.387  0.1502 -0.1090 -0.3534
13883TIP3    H163140   4.465   5.626   0.426 -1.1997 -1.0948 -2.4383
13883TIP3    H263141   4.542   5.632   0.296  1.4552 -1.5347 -0.9718
13884TIP3   OH263142   4.769   0.431   3.809 -0.4256  0.3257  0.7466
13884TIP3    H163143   4.744   0.417   3.900  0.3073  0.0040  0.9063
13884TIP3    H263144   4.824   0.356   3.787 -3.9897 -1.9801 -1.3118
13885TIP3   OH263145   4.449   2.422  16.646 -0.1509  0.0140  0.0484
13885TIP3    H163146   4.468   2.345  16.700 -0.7827  1.0908  1.9335
13885TIP3    H263147   4.353   2.423  16.640 -0.1959  0.9903  0.6411
13886TIP3   OH263148   4.221   6.421  14.653  0.4944  0.4398  0.5633
13886TIP3    H163149   4.179   6.377  14.726  1.5920  0.7458  1.3986
13886TIP3    H263150   4.272   6.491  14.693 -0.6426  2.0496 -0.6722
13887TIP3   OH263151   5.212   3.717   3.542 -0.5700 -0.1350  0.5247
13887TIP3    H163152   5.123   3.748   3.521 -0.3345  0.1976 -0.0064
13887TIP3    H263153   5.207   3.692   3.634 -0.7323  1.7559  1.0907
13888TIP3   OH263154   4.211   1.959   2.982 -0.1716 -0.6017  0.1929
13888TIP3    H163155   4.258   2.037   3.011  0.9013 -1.3165  0.4450
13888TIP3    H263156   4.144   1.945   3.050  0.9684 -1.0643  1.2633
13889TIP3   OH263157   0.810   0.295  16.300  0.1295 -0.1078 -0.2907
13889TIP3    H163158   0.750   0.324  16.232 -0.1890 -0.1564 -0.0331
13889TIP3    H263159   0.836   0.207  16.274 -1.8811 -1.1099  0.8706
13890TIP3   OH263160   2.184   5.062  11.454  0.3598  0.3714  0.5561
13890TIP3    H163161   2.103   5.047  11.504  0.4059 -2.0110  0.0556
13890TIP3    H263162   2.186   5.156  11.440 -2.2453  0.5400  0.7299
13891TIP3   OH263163   5.319   4.934   5.822 -0.0506  0.1769 -0.2986
13891TIP3    H163164   5.330   4.845   5.788 -0.5582 -0.3718  0.9247
13891TIP3    H263165   5.312   4.923   5.916  0.8017  1.6137 -0.0356
13892TIP3   OH263166   5.648   3.754  12.201  0.9044  0.0913  0.3946
13892TIP3    H163167   5.673   3.730  12.112 -0.1291  3.2437 -0.8638
13892TIP3    H263168   5.559   3.720  12.211  0.6813  0.5147 -0.1277
13893TIP3   OH263169   2.833   5.360  11.624  0.5287 -0.3651  0.6038
13893TIP3    H163170   2.825   5.297  11.696  0.5106 -0.6738  0.3363
13893TIP3    H263171   2.868   5.308  11.551 -1.5864 -0.6249 -0.3043
13894TIP3   OH263172   3.983   0.670  11.546 -0.3812  0.6403 -0.5499
13894TIP3    H163173   4.001   0.586  11.502  0.9164  0.9869 -0.7099
13894TIP3    H263174   3.899   0.698  11.510 -0.3989 -0.1676 -1.1581
13895TIP3   OH263175   0.932   0.993   0.766  0.1892  0.6676  0.5711
13895TIP3    H163176   0.915   0.929   0.835 -0.9544 -0.6989 -0.8802
13895TIP3    H263177   0.847   1.006   0.725  1.0653  0.2430 -1.5183
13896TIP3   OH263178   4.659   5.217   1.063  0.3392 -0.0597  0.0069
13896TIP3    H163179   4.692   5.129   1.081 -0.7310 -0.4505  0.1681
13896TIP3    H263180   4.673   5.229   0.969  3.1185  0.7667  0.4494
13897TIP3   OH263181   2.832   0.791   0.904 -0.4532 -0.0188  0.0414
13897TIP3    H163182   2.816   0.809   0.997 -0.2828 -0.4159  0.1515
13897TIP3    H263183   2.828   0.876   0.862 -2.3503 -0.0243  0.1341
13898TIP3   OH263184   2.291   3.857  10.400  0.2711 -0.0339 -0.3260
13898TIP3    H163185   2.198   3.870  10.414  0.5345 -0.2991  2.0383
13898TIP3    H263186   2.328   3.945  10.396  0.1070  0.0652  0.2889
13899TIP3   OH263187   1.838   3.345   2.648  0.5175  0.3670 -0.0994
13899TIP3    H163188   1.896   3.287   2.597  0.5709 -0.6658  1.0914
13899TIP3    H263189   1.880   3.351   2.734  0.0633  1.5186  0.0582
13900TIP3   OH263190   1.544   4.422   3.106  0.6153  0.1415  0.1912
13900TIP3    H163191   1.526   4.420   3.200 -0.9832 -1.6059 -0.1105
13900TIP3    H263192   1.459   4.432   3.064  1.2937  0.8461 -1.1053
13901TIP3   OH263193   1.254   0.961   2.118  0.1948 -0.4694 -0.5922
13901TIP3    H163194   1.260   0.872   2.152 -0.4511 -0.7188 -1.1009
13901TIP3    H263195   1.236   1.015   2.194  3.1696 -0.3817  0.1577
13902TIP3   OH263196   1.703   1.884   0.079  0.6135 -0.0266 -0.4380
13902TIP3    H163197   1.676   1.795   0.099 -1.2625  0.4807 -0.5854
13902TIP3    H263198   1.628   1.924   0.034  1.1284  1.8406  0.2379
13903TIP3   OH263199   1.313   1.676  12.736 -0.4294  0.6916 -0.7333
13903TIP3    H163200   1.397   1.723  12.738 -0.5776  0.9612  1.5280
13903TIP3    H263201   1.250   1.743  12.711 -0.1720  0.8418 -0.9958
13904TIP3   OH263202   2.599   2.984   3.928  0.1450  1.1144  0.2660
13904TIP3    H163203   2.673   2.937   3.965 -0.9785 -0.3835  0.6996
13904TIP3    H263204   2.558   3.028   4.003 -0.1963  0.7941  0.2734
13905TIP3   OH263205   1.141   6.507  16.905 -0.5022 -0.1952  0.5974
13905TIP3    H163206   1.111   6.467  16.823 -0.2865 -2.4891  1.5517
13905TIP3    H263207   1.224   6.548  16.883 -0.6128 -0.4881 -0.4080
13906TIP3   OH263208   4.437   2.005  15.427 -0.4603  0.2626  0.5055
13906TIP3    H163209   4.400   2.092  15.427 -0.0609  0.4377  0.5458
13906TIP3    H263210   4.522   2.014  15.383 -1.2602 -0.4950 -1.2965
13907TIP3   OH263211   3.227   6.308   2.660  0.1277 -0.4455 -0.1090
13907TIP3    H163212   3.245   6.394   2.620 -0.9587  0.5184  1.3692
13907TIP3    H263213   3.219   6.248   2.586  0.5944  0.7850 -1.1951
13908TIP3   OH263214   4.860   4.043   4.512 -0.1674 -0.4964  0.7283
13908TIP3    H163215   4.931   4.099   4.480 -0.3284  0.6060  2.1969
13908TIP3    H263216   4.901   3.957   4.522  1.0245  0.1440  1.6502
13909TIP3   OH263217   6.278   5.526  12.520 -0.0876 -0.5498 -0.2976
13909TIP3    H163218   6.182   5.524  12.517 -0.2464 -1.9664  2.5958
13909TIP3    H263219   6.298   5.592  12.586  1.0240  0.4383 -1.5672
13910TIP3   OH263220   3.725   5.126  15.347  0.5611 -0.0743  0.1876
13910TIP3    H163221   3.672   5.102  15.423  1.2288 -1.7400  0.1522
13910TIP3    H263222   3.774   5.047  15.325  0.0277  0.2018 -2.2876
13911TIP3   OH263223   0.945   2.090  12.794  0.4444  0.2471 -0.2204
13911TIP3    H163224   0.896   2.120  12.718  0.0545  0.1805  0.0004
13911TIP3    H263225   1.015   2.155  12.806  0.9985 -0.1632 -1.1031
13912TIP3   OH263226   1.910   3.376   3.450  0.3649 -0.0206 -0.5319
13912TIP3    H163227   1.901   3.466   3.420  3.2816  0.4785 -0.1253
13912TIP3    H263228   1.963   3.381   3.529 -0.7529 -2.0040  0.4470
13913TIP3   OH263229   6.338   5.401  13.745  0.6396 -0.3465 -0.1872
13913TIP3    H163230   6.344   5.476  13.803 -1.9643 -0.0976 -0.1565
13913TIP3    H263231   6.401   5.420  13.675 -0.6046  2.3814 -0.7044
13914TIP3   OH263232   5.656   6.009  14.710  0.7170 -0.3525 -0.1996
13914TIP3    H163233   5.712   6.061  14.768  1.2852 -1.3712  0.1931
13914TIP3    H263234   5.585   5.979  14.766  0.4046 -0.0207 -0.4178
13915TIP3   OH263235   4.429   0.521   0.382 -0.2813 -0.0445  0.0132
13915TIP3    H163236   4.418   0.503   0.476 -0.1968  1.2016  0.2743
13915TIP3    H263237   4.382   0.449   0.339  0.5668 -1.2212  0.9833
13916TIP3   OH263238   4.152   0.374  16.632 -0.0716 -0.6409  0.8016
13916TIP3    H163239   4.101   0.452  16.657  1.1048  0.0572  1.0949
13916TIP3    H263240   4.153   0.376  16.537 -1.6466 -1.3803  0.7314
13917TIP3   OH263241   4.921   1.860   6.239 -0.2915 -0.0191 -0.6135
13917TIP3    H163242   5.013   1.858   6.265 -0.4971 -0.9889  0.0613
13917TIP3    H263243   4.887   1.939   6.280  0.0142 -0.1549 -0.0912
13918TIP3   OH263244   4.569   4.712  13.716  0.4226  0.1707 -0.5392
13918TIP3    H163245   4.523   4.743  13.794  1.8348 -1.4921  1.0144
13918TIP3    H263246   4.599   4.792  13.673  1.0358  1.1041  1.5087
13919TIP3   OH263247   6.731   0.647   0.886 -0.2397 -0.5112 -0.2088
13919TIP3    H163248   6.746   0.628   0.793  0.9173 -1.1312  0.0864
13919TIP3    H263249   6.724   0.561   0.927 -0.3717 -0.2417  0.3447
13920TIP3   OH263250   5.206   4.176  13.197  0.0642 -0.0384  0.1327
13920TIP3    H163251   5.266   4.105  13.222 -2.0569 -1.1398  2.4835
13920TIP3    H263252   5.166   4.145  13.116  0.0493 -1.0004  0.4846
13921TIP3   OH263253   0.492   4.244  15.414  0.1963  0.3760 -0.6339
13921TIP3    H163254   0.551   4.216  15.345  0.9632 -2.4994  1.0312
13921TIP3    H263255   0.418   4.184  15.410  0.6748 -0.4663  1.5186
13922TIP3   OH263256   3.946   2.673  10.890  0.0721 -0.3300 -0.1494
13922TIP3    H163257   3.957   2.768  10.877 -0.0129 -0.2002  0.6929
13922TIP3    H263258   3.884   2.647  10.822 -1.4387  0.5808  0.8056
13923TIP3   OH263259   2.929   1.787   4.055  0.1668  0.4290  0.0309
13923TIP3    H163260   2.926   1.789   4.151 -2.3306 -1.1352  0.0886
13923TIP3    H263261   3.015   1.751   4.034  0.6931  0.6363  1.6626
13924TIP3   OH263262   1.002   3.487   5.046 -0.2113 -0.0142 -0.0284
13924TIP3    H163263   1.056   3.553   5.089 -0.7876  0.0922  0.5504
13924TIP3    H263264   1.063   3.437   4.992  0.6432 -0.5649  1.3998
13925TIP3   OH263265   3.642   5.079  16.277 -0.1373 -0.0769 -0.2747
13925TIP3    H163266   3.720   5.106  16.326 -1.1234  1.2620  0.6302
13925TIP3    H263267   3.625   4.990  16.306 -0.5567  0.6014  1.6945
13926TIP3   OH263268   1.813   6.585  12.439  0.3799 -0.1767 -0.7730
13926TIP3    H163269   1.726   6.595  12.400  0.0007  1.4531  0.3587
13926TIP3    H263270   1.854   6.671  12.427  0.1417  0.5307  2.5141
13927TIP3   OH263271   3.833   6.297  13.927 -0.1366  0.5680  0.5727
13927TIP3    H163272   3.788   6.373  13.962  0.5409  0.8372  0.8730
13927TIP3    H263273   3.782   6.273  13.849 -0.8967  0.7472  1.0018
13928TIP3   OH263274   3.112   4.003  15.414  0.6204  0.1887  0.2037
13928TIP3    H163275   3.021   4.011  15.443  0.1846 -0.1909 -1.0283
13928TIP3    H263276   3.122   4.071  15.347  0.8982 -0.5586 -0.5140
13929TIP3   OH263277   4.226   6.261   1.484  0.2672 -0.3448  0.2809
13929TIP3    H163278   4.150   6.280   1.429 -1.3333  1.4737  2.8640
13929TIP3    H263279   4.230   6.165   1.487 -0.8165 -0.4730 -1.3397
13930TIP3   OH263280   3.992   1.161   1.359 -0.0885 -0.1162  0.3481
13930TIP3    H163281   3.990   1.211   1.277 -0.0832  0.5307  0.7376
13930TIP3    H263282   4.057   1.092   1.343 -0.2142 -0.1072 -0.2506
13931TIP3   OH263283   6.436   4.227   2.685 -0.6835  0.3477 -0.0473
13931TIP3    H163284   6.353   4.182   2.703 -0.8032  0.0004 -1.3781
13931TIP3    H263285   6.440   4.233   2.589  0.5055  0.9787  0.0243
13932TIP3   OH263286   5.680   3.561   5.167 -0.5194  0.2263 -0.0133
13932TIP3    H163287   5.625   3.585   5.242 -1.0344  1.3526 -0.7261
13932TIP3    H263288   5.769   3.582   5.195 -0.8040  1.5404 -0.0441
13933TIP3   OH263289   3.114   3.413   5.654 -0.7430 -0.5797  0.4421
13933TIP3    H163290   3.176   3.379   5.589 -0.0280  0.3716  0.5989
13933TIP3    H263291   3.099   3.340   5.714 -0.2735 -1.0219  0.0277
13934TIP3   OH263292   2.389   1.814  16.138 -0.0347  0.1502  0.3219
13934TIP3    H163293   2.430   1.861  16.065 -0.8060  1.9533  0.9696
13934TIP3    H263294   2.427   1.854  16.216  0.3395 -1.3442  0.9328
13935TIP3   OH263295   2.982   4.807   1.924  0.1425 -0.0603  0.0245
13935TIP3    H163296   2.918   4.741   1.950 -0.1581 -0.1722 -0.9442
13935TIP3    H263297   3.035   4.762   1.857  1.0752  0.1091  0.6337
13936TIP3   OH263298   5.965   0.508  16.062 -0.0347  0.4032 -0.1741
13936TIP3    H163299   5.872   0.504  16.083 -0.2032 -0.8403 -1.0513
13936TIP3    H263300   5.989   0.417  16.042  1.7151  0.4413  1.4768
13937TIP3   OH263301   3.886   4.008  15.092 -0.1101 -0.2457  0.2417
13937TIP3    H163302   3.974   4.043  15.084  0.8509 -2.3039  1.2155
13937TIP3    H263303   3.836   4.079  15.132  1.4491  0.4376  1.0485
13938TIP3   OH263304   4.532   6.183   1.938 -0.3660 -0.1594 -0.0864
13938TIP3    H163305   4.594   6.188   1.865 -0.5957  2.2042 -0.2102
13938TIP3    H263306   4.574   6.124   2.001  1.8066  0.9649 -0.3739
13939TIP3   OH263307   5.246   2.826   4.436 -0.3303  0.0299 -0.5003
13939TIP3    H163308   5.197   2.824   4.354 -0.7426  0.5073 -0.2707
13939TIP3    H263309   5.180   2.812   4.504 -0.3121  1.5501 -0.1282
13940TIP3   OH263310   1.971   1.229   1.301 -0.6432 -0.2544 -0.3806
13940TIP3    H163311   2.044   1.177   1.332 -1.3057 -0.9592  0.0233
13940TIP3    H263312   1.939   1.276   1.378 -1.0023 -0.4228 -0.4242
13941TIP3   OH263313   2.843   3.608  14.174  0.2263  0.0654  0.2362
13941TIP3    H163314   2.908   3.678  14.181  0.0233  0.1947  0.8995
13941TIP3    H263315   2.886   3.531  14.210 -0.0437  0.1890  0.8248
13942TIP3   OH263316   5.213   6.816  11.499 -0.4076  0.3926 -0.0463
13942TIP3    H163317   5.194   6.724  11.515 -0.4437  0.5210  0.6926
13942TIP3    H263318   5.297   6.816  11.454  0.2321  0.0477  1.1006
13943TIP3   OH263319   6.490   4.952  10.558 -0.0635 -0.7269 -0.0765
13943TIP3    H163320   6.424   4.888  10.530 -1.0827  0.6875 -1.0241
13943TIP3    H263321   6.440   5.019  10.605  0.6782  0.3696 -0.8060
13944TIP3   OH263322   3.768   5.133   4.957 -0.1868  0.6144  0.3009
13944TIP3    H163323   3.744   5.213   5.003  0.2508  0.4173  0.8804
13944TIP3    H263324   3.815   5.163   4.879 -2.2783  1.0163 -0.8950
13945TIP3   OH263325   1.210   6.708  11.046 -0.4640  0.1421 -0.0733
13945TIP3    H163326   1.118   6.691  11.068 -0.4807 -0.3704 -0.5176
13945TIP3    H263327   1.224   6.799  11.070 -1.0834  0.2164  0.0248
13946TIP3   OH263328   6.395   4.807  16.707  0.2933 -0.5450  0.5672
13946TIP3    H163329   6.429   4.795  16.795 -2.6460 -1.3348  1.7009
13946TIP3    H263330   6.405   4.901  16.690  1.7859 -0.5394  1.2999
13947TIP3   OH263331   5.492   6.498  14.562 -0.1807  0.0940  0.0357
13947TIP3    H163332   5.498   6.558  14.636  1.1950  0.7188 -0.5351
13947TIP3    H263333   5.436   6.542  14.498  0.1087  0.3864 -0.0193
13948TIP3   OH263334   3.388   0.373   0.473  0.1862  0.3587  0.4025
13948TIP3    H163335   3.439   0.398   0.550 -0.1621  0.3239  0.6450
13948TIP3    H263336   3.309   0.332   0.508  0.4670 -0.5522  0.0268
13949TIP3   OH263337   3.074   5.806   3.499 -0.6396 -0.0301 -0.0679
13949TIP3    H163338   3.097   5.714   3.496 -2.5227 -0.5184 -2.0016
13949TIP3    H263339   3.133   5.848   3.436  0.0726  0.0905  0.6567
13950TIP3   OH263340   0.621   6.583  10.533  0.2478  0.0771 -0.3199
13950TIP3    H163341   0.673   6.653  10.572  0.0595  0.0051  0.0729
13950TIP3    H263342   0.534   6.622  10.521  0.1133 -0.1181  0.0004
13951TIP3   OH263343   3.152   5.961   1.222  0.2110  0.1237 -0.0909
13951TIP3    H163344   3.082   6.025   1.209  0.9271  0.8914 -0.2072
13951TIP3    H263345   3.176   5.970   1.315  0.1807 -0.1143 -0.0591
13952TIP3   OH263346   1.571   5.580  12.191 -0.1872 -0.4928 -0.1720
13952TIP3    H163347   1.558   5.633  12.270  0.9417  0.6273 -0.7079
13952TIP3    H263348   1.665   5.586  12.173 -0.3525 -1.1255 -1.3383
13953TIP3   OH263349   4.440   4.829   2.991  0.2322 -0.1919 -0.0500
13953TIP3    H163350   4.348   4.837   3.016  0.2358  1.5341 -0.4525
13953TIP3    H263351   4.484   4.800   3.071 -0.5828 -0.4591  0.3073
13954TIP3   OH263352   4.900   0.224  14.881 -0.2300  0.3191  0.0856
13954TIP3    H163353   4.991   0.203  14.902 -0.3261  1.9862  2.5571
13954TIP3    H263354   4.884   0.308  14.923 -2.4307  0.9622 -1.8114
13955TIP3   OH263355   6.541   1.615   2.767 -0.3167  0.4520  0.0459
13955TIP3    H163356   6.585   1.624   2.682  1.6078  0.1675  0.9692
13955TIP3    H263357   6.537   1.704   2.801 -0.5153  0.4869 -0.0688
13956TIP3   OH263358   1.171   0.415  16.509  0.4140  0.4680 -0.3778
13956TIP3    H163359   1.251   0.410  16.562  1.0252  0.2887 -1.2911
13956TIP3    H263360   1.173   0.503  16.471  1.3222 -0.2660 -2.1181
13957TIP3   OH263361   5.816   3.285   4.235  0.3963  0.6013 -0.0793
13957TIP3    H163362   5.874   3.209   4.241 -0.8592 -0.5146 -1.3706
13957TIP3    H263363   5.742   3.264   4.292 -0.0684  0.7452 -0.6195
13958TIP3   OH263364   2.360   4.114   2.243 -0.9391  0.4376  0.4914
13958TIP3    H163365   2.296   4.185   2.236 -0.9608  0.3463 -0.2586
13958TIP3    H263366   2.353   4.067   2.160 -1.0173 -0.5264  1.0272
13959TIP3   OH263367   6.113   5.349  13.589 -0.1133 -0.2256 -0.0304
13959TIP3    H163368   6.087   5.439  13.567 -0.6029 -0.9338 -2.6462
13959TIP3    H263369   6.172   5.359  13.664  1.7641  2.5161 -1.6841
13960TIP3   OH263370   3.050   4.037  10.294 -0.3170 -0.6898  0.1498
13960TIP3    H163371   2.997   4.002  10.365 -1.5351  0.1096 -0.3453
13960TIP3    H263372   2.995   4.031  10.216  0.8112 -1.0857 -0.6530
13961TIP3   OH263373   0.364   1.049   2.363  0.4154  0.1224  0.7505
13961TIP3    H163374   0.443   1.063   2.311  1.2756  2.1212  2.4516
13961TIP3    H263375   0.316   1.131   2.356 -0.6318 -0.4356  1.2034
13962TIP3   OH263376   0.401   1.367  13.772  0.4056  0.6528  0.2272
13962TIP3    H163377   0.353   1.337  13.695  0.5432  0.6894  0.1260
13962TIP3    H263378   0.468   1.301  13.786  0.1373  0.4435  0.5522
13963TIP3   OH263379   5.517   6.037  13.088 -0.2945  0.0137  0.2208
13963TIP3    H163380   5.506   6.113  13.031  2.3698  1.8846  1.9568
13963TIP3    H263381   5.531   5.963  13.028 -2.0091  1.0009 -1.5052
13964TIP3   OH263382   1.848   4.229  14.151 -0.6772  0.2815 -0.1662
13964TIP3    H163383   1.775   4.291  14.152 -2.2523 -1.4827 -0.6523
13964TIP3    H263384   1.807   4.144  14.136  1.3745 -0.9445  0.7513
13965TIP3   OH263385   3.990   6.452   0.055 -0.8836  0.0162 -0.5771
13965TIP3    H163386   3.899   6.467   0.031 -1.4479  0.1915  1.5377
13965TIP3    H263387   3.988   6.377   0.113 -0.0582  1.5548  1.5801
13966TIP3   OH263388   6.567   3.250  15.364  0.1383 -0.0402 -0.2970
13966TIP3    H163389   6.532   3.335  15.334  0.7367 -0.0708 -1.1115
13966TIP3    H263390   6.657   3.249  15.333  0.6223 -0.3351  1.0473
13967TIP3   OH263391   0.797   2.470   4.613  0.2341  0.1300 -0.2650
13967TIP3    H163392   0.852   2.547   4.602  1.8756 -0.7942  1.0979
13967TIP3    H263393   0.779   2.466   4.707 -1.3671 -0.1650 -0.5515
13968TIP3   OH263394   3.716   2.749   4.247  0.1166  0.1479  0.4935
13968TIP3    H163395   3.680   2.825   4.201 -0.4594 -0.9971 -1.0046
13968TIP3    H263396   3.734   2.782   4.335  0.6128  2.2297 -0.3150
13969TIP3   OH263397   6.494   3.313  16.043 -0.1045 -0.0946  0.3926
13969TIP3    H163398   6.444   3.290  15.965  2.9139 -2.4549 -1.0697
13969TIP3    H263399   6.517   3.406  16.031 -0.3533 -0.2112 -1.1406
13970TIP3   OH263400   2.551   1.840   2.432  0.4727 -0.7321  0.0099
13970TIP3    H163401   2.572   1.779   2.503  0.3702  1.2249  1.8282
13970TIP3    H263402   2.457   1.829   2.419  0.3704 -0.6493  0.6467
13971TIP3   OH263403   1.515   4.775   3.027 -0.0354 -0.0143  0.1199
13971TIP3    H163404   1.472   4.690   3.021  0.8322 -0.6317  2.0989
13971TIP3    H263405   1.490   4.809   3.113  0.7585  1.1059 -0.0700
13972TIP3   OH263406   0.685   0.010  14.329  0.1711  0.1074  0.0042
13972TIP3    H163407   0.657   0.027  14.239  1.7038 -0.1303 -0.5500
13972TIP3    H263408   0.707  -0.083  14.330 -0.6309 -0.0825  0.8681
13973TIP3   OH263409   2.530   6.813  11.590  0.1101  0.1075  0.6390
13973TIP3    H163410   2.456   6.762  11.557 -0.1933 -0.6731  2.4198
13973TIP3    H263411   2.560   6.863  11.514 -0.0757 -2.1108 -1.0328
13974TIP3   OH263412   0.939   4.298  14.976  0.3463 -0.3137 -0.7959
13974TIP3    H163413   1.006   4.320  14.911 -0.5520 -1.1562 -2.0490
13974TIP3    H263414   0.892   4.380  14.990  1.7271  0.3359  0.2467
13975TIP3   OH263415   0.676   0.819   5.989  0.3314  0.1325  0.3182
13975TIP3    H163416   0.695   0.727   6.009  1.4153  0.4528  0.8061
13975TIP3    H263417   0.756   0.866   6.011 -0.0425  1.1413 -0.3911
13976TIP3   OH263418   2.898   3.221  11.199 -0.4558  0.3326 -0.4036
13976TIP3    H163419   2.971   3.238  11.259 -0.2780 -1.7822  0.0465
13976TIP3    H263420   2.823   3.207  11.256 -0.7676  0.4526 -0.7827
13977TIP3   OH263421   1.622   1.891  12.947  0.2134 -0.1860  0.2498
13977TIP3    H163422   1.679   1.968  12.945  1.7120 -1.2507  0.6391
13977TIP3    H263423   1.673   1.824  12.992 -1.2241 -1.2950  0.3004
13978TIP3   OH263424   2.988   0.787   1.407  0.2079  0.3163  0.3931
13978TIP3    H163425   2.949   0.858   1.357 -2.1025 -0.9578  0.2652
13978TIP3    H263426   3.039   0.737   1.343 -0.3468  0.3614 -0.0937
13979TIP3   OH263427   6.818   4.732  16.275  0.1959 -0.7179  0.0747
13979TIP3    H163428   6.811   4.651  16.326  0.6391 -1.2641 -0.7093
13979TIP3    H263429   6.727   4.753  16.252 -0.2796  0.7395  2.8483
13980TIP3   OH263430   1.343   6.042   5.723 -0.0964 -0.0521 -0.0286
13980TIP3    H163431   1.415   5.993   5.682  0.4924  0.0943  0.8143
13980TIP3    H263432   1.381   6.079   5.802 -0.6420  1.4452 -0.4408
13981TIP3   OH263433   4.864   4.223   1.002  0.1202 -0.4833  0.1652
13981TIP3    H163434   4.934   4.179   0.955 -0.0521 -0.6117  0.0239
13981TIP3    H263435   4.894   4.313   1.012 -0.1153 -0.2834 -0.7855
13982TIP3   OH263436   1.545   3.522  12.847 -0.4128 -0.0150  0.6259
13982TIP3    H163437   1.486   3.517  12.772 -0.9525 -2.3532  1.1039
13982TIP3    H263438   1.505   3.586  12.905 -1.3734 -0.0696  0.0421
13983TIP3   OH263439   6.405   5.911   0.788  0.0038  0.2654 -0.2241
13983TIP3    H163440   6.384   5.836   0.844 -0.7655  0.1821 -0.6092
13983TIP3    H263441   6.331   5.917   0.728  1.2748 -0.2708 -1.9033
13984TIP3   OH263442   3.280   5.588  15.414  0.1658  0.3272 -0.4523
13984TIP3    H163443   3.367   5.549  15.418  0.7217  1.5484 -0.1826
13984TIP3    H263444   3.222   5.520  15.448  1.3526  0.4727  2.0845
13985TIP3   OH263445   3.948   4.435   2.116  0.2101 -0.0753  0.3678
13985TIP3    H163446   3.937   4.444   2.022  2.8783 -0.3187 -0.0453
13985TIP3    H263447   3.896   4.505   2.154 -1.5974 -0.4878 -1.1956
13986TIP3   OH263448   2.314   1.547  16.187 -0.5245  0.0654  0.2982
13986TIP3    H163449   2.262   1.624  16.164 -0.8476  0.0598  0.9652
13986TIP3    H263450   2.250   1.485  16.222 -0.1345 -0.1287  0.6741
13987TIP3   OH263451   0.050   3.278   5.752 -0.1555  0.1079 -0.6355
13987TIP3    H163452   0.101   3.352   5.785 -0.6793  0.4760 -0.6275
13987TIP3    H263453   0.107   3.202   5.762  0.0337  0.3618  0.2718
13988TIP3   OH263454   5.449   5.988   1.529 -0.0566 -0.7103 -0.0272
13988TIP3    H163455   5.411   6.020   1.610  1.3095  0.4737  0.1895
13988TIP3    H263456   5.544   5.997   1.542  0.1863 -0.5442 -1.7219
13989TIP3   OH263457   2.567   1.641   4.760 -0.5108 -0.5478 -0.6369
13989TIP3    H163458   2.568   1.666   4.852 -0.5748 -2.0609 -0.1976
13989TIP3    H263459   2.651   1.597   4.746 -0.4723 -0.2719 -1.3150
13990TIP3   OH263460   6.791   1.930   5.524  0.1295  0.0414  0.3199
13990TIP3    H163461   6.770   1.988   5.597 -0.5537  2.1833 -1.4799
13990TIP3    H263462   6.727   1.859   5.531  0.0169  0.2531  1.7186
13991TIP3   OH263463   1.258   6.105   3.424 -0.0416 -0.0774 -0.4130
13991TIP3    H163464   1.302   6.114   3.508 -0.2423 -2.0874 -0.0415
13991TIP3    H263465   1.324   6.070   3.365 -0.3423 -0.2200 -0.6684
13992TIP3   OH263466   3.880   4.526  11.166 -0.3306  0.5532 -0.2828
13992TIP3    H163467   3.843   4.448  11.207 -0.5241  1.5586  1.5864
13992TIP3    H263468   3.810   4.591  11.173  0.1375  1.1373 -1.0087
13993TIP3   OH263469   1.479   1.447  12.265  0.3573 -0.3226 -0.3443
13993TIP3    H163470   1.530   1.493  12.198  0.5423  0.4885  0.3312
13993TIP3    H263471   1.523   1.363  12.275  1.3511  0.2119 -0.0464
13994TIP3   OH263472   5.504   0.996   0.454 -0.4840  0.4124 -0.4015
13994TIP3    H163473   5.451   0.917   0.461 -2.4010  1.4790 -1.8373
13994TIP3    H263474   5.572   0.973   0.389 -0.5822 -0.2639 -0.2713
13995TIP3   OH263475   2.890   6.180   1.976  0.1937 -0.3934 -0.9605
13995TIP3    H163476   2.900   6.272   1.999  1.2290 -0.4796 -1.0005
13995TIP3    H263477   2.889   6.179   1.881 -2.8757 -0.1567 -1.0349
13996TIP3   OH263478   0.281   3.187  11.244  0.0836 -0.6600  0.0808
13996TIP3    H163479   0.347   3.202  11.176  0.7087 -0.5989  0.6882
13996TIP3    H263480   0.302   3.250  11.313 -0.6710 -0.5783  0.2490
13997TIP3   OH263481   2.848   2.342  13.925  0.1712 -0.2466 -0.2588
13997TIP3    H163482   2.823   2.420  13.874 -2.0152 -0.3361  0.5995
13997TIP3    H263483   2.773   2.283  13.917  1.3231 -1.8202  0.0673
13998TIP3   OH263484   5.021   4.105   2.066 -0.4799  0.0194  0.1836
13998TIP3    H163485   5.052   4.195   2.083  2.9910 -0.4784 -2.4395
13998TIP3    H263486   4.969   4.113   1.987  0.8107 -0.3416 -0.7396
13999TIP3   OH263487   2.050   6.726   6.029 -0.1162  0.0842  0.3994
13999TIP3    H163488   2.028   6.683   5.946 -1.0070 -0.0259  0.6902
13999TIP3    H263489   2.087   6.656   6.083  1.3882  0.3451 -0.2180
14000TIP3   OH263490   5.449   2.691  15.818  0.4078  0.2565  0.1142
14000TIP3    H163491   5.386   2.639  15.767  1.2503  0.1225 -0.8194
14000TIP3    H263492   5.532   2.644  15.809  0.2959 -0.6959  3.0000
14001TIP3   OH263493   6.531   3.695  14.407 -0.1460 -0.2336 -0.3044
14001TIP3    H163494   6.551   3.674  14.499  0.7097 -1.1102 -0.6800
14001TIP3    H263495   6.616   3.700  14.365 -0.5702 -0.5025 -1.2033
14002TIP3   OH263496   0.439   6.421   1.964  0.8256  0.6222 -0.1248
14002TIP3    H163497   0.534   6.418   1.960  0.8051 -1.1346 -0.0736
14002TIP3    H263498   0.419   6.441   2.055  1.1182  1.7890 -0.2949
14003TIP3   OH263499   0.226   1.423  15.711 -0.0158 -0.1700 -0.4926
14003TIP3    H163500   0.147   1.373  15.728  1.0751 -1.9264 -0.2770
14003TIP3    H263501   0.289   1.392  15.777  1.0934  0.5908 -1.1494
14004TIP3   OH263502   0.475   1.774  16.051 -0.8304  0.6590  0.2023
14004TIP3    H163503   0.380   1.779  16.052 -0.8842 -0.2417  1.5970
14004TIP3    H263504   0.500   1.764  16.143  0.7658  3.0261  0.1119
14005TIP3   OH263505   4.769   6.841  16.644  0.8147 -0.5341 -0.1464
14005TIP3    H163506   4.772   6.745  16.639  0.5003 -0.4797 -2.7872
14005TIP3    H263507   4.738   6.859  16.733  0.9225 -2.8681  0.4457
14006TIP3   OH263508   0.906   1.021   5.129  0.3045  0.8410  0.3038
14006TIP3    H163509   0.989   1.021   5.081 -0.0638 -1.8458 -0.4960
14006TIP3    H263510   0.844   1.063   5.070  0.8941  2.2079  0.6128
14007TIP3   OH263511   3.204   0.057   6.303  0.3758  0.2854  0.1409
14007TIP3    H163512   3.214  -0.019   6.246 -0.6471  0.3783 -0.1947
14007TIP3    H263513   3.118   0.045   6.343  0.0083  1.4612 -0.2519
14008TIP3   OH263514   5.699   0.006   0.490 -0.2271  0.0704  0.6784
14008TIP3    H163515   5.611   0.003   0.453 -0.2458  2.1200  0.4613
14008TIP3    H263516   5.756  -0.030   0.421 -0.8800 -1.5095  0.9218
14009TIP3   OH263517   3.342   5.127  12.654 -0.3031 -0.0712  0.5057
14009TIP3    H163518   3.282   5.188  12.611  0.4244  1.2978  1.3776
14009TIP3    H263519   3.332   5.144  12.747  0.4634 -0.7692  0.7317
14010TIP3   OH263520   2.401   0.063   3.921  0.0817 -0.0572  0.6459
14010TIP3    H163521   2.445   0.128   3.866  0.4711 -1.2450 -0.5021
14010TIP3    H263522   2.388   0.107   4.005  2.3572  0.7618  0.6348
14011TIP3   OH263523   3.754   3.881  15.477 -0.2201 -0.1436  0.2914
14011TIP3    H163524   3.777   3.838  15.395 -2.4170  0.3478 -0.6429
14011TIP3    H263525   3.685   3.827  15.514 -2.6808  2.1360 -0.6538
14012TIP3   OH263526   5.981   5.778   0.311 -0.1073 -0.3616  0.2922
14012TIP3    H163527   6.034   5.829   0.249 -0.9427  1.5328  1.0574
14012TIP3    H263528   5.945   5.706   0.258  1.8934 -0.7934 -0.6018
14013TIP3   OH263529   3.145   2.474   0.338  0.0556  0.0148  0.0095
14013TIP3    H163530   3.211   2.432   0.393  0.0913  1.3357  1.0255
14013TIP3    H263531   3.061   2.441   0.371  0.1232 -0.0658  0.0989
14014TIP3   OH263532   5.823   6.295   0.344 -0.3242 -0.3372  0.0921
14014TIP3    H163533   5.830   6.199   0.339  2.3210 -0.5509  3.6968
14014TIP3    H263534   5.759   6.311   0.412  0.4595  0.3620  0.6823
14015TIP3   OH263535   5.118   4.663   2.399 -0.1972  0.2945 -0.0923
14015TIP3    H163536   5.211   4.652   2.383 -0.7688 -2.1463 -2.3893
14015TIP3    H263537   5.088   4.724   2.331  0.1460  4.0902  2.7932
14016TIP3   OH263538   1.710   6.630   6.010  0.4259  0.2681  0.1858
14016TIP3    H163539   1.702   6.566   6.081  0.4292 -2.4773 -2.1199
14016TIP3    H263540   1.727   6.713   6.055 -0.6267 -1.0926  3.4108
14017TIP3   OH263541   4.862   3.778   3.647 -0.0088 -0.4083  0.0099
14017TIP3    H163542   4.784   3.741   3.688  0.1051 -0.8599 -0.1768
14017TIP3    H263543   4.915   3.809   3.720 -0.3675 -0.0791  0.1370
14018TIP3   OH263544   5.987   1.426  15.759  0.2789 -0.4537  0.1406
14018TIP3    H163545   6.059   1.365  15.740  1.0335  0.9429 -1.7788
14018TIP3    H263546   6.026   1.513  15.750 -1.3944  0.3405  0.1977
14019TIP3   OH263547   4.691   5.781   3.884 -0.5997 -0.2569 -0.5323
14019TIP3    H163548   4.683   5.822   3.799 -1.8728 -0.5758 -0.5825
14019TIP3    H263549   4.631   5.829   3.941  0.6336  0.3176  0.3539
14020TIP3   OH263550   1.073   6.001  16.761 -0.0547 -0.3098 -0.3079
14020TIP3    H163551   1.147   6.052  16.794  0.8600 -1.0839 -1.0822
14020TIP3    H263552   1.084   6.004  16.666 -0.7911 -0.7763 -0.4107
14021TIP3   OH263553   5.696   3.206   3.996  0.4432  0.0290 -0.6033
14021TIP3    H163554   5.760   3.136   4.005 -0.7767 -1.1442 -0.6544
14021TIP3    H263555   5.723   3.272   4.061  1.0281 -0.9573  0.1841
14022TIP3   OH263556   0.993   5.448   2.569 -0.4688  0.5751 -0.4028
14022TIP3    H163557   1.087   5.465   2.578  0.0643 -2.2665  0.4770
14022TIP3    H263558   0.954   5.490   2.646  0.7042 -1.5711  1.5070
14023TIP3   OH263559   5.512   4.436   5.760  0.3695 -0.2293 -0.2555
14023TIP3    H163560   5.478   4.483   5.684  0.6585 -0.1696 -0.3479
14023TIP3    H263561   5.457   4.357   5.766  1.4492 -1.1273 -1.5724
14024TIP3   OH263562   1.886   3.957  12.717 -0.4245  0.1618  0.2864
14024TIP3    H163563   1.819   3.938  12.782 -0.2299 -0.1138  0.4112
14024TIP3    H263564   1.898   3.874  12.671  0.4083 -0.0202  0.8079
14025TIP3   OH263565   3.506   6.229  14.818 -0.0469 -0.3587  0.2932
14025TIP3    H163566   3.473   6.285  14.889 -0.9543  0.0951 -0.4547
14025TIP3    H263567   3.471   6.142  14.838 -3.0482  0.3531 -1.1919
14026TIP3   OH263568   4.652   5.511   3.922  0.6274 -0.1735 -0.0309
14026TIP3    H163569   4.583   5.515   3.855 -0.2687 -1.2115  0.7788
14026TIP3    H263570   4.672   5.602   3.942  0.2748  0.1453 -1.0770
14027TIP3   OH263571   1.972   5.572  12.091  0.2920 -0.3285 -0.1820
14027TIP3    H163572   1.889   5.567  12.044  0.0478  2.0246 -0.1097
14027TIP3    H263573   1.955   5.529  12.174 -0.6757 -0.3934 -0.4051
14028TIP3   OH263574   5.447   2.325  16.758  0.0324  0.0973 -1.0002
14028TIP3    H163575   5.434   2.277  16.676  0.2972 -0.8769 -0.4899
14028TIP3    H263576   5.537   2.307  16.783 -0.4781 -0.8957  0.2761
14029TIP3   OH263577   1.570   3.380   0.966  0.1658 -0.0502  0.3067
14029TIP3    H163578   1.583   3.314   0.898  0.8146  1.7487 -1.3876
14029TIP3    H263579   1.635   3.357   1.034 -0.6750 -2.0201  0.5186
14030TIP3   OH263580   3.445   2.005   0.428  0.6366 -0.0444  0.0576
14030TIP3    H163581   3.378   1.959   0.478  0.5034  0.7724  0.6576
14030TIP3    H263582   3.453   1.955   0.346 -0.5997 -0.2361  0.0388
14031TIP3   OH263583   6.791   3.878   1.058  0.7313  0.5565 -0.3158
14031TIP3    H163584   6.859   3.916   1.002  1.7817  0.2202  0.6749
14031TIP3    H263585   6.760   3.801   1.010  1.2018  0.6032 -0.6987
14032TIP3   OH263586   0.437   6.153  16.651 -0.1001 -0.4526  0.7296
14032TIP3    H163587   0.410   6.061  16.651 -0.5260 -0.3420 -0.1712
14032TIP3    H263588   0.456   6.172  16.742 -1.0599 -1.1438  1.0943
14033TIP3   OH263589   6.084   2.228   5.312 -0.8225 -0.2274  0.1260
14033TIP3    H163590   6.098   2.196   5.401  0.9675 -0.0292 -0.0669
14033TIP3    H263591   6.137   2.171   5.257 -1.2958  0.1458 -0.7343
14034TIP3   OH263592   0.474   5.780  15.207 -0.4023  0.1078 -0.0320
14034TIP3    H163593   0.567   5.779  15.232 -1.2695 -0.9261  3.7764
14034TIP3    H263594   0.465   5.706  15.147  1.1725 -0.1061 -0.0541
14035TIP3   OH263595   2.569   3.102  14.214 -0.1214 -0.1125  0.4512
14035TIP3    H163596   2.646   3.134  14.167  2.1397  0.3014  4.0127
14035TIP3    H263597   2.500   3.165  14.192  1.6218  1.7456 -0.0502
14036TIP3   OH263598   2.474   1.486  16.471 -0.3500 -0.1373 -0.2268
14036TIP3    H163599   2.469   1.391  16.470 -1.3299 -0.0966 -0.0577
14036TIP3    H263600   2.500   1.510  16.382 -1.2905 -0.5160 -0.6124
14037TIP3   OH263601   2.175   1.385   6.193  1.0283 -0.3239 -0.0678
14037TIP3    H163602   2.230   1.332   6.135  0.4033 -0.1647 -0.8276
14037TIP3    H263603   2.213   1.473   6.188  1.8677 -0.6123  0.9370
14038TIP3   OH263604   3.481   3.360   3.752 -0.0754 -0.3693  0.5483
14038TIP3    H163605   3.495   3.413   3.673 -0.4076  0.1416  0.8207
14038TIP3    H263606   3.485   3.423   3.824  0.0922 -0.8099  0.9336
14039TIP3   OH263607   0.221   0.643   6.382 -0.3757  0.1321 -0.1871
14039TIP3    H163608   0.167   0.591   6.442 -1.6487  1.3831 -0.1959
14039TIP3    H263609   0.261   0.710   6.438  0.1996 -0.0304 -0.3920
14040TIP3   OH263610   5.682   1.725   6.448 -0.6926  0.1441 -0.1314
14040TIP3    H163611   5.694   1.631   6.432 -1.1622 -0.0433  0.5644
14040TIP3    H263612   5.594   1.744   6.415 -2.0638 -0.4492  2.9009
14041TIP3   OH263613   2.669   0.690   4.197 -0.2555 -0.0880 -0.3212
14041TIP3    H163614   2.721   0.771   4.199  0.3214 -0.4585  1.5546
14041TIP3    H263615   2.632   0.683   4.285  0.0090 -2.0380 -0.3215
14042TIP3   OH263616   6.694   3.044   5.205  0.2804  0.1090 -0.7439
14042TIP3    H163617   6.744   2.964   5.192  0.1973 -0.4824  1.9683
14042TIP3    H263618   6.637   3.025   5.280 -2.5900  1.4293 -2.4006
14043TIP3   OH263619   0.595   2.805  12.602 -0.9037 -0.1019 -0.5802
14043TIP3    H163620   0.648   2.860  12.661 -0.2866 -0.1347 -1.0889
14043TIP3    H263621   0.527   2.864  12.571 -2.9249 -0.7475  2.2011
14044TIP3   OH263622   1.656   4.368   4.619  0.0466 -0.3317 -0.0027
14044TIP3    H163623   1.693   4.454   4.641  1.9304 -0.6728 -1.5367
14044TIP3    H263624   1.717   4.306   4.657 -0.5703 -0.9820 -0.0612
14045TIP3   OH263625   1.223   5.716  12.321 -0.1950 -0.1435 -0.4085
14045TIP3    H163626   1.315   5.733  12.339 -0.0460 -1.4300  0.1888
14045TIP3    H263627   1.176   5.782  12.371  0.3866 -0.0272 -0.0056
14046TIP3   OH263628   4.643   2.080  12.225  0.1330 -0.4528  0.3618
14046TIP3    H163629   4.661   2.042  12.311 -0.1159 -1.3668  0.0203
14046TIP3    H263630   4.561   2.040  12.197 -0.3387  0.6257  0.1405
14047TIP3   OH263631   3.682   6.619   3.530  0.5846 -0.3305  0.1010
14047TIP3    H163632   3.607   6.665   3.568 -0.2902 -0.1112 -1.8121
14047TIP3    H263633   3.659   6.526   3.536 -0.3127 -0.2313 -1.3230
14048TIP3   OH263634   2.427   3.397   4.501 -0.1483  0.9785 -0.0829
14048TIP3    H163635   2.433   3.446   4.583 -3.1990  3.3457 -1.0891
14048TIP3    H263636   2.355   3.335   4.515  1.7338 -1.3034  0.1582
14049TIP3   OH263637   3.121   6.742   2.399 -0.3595  0.6820  0.1848
14049TIP3    H163638   3.029   6.764   2.385 -0.8680 -1.7249 -0.6148
14049TIP3    H263639   3.129   6.651   2.373  2.3782  0.9310 -0.2021
14050TIP3   OH263640   6.215   1.283   0.407 -0.4820  0.1252 -0.3781
14050TIP3    H163641   6.228   1.191   0.384 -1.5208 -0.0968 -0.1335
14050TIP3    H263642   6.120   1.294   0.410 -0.4133  1.5925 -1.8814
14051TIP3   OH263643   2.258   0.566  12.194 -0.8365  0.0119  0.1398
14051TIP3    H163644   2.173   0.523  12.204 -0.8336 -0.3633 -1.1937
14051TIP3    H263645   2.238   0.649  12.151 -0.6249  0.3845  0.7543
14052TIP3   OH263646   3.982   0.590  16.668 -0.1134  0.1688  0.5778
14052TIP3    H163647   3.928   0.646  16.612 -0.3381 -0.0907  0.5355
14052TIP3    H263648   3.926   0.516  16.689 -0.5140  0.9002  2.2460
14053TIP3   OH263649   6.108   0.476   3.225  0.2501  0.0341  0.0399
14053TIP3    H163650   6.097   0.501   3.317 -0.9542  1.6469 -0.5018
14053TIP3    H263651   6.199   0.448   3.218  0.0746 -1.1938  1.9490
14054TIP3   OH263652   3.036   2.731  11.781  0.3385  0.0028  0.1006
14054TIP3    H163653   2.975   2.710  11.710 -1.7981 -0.7537  2.0287
14054TIP3    H263654   3.083   2.650  11.798  0.4319  0.0238 -0.0548
14055TIP3   OH263655   2.237   5.839   0.638 -0.1467  0.5122  0.5979
14055TIP3    H163656   2.199   5.785   0.707  1.1671 -1.2241  0.0102
14055TIP3    H263657   2.182   5.822   0.561  0.3269 -0.1080  0.3862
14056TIP3   OH263658   5.091   1.564  14.458 -0.0337 -0.4045  0.4880
14056TIP3    H163659   5.155   1.564  14.529 -0.2714  1.1696  0.7401
14056TIP3    H263660   5.006   1.560  14.501 -0.1509 -0.9235  0.2191
14057TIP3   OH263661   6.169   5.905  12.556 -0.0505 -0.0007 -0.1802
14057TIP3    H163662   6.206   5.935  12.640  2.5831  0.7623 -1.4761
14057TIP3    H263663   6.130   5.820  12.576 -0.6940  0.7537  2.0688
14058TIP3   OH263664   1.351   5.609   0.813  0.0878 -0.2374 -0.2692
14058TIP3    H163665   1.337   5.553   0.737  2.5345  0.5919 -1.4445
14058TIP3    H263666   1.305   5.690   0.793 -1.4500 -0.9169  0.3640
14059TIP3   OH263667   1.070   4.748  16.939 -0.8463 -0.1769 -0.0199
14059TIP3    H163668   1.071   4.843  16.957 -3.1178  0.5333 -2.9360
14059TIP3    H263669   1.025   4.711  17.015 -2.3899  1.4965 -0.0361
14060TIP3   OH263670   6.180   3.419  13.396  0.1523  0.6384 -0.3963
14060TIP3    H163671   6.247   3.378  13.342  0.1767  1.5114 -1.0563
14060TIP3    H263672   6.229   3.473  13.458  0.0846  2.7371 -2.0546
14061TIP3   OH263673   4.636   6.841  12.528  0.0360  0.1702  0.1244
14061TIP3    H163674   4.707   6.853  12.465 -1.3947 -1.3482 -1.9359
14061TIP3    H263675   4.556   6.849  12.476 -1.2713  0.0465  2.0078
14062TIP3   OH263676   1.735   6.658   2.811 -0.4071  0.0928 -0.2417
14062TIP3    H163677   1.809   6.624   2.860 -1.0170 -1.4875 -0.3617
14062TIP3    H263678   1.768   6.668   2.721  0.2291  1.4143  0.1089
14063TIP3   OH263679   6.411   4.268  11.547 -0.2029 -0.1388 -0.5976
14063TIP3    H163680   6.446   4.325  11.616 -0.5192  0.4931 -0.9424
14063TIP3    H263681   6.350   4.210  11.592 -0.2316  0.1145 -0.3064
14064TIP3   OH263682   0.298   0.699   2.069 -0.3796 -0.1097 -0.3475
14064TIP3    H163683   0.228   0.739   2.121 -1.3266 -0.3186 -1.4290
14064TIP3    H263684   0.305   0.755   1.992  1.5784  0.6760  0.3475
14065TIP3   OH263685   2.435   3.092  15.986 -0.1381  0.0964 -0.2189
14065TIP3    H163686   2.346   3.071  15.958 -0.3450  0.2968  0.2846
14065TIP3    H263687   2.466   3.012  16.029 -0.3776  0.3052  0.3461
14066TIP3   OH263688   5.440   2.404  14.773 -0.6441  0.2242  0.3028
14066TIP3    H163689   5.521   2.353  14.780  0.7143  1.8617 -2.0604
14066TIP3    H263690   5.460   2.486  14.818 -1.4531  0.1676  0.7732
14067TIP3   OH263691   5.446   1.681  14.018 -0.5512  0.6577  0.2901
14067TIP3    H163692   5.408   1.754  14.066 -0.0822  0.5191  0.8832
14067TIP3    H263693   5.460   1.613  14.084 -2.6388 -0.6867 -0.5184
14068TIP3   OH263694   4.215   3.552  14.488 -0.3950  0.0160  0.0807
14068TIP3    H163695   4.274   3.611  14.535  1.7514 -1.7986 -0.1159
14068TIP3    H263696   4.274   3.496  14.437 -2.4180 -0.9436 -1.3267
14069TIP3   OH263697   0.297   0.202  16.797 -0.1724 -0.7592  0.0027
14069TIP3    H163698   0.253   0.175  16.717  0.5291  0.4452 -0.8121
14069TIP3    H263699   0.348   0.125  16.823  1.0852 -0.5835 -1.7730
14070TIP3   OH263700   3.318   6.042   2.861  0.5198  0.1288  0.0487
14070TIP3    H163701   3.353   5.995   2.786 -0.3835 -1.4908  0.5796
14070TIP3    H263702   3.253   6.103   2.823 -1.6227 -2.2689 -0.4164
14071TIP3   OH263703   3.919   6.032   4.306 -0.8151 -0.0141 -0.0246
14071TIP3    H163704   3.868   6.005   4.382 -1.0775  0.9859  0.1745
14071TIP3    H263705   3.894   5.971   4.237 -2.4538  0.5763  0.0152
14072TIP3   OH263706   6.742   6.715  15.582  0.1197 -0.5196  0.0314
14072TIP3    H163707   6.795   6.638  15.561  1.5590  0.1841  0.9369
14072TIP3    H263708   6.804   6.787  15.588 -1.0942  0.5670  0.0116
14073TIP3   OH263709   6.325   6.008   2.574  0.0913  0.3210 -0.3341
14073TIP3    H163710   6.367   6.022   2.489  2.4656 -0.2094  0.6643
14073TIP3    H263711   6.319   6.096   2.612 -1.2740  0.6015 -1.1283
14074TIP3   OH263712   4.186   0.585  14.426 -0.1265  0.1676  0.9848
14074TIP3    H163713   4.235   0.513  14.386 -0.6551  0.7321 -0.7891
14074TIP3    H263714   4.245   0.619  14.494  1.9728  0.7595 -0.9821
14075TIP3   OH263715   0.269   4.450   2.422 -0.0955  0.8573  0.2119
14075TIP3    H163716   0.194   4.486   2.469 -0.6360  0.2925 -0.2168
14075TIP3    H263717   0.237   4.433   2.334  0.6235  0.9051 -0.0678
14076TIP3   OH263718   6.832   2.492  11.513  0.0149  0.2425  0.0738
14076TIP3    H163719   6.857   2.457  11.427 -1.0110  0.6485 -0.4111
14076TIP3    H263720   6.902   2.466  11.571  0.4946 -0.4579 -0.7978
14077TIP3   OH263721   1.975   1.990  11.686 -0.3524 -0.5851 -0.2602
14077TIP3    H163722   1.923   2.070  11.680 -0.5773 -0.8294 -1.8673
14077TIP3    H263723   2.044   2.000  11.621  1.5591 -0.3808  1.6686
14078TIP3   OH263724   4.345   2.877   4.475  0.0098 -0.3413 -0.3505
14078TIP3    H163725   4.393   2.864   4.394 -0.9792  2.9471 -1.6498
14078TIP3    H263726   4.388   2.952   4.516 -1.1288 -0.2923  0.8246
14079TIP3   OH263727   5.062   2.932  12.377  0.2428 -0.1375 -0.2122
14079TIP3    H163728   4.996   2.898  12.437  0.6614  1.0740  0.9767
14079TIP3    H263729   5.023   3.012  12.341  0.2377 -0.5350 -1.1369
14080TIP3   OH263730   2.629   5.851  14.529  0.3165 -0.3917 -0.3255
14080TIP3    H163731   2.570   5.832  14.602  0.9982  3.3219  1.4492
14080TIP3    H263732   2.712   5.810  14.552  0.5688  0.8731  1.1498
14081TIP3   OH263733   2.524   1.519   4.470 -0.3641  0.3052  0.1425
14081TIP3    H163734   2.444   1.514   4.522 -1.0537  1.7652 -0.7124
14081TIP3    H263735   2.493   1.529   4.380  0.8051 -0.2392 -0.3392
14082TIP3   OH263736   1.927   5.767  16.804  0.8175  0.0881  0.2123
14082TIP3    H163737   1.970   5.689  16.771  0.9730 -0.1877  1.0491
14082TIP3    H263738   1.835   5.756  16.781  0.7343 -0.6345  0.8681
14083TIP3   OH263739   0.008   3.547  16.777 -0.3084  0.3338 -0.7370
14083TIP3    H163740   0.053   3.463  16.761 -1.6902 -0.4286 -0.7804
14083TIP3    H263741  -0.082   3.522  16.800 -0.7916  1.8248 -0.9035
14084TIP3   OH263742   0.024   4.520  15.987  0.1189 -0.0019 -0.5213
14084TIP3    H163743  -0.063   4.495  16.019  0.6335 -2.3351 -0.7563
14084TIP3    H263744   0.080   4.514  16.064  0.4448 -0.6620 -0.8003
14085TIP3   OH263745   2.727   3.084  16.679  0.1926  0.3877  0.4108
14085TIP3    H163746   2.745   3.075  16.586 -0.7188  0.5615  0.2075
14085TIP3    H263747   2.666   3.013  16.699 -0.9414  1.3497  0.4867
14086TIP3   OH263748   3.189   0.771  10.827  0.1456 -0.2131 -0.1518
14086TIP3    H163749   3.171   0.824  10.749 -0.3603  0.4366  0.3976
14086TIP3    H263750   3.113   0.714  10.836 -0.0696  0.1294  0.2068
14087TIP3   OH263751   3.164   2.337  14.665  0.4305 -0.4316  0.0538
14087TIP3    H163752   3.252   2.331  14.629  0.4813  1.4754 -0.2418
14087TIP3    H263753   3.160   2.267  14.731  1.4954 -1.7427 -1.2173
14088TIP3   OH263754   2.266   4.456  14.516  0.2377  0.0060 -0.3808
14088TIP3    H163755   2.286   4.372  14.474  0.6250  0.1069 -0.4020
14088TIP3    H263756   2.248   4.515  14.443  0.3362  0.0350 -0.3820
14089TIP3   OH263757   1.985   5.296   3.051  0.1716 -0.2695  0.0848
14089TIP3    H163758   1.993   5.201   3.044 -0.8827 -0.3826  0.2197
14089TIP3    H263759   1.920   5.320   2.985 -1.7224 -0.0215  1.9340
14090TIP3   OH263760   4.946   1.006  15.452  0.3493  0.0159 -0.1417
14090TIP3    H163761   4.948   0.955  15.533 -2.0288  0.7950  0.4828
14090TIP3    H263762   5.025   0.979  15.405  1.1768 -1.3376  1.8851
14091TIP3   OH263763   3.018   3.994   3.179 -0.0296  0.2498 -0.2418
14091TIP3    H163764   3.054   3.906   3.166 -0.1348  0.3770 -1.5157
14091TIP3    H263765   2.924   3.984   3.160 -0.7023 -0.0258  2.7724
14092TIP3   OH263766   3.572   0.157   4.952 -0.0464  0.1918  0.2750
14092TIP3    H163767   3.507   0.088   4.963  1.7636 -1.4410  1.5278
14092TIP3    H263768   3.626   0.128   4.878  0.0646  0.8409  0.0888
14093TIP3   OH263769   2.813   1.829   5.195 -0.6564 -0.1863  0.5750
14093TIP3    H163770   2.879   1.851   5.260  2.7192 -1.2133 -2.1810
14093TIP3    H263771   2.763   1.910   5.183  1.9191  1.5970  0.9161
14094TIP3   OH263772   6.188   4.681   2.964  0.2609  0.1850 -0.0230
14094TIP3    H163773   6.235   4.606   2.929  1.5900  0.4447  1.0868
14094TIP3    H263774   6.134   4.645   3.035  0.1173  0.1302 -0.1604
14095TIP3   OH263775   1.375   1.334   3.401 -0.1643 -0.4779  0.1907
14095TIP3    H163776   1.348   1.382   3.322 -0.1509 -2.0260 -0.8093
14095TIP3    H263777   1.468   1.314   3.386  0.7531  1.9310  2.0904
14096TIP3   OH263778   1.866   4.661  12.044  0.1879  0.3350 -0.5245
14096TIP3    H163779   1.806   4.603  12.090 -0.5777  0.6013 -1.1821
14096TIP3    H263780   1.812   4.735  12.016  1.0426  1.1405 -0.1247
14097TIP3   OH263781   0.522   4.650   1.752 -0.4063 -0.0021  0.5031
14097TIP3    H163782   0.473   4.710   1.808 -1.0805 -0.7231  0.7030
14097TIP3    H263783   0.601   4.630   1.803  0.8392  2.2254 -0.3870
14098TIP3   OH263784   5.009   2.652  12.389  0.1017 -0.3420 -0.0191
14098TIP3    H163785   5.045   2.563  12.395 -1.4677 -1.2704 -2.6969
14098TIP3    H263786   5.078   2.703  12.346  0.2184 -0.8277 -0.4222
14099TIP3   OH263787   0.688   5.085  16.912 -0.5355  0.2173 -0.5853
14099TIP3    H163788   0.721   5.134  16.988 -0.9418  0.0753 -0.3137
14099TIP3    H263789   0.756   5.096  16.846  1.3450 -2.2107  0.7612
14100TIP3   OH263790   6.243   6.067  14.840 -0.1785  0.2077 -0.6952
14100TIP3    H163791   6.230   5.974  14.817 -2.0484 -0.1123  1.3830
14100TIP3    H263792   6.190   6.080  14.918  3.7658  1.8020  2.0766
14101TIP3   OH263793   6.763   2.191  16.525 -0.4425 -0.1518  0.1314
14101TIP3    H163794   6.765   2.287  16.524  0.3802 -0.1487 -1.3323
14101TIP3    H263795   6.826   2.166  16.457 -0.9248 -1.7309  0.2437
14102TIP3   OH263796   4.371   1.996   1.074 -0.1428 -0.6218 -0.0281
14102TIP3    H163797   4.385   2.033   0.987  0.3788  0.3205  0.4421
14102TIP3    H263798   4.436   2.039   1.129 -0.4587 -1.2160  0.8275
14103TIP3   OH263799   2.240   2.284  15.300 -0.3784  0.0032 -0.3410
14103TIP3    H163800   2.154   2.326  15.294 -0.0523  0.5695 -1.4323
14103TIP3    H263801   2.252   2.242  15.215 -0.1533 -1.2715  0.2935
14104TIP3   OH263802   3.461   6.744   1.546  0.4650 -0.0908  0.2964
14104TIP3    H163803   3.463   6.806   1.618  1.1516 -1.0221  1.1091
14104TIP3    H263804   3.526   6.677   1.569 -0.3061 -1.1601 -0.4921
14105TIP3   OH263805   1.773   4.613   1.242  0.1866 -0.5193  0.0785
14105TIP3    H163806   1.734   4.602   1.329  0.9821 -0.2766  0.4680
14105TIP3    H263807   1.731   4.545   1.189 -1.7889  0.5900  0.1242
14106TIP3   OH263808   4.568   1.204   2.609  0.7038 -0.0594  0.2616
14106TIP3    H163809   4.558   1.221   2.515  1.8628 -0.0309  0.1214
14106TIP3    H263810   4.615   1.120   2.613  0.3434 -0.2401  0.8270
14107TIP3   OH263811   1.325   0.785   0.251  0.5442 -0.1658 -0.2948
14107TIP3    H163812   1.274   0.844   0.195  0.8675 -1.4747 -2.0437
14107TIP3    H263813   1.275   0.704   0.252  1.9961 -1.1214 -1.1600
14108TIP3   OH263814   0.105   1.276  13.732  0.0079  0.0941 -0.3254
14108TIP3    H163815   0.104   1.181  13.741  1.7112 -0.0311 -1.2035
14108TIP3    H263816   0.143   1.292  13.646  0.7415  1.5927  0.2522
14109TIP3   OH263817   3.785   4.169  13.704 -0.4650 -0.0667  0.3438
14109TIP3    H163818   3.849   4.100  13.685 -2.3322 -1.0432 -3.2936
14109TIP3    H263819   3.838   4.248  13.713  1.4491 -1.3042  0.7469
14110TIP3   OH263820   4.954   0.789   5.716 -0.4279  0.0942 -0.1152
14110TIP3    H163821   4.925   0.879   5.709  0.4068  0.4604  0.8488
14110TIP3    H263822   5.004   0.773   5.635  0.0786  0.7508  0.0651
14111TIP3   OH263823   4.248   1.584   0.151  0.4919 -0.1994  0.0036
14111TIP3    H163824   4.231   1.667   0.197 -0.1984 -0.4172  0.1613
14111TIP3    H263825   4.189   1.586   0.076  0.9421 -0.2646 -0.3519
14112TIP3   OH263826   4.385   0.008   5.445 -0.1161 -0.4159  0.3216
14112TIP3    H163827   4.454   0.049   5.498  0.1411  1.4565 -1.3195
14112TIP3    H263828   4.305   0.019   5.496  0.0786  1.5755  0.2748
14113TIP3   OH263829   6.139   1.504   0.164 -0.1468  0.5625 -0.2214
14113TIP3    H163830   6.045   1.493   0.174 -0.2644  1.3781 -0.3339
14113TIP3    H263831   6.171   1.515   0.254 -0.2032  0.5720 -0.2022
14114TIP3   OH263832   6.466   6.143   4.295 -0.1425  0.0661  0.6533
14114TIP3    H163833   6.555   6.177   4.288  0.6676 -1.5694  2.0856
14114TIP3    H263834   6.410   6.220   4.303  1.4324  1.1107  2.3396
14115TIP3   OH263835   6.174   6.416   5.144 -0.6400  0.1676 -0.6034
14115TIP3    H163836   6.252   6.423   5.089  0.8879  0.1526  1.4331
14115TIP3    H263837   6.127   6.341   5.109  1.4148 -1.2217 -0.5842
14116TIP3   OH263838   1.702   0.805  12.286 -0.1789  0.2424 -0.5252
14116TIP3    H163839   1.620   0.824  12.333 -0.2072  0.2907 -0.5946
14116TIP3    H263840   1.761   0.876  12.309 -0.0237 -0.0045 -0.1589
14117TIP3   OH263841   6.213   0.552  10.871 -0.1695 -0.4659  0.2269
14117TIP3    H163842   6.163   0.618  10.918 -0.6420 -0.9256  0.3841
14117TIP3    H263843   6.168   0.544  10.786  1.2046  1.0099 -0.7047
14118TIP3   OH263844   4.345   6.424   2.865 -0.8358 -0.2346  0.2269
14118TIP3    H163845   4.257   6.436   2.901 -1.4664 -2.1132 -0.6033
14118TIP3    H263846   4.333   6.368   2.788  0.6373  2.3592 -2.0908
14119TIP3   OH263847   3.962   1.947   0.780  0.0178  0.0944 -0.5426
14119TIP3    H163848   4.056   1.935   0.764 -0.3184  0.1947 -2.9467
14119TIP3    H263849   3.921   1.939   0.694 -2.2807 -0.5783  0.5222
14120TIP3   OH263850   5.047   5.117  11.566  0.4267 -0.0264 -0.6172
14120TIP3    H163851   4.955   5.102  11.548  0.4973 -1.3282 -0.0010
14120TIP3    H263852   5.048   5.165  11.648  0.2979 -3.8390  1.8692
14121TIP3   OH263853   2.791   1.275   5.117 -0.2554  0.0668 -0.2956
14121TIP3    H163854   2.805   1.369   5.127 -0.0842  0.0286 -0.1634
14121TIP3    H263855   2.797   1.241   5.207  1.8946 -0.3717 -0.5484
14122TIP3   OH263856   4.662   6.127  12.203  0.6825 -0.2665 -0.0845
14122TIP3    H163857   4.733   6.158  12.260 -0.4922 -0.2840  1.4334
14122TIP3    H263858   4.644   6.202  12.146  2.2366 -0.4333 -0.8665
14123TIP3   OH263859   1.305   2.402   5.439 -0.0625  0.1357 -0.9354
14123TIP3    H163860   1.230   2.344   5.422 -1.2914  1.6604 -0.9203
14123TIP3    H263861   1.306   2.462   5.364  0.8243  0.4801 -0.6597
14124TIP3   OH263862   4.033   1.186   4.486 -0.0763 -0.8663  0.0428
14124TIP3    H163863   3.941   1.182   4.514 -0.5466  0.4595 -1.2080
14124TIP3    H263864   4.031   1.231   4.402  1.7463 -0.7349  0.0232
14125TIP3   OH263865   3.943   0.554   5.735  0.2102  0.7535 -0.3020
14125TIP3    H163866   3.957   0.648   5.741  0.4675  0.8723 -2.2156
14125TIP3    H263867   3.885   0.533   5.809  0.4598  2.3196  0.3723
14126TIP3   OH263868   4.760   5.650   3.282  0.4022  0.1787 -0.6632
14126TIP3    H163869   4.850   5.660   3.252  0.0443  0.8550 -1.5574
14126TIP3    H263870   4.730   5.568   3.242  0.3410  0.4146 -1.1091
14127TIP3   OH263871   1.462   4.480  13.540  0.2475  0.0024 -0.0671
14127TIP3    H163872   1.525   4.508  13.473  0.8618  0.1405  0.5549
14127TIP3    H263873   1.496   4.517  13.621  0.6864 -1.8976  0.6751
14128TIP3   OH263874   3.553   6.713  12.591  0.2941 -0.4953 -0.9093
14128TIP3    H163875   3.581   6.635  12.543  0.5076 -0.8257 -0.2593
14128TIP3    H263876   3.614   6.719  12.665 -0.9672 -0.9047  0.2110
14129TIP3   OH263877   0.271   6.576  17.044  0.2211 -0.0460  0.4103
14129TIP3    H163878   0.264   6.481  17.033 -0.6582  0.1488 -0.9834
14129TIP3    H263879   0.219   6.596  17.121 -0.9478 -0.5296 -0.2270
14130TIP3   OH263880   1.699   4.466   3.635 -0.1274 -0.6190 -0.5540
14130TIP3    H163881   1.753   4.465   3.556 -0.7652  0.5338 -1.0403
14130TIP3    H263882   1.743   4.528   3.694  0.7808 -2.0715  0.3483
14131TIP3   OH263883   4.434   1.281   3.797  0.3449  0.0179  0.6678
14131TIP3    H163884   4.352   1.325   3.780  0.2188  0.6957  2.7523
14131TIP3    H263885   4.499   1.351   3.802  0.5985 -0.2532  1.4290
14132TIP3   OH263886   1.600   5.856  11.633  0.6679  0.1336 -0.1640
14132TIP3    H163887   1.550   5.782  11.599  1.5002  0.7272 -2.9113
14132TIP3    H263888   1.682   5.817  11.664 -0.2160 -0.4543  1.5470
14133TIP3   OH263889   3.009   1.692  17.081  0.4479 -0.1253 -0.4941
14133TIP3    H163890   3.032   1.632  17.152  3.2983  1.3209 -0.0407
14133TIP3    H263891   2.984   1.635  17.009 -1.5972 -1.6624  1.3013
14134TIP3   OH263892   6.458   5.816  14.484  0.0615 -0.6450 -0.5458
14134TIP3    H163893   6.390   5.872  14.447 -0.8097 -1.3094 -0.0116
14134TIP3    H263894   6.508   5.873  14.542  0.2815 -0.0304 -1.3384
14135TIP3   OH263895   0.211   5.320  14.772 -0.6984  0.3472 -0.6561
14135TIP3    H163896   0.305   5.333  14.760 -0.4883 -1.2447 -1.0673
14135TIP3    H263897   0.186   5.261  14.700 -2.0127  0.7516 -0.5563
14136TIP3   OH263898   0.679   1.978   0.085 -0.2916 -0.0484 -0.1159
14136TIP3    H163899   0.663   1.893   0.045 -0.2538 -0.5792  0.9918
14136TIP3    H263900   0.712   1.959   0.173  0.2528  1.0990 -0.0459
14137TIP3   OH263901   6.552   4.024  12.534  0.4111 -0.0376  1.0547
14137TIP3    H163902   6.536   4.118  12.525 -0.6176 -0.3210 -0.4629
14137TIP3    H263903   6.469   3.987  12.563 -0.0832 -0.7985 -1.1321
14138TIP3   OH263904   0.361   5.885   1.912  0.1153 -0.4494  0.2834
14138TIP3    H163905   0.297   5.853   1.976 -0.1536 -0.0977  0.1950
14138TIP3    H263906   0.319   5.869   1.828 -0.7916  1.6700  0.2647
14139TIP3   OH263907   0.686   6.355   1.941 -0.2734  0.4505  0.0677
14139TIP3    H163908   0.770   6.370   1.983 -0.5125  0.1447  0.6823
14139TIP3    H263909   0.697   6.385   1.851  0.0305  1.8317  0.5417
14140TIP3   OH263910   1.636   0.618   3.299 -0.3871 -0.0200  0.6623
14140TIP3    H163911   1.682   0.617   3.383 -0.9794 -0.7489  0.9926
14140TIP3    H263912   1.546   0.597   3.322 -0.5451 -0.2480 -0.1666
14141TIP3   OH263913   6.006   3.806  16.147 -0.2102  0.0668 -0.8101
14141TIP3    H163914   6.002   3.897  16.175  0.1925  0.0323 -0.6301
14141TIP3    H263915   6.087   3.800  16.096  0.9130 -0.6615  0.9517
14142TIP3   OH263916   3.251   6.710  12.467 -0.3332 -0.1366 -0.4661
14142TIP3    H163917   3.301   6.771  12.522 -0.5365  0.2946 -0.7473
14142TIP3    H263918   3.205   6.654  12.530 -2.7548  2.0909 -0.0287
14143TIP3   OH263919   0.594   2.559  12.706 -0.0866  0.0584  0.0446
14143TIP3    H163920   0.582   2.626  12.639  3.0084  0.0584 -0.6521
14143TIP3    H263921   0.649   2.600  12.772  0.6694 -1.3116  0.3179
14144TIP3   OH263922   5.865   0.087  12.481 -0.7586 -0.3257  0.1227
14144TIP3    H163923   5.881   0.102  12.388 -0.4963  0.0315  0.2234
14144TIP3    H263924   5.819   0.003  12.485 -1.4325  0.0191 -0.3841
14145TIP3   OH263925   1.356   5.529  10.457 -0.0950  0.3875 -0.1172
14145TIP3    H163926   1.272   5.535  10.504 -1.8880  1.7292 -3.1662
14145TIP3    H263927   1.378   5.436  10.460 -0.8416  0.2243  2.0741
14146TIP3   OH263928   2.376   4.973  16.122  0.2263 -0.3579 -0.2377
14146TIP3    H163929   2.384   4.880  16.141  0.7163  0.0400  1.7355
14146TIP3    H263930   2.339   4.977  16.034 -0.4841 -2.4100 -0.0766
14147TIP3   OH263931   6.500   6.452  13.033  0.3501 -0.0273  0.4925
14147TIP3    H163932   6.463   6.383  13.087 -1.1697  1.0417  0.8891
14147TIP3    H263933   6.425   6.505  13.007  1.1434  0.0092 -1.9632
14148TIP3   OH263934   0.987   6.526  16.560  0.1511 -0.1941 -0.1338
14148TIP3    H163935   0.908   6.563  16.520  0.0603  0.7767  0.8915
14148TIP3    H263936   1.035   6.487  16.487 -0.3518  0.8810 -1.0665
14149TIP3   OH263937   5.884   3.022   3.359  0.3544  0.3692  1.0941
14149TIP3    H163938   5.820   3.087   3.389  0.5754  1.0430  0.1517
14149TIP3    H263939   5.955   3.074   3.322 -0.4492 -0.3745 -1.7631
14150TIP3   OH263940   2.185   4.270  16.687  0.3126  0.4150  0.4484
14150TIP3    H163941   2.121   4.337  16.707 -0.1626 -0.1997  1.0246
14150TIP3    H263942   2.240   4.264  16.764 -1.3768 -1.7856  1.6187
14151TIP3   OH263943   2.912   1.014   3.146  0.1554  0.4128 -0.4874
14151TIP3    H163944   2.822   1.039   3.168 -0.0040  2.8241 -3.3133
14151TIP3    H263945   2.966   1.064   3.207 -0.3990  1.1315 -0.5679
14152TIP3   OH263946   1.211   3.172  12.243  0.4798 -0.1455 -0.1853
14152TIP3    H163947   1.206   3.083  12.276 -0.2351  0.3432  1.0782
14152TIP3    H263948   1.235   3.162  12.151 -0.5650 -1.6704 -0.3204
14153TIP3   OH263949   3.112   4.692   5.222  0.2192 -0.3851 -0.0429
14153TIP3    H163950   3.021   4.707   5.247  0.2164  1.3421 -0.9084
14153TIP3    H263951   3.163   4.715   5.299  0.0039  0.7833 -0.2274
14154TIP3   OH263952   5.708   2.917  15.603  0.3909 -0.6133 -0.5687
14154TIP3    H163953   5.670   2.975  15.668  1.6143 -0.6617  0.2323
14154TIP3    H263954   5.652   2.839  15.603  0.1322 -0.4323  0.1142
14155TIP3   OH263955   4.325   3.709   3.375  0.7757  0.0872 -0.2615
14155TIP3    H163956   4.325   3.713   3.279  1.0378  2.5474 -0.2290
14155TIP3    H263957   4.233   3.697   3.398  0.7494 -0.8779 -0.7961
14156TIP3   OH263958   2.079   1.151  13.790 -0.3025  1.2990 -0.7810
14156TIP3    H163959   2.093   1.235  13.834 -0.1110  0.5517  0.6551
14156TIP3    H263960   2.160   1.135  13.742  1.3869  0.1367  2.1466
14157TIP3   OH263961   3.638   5.604   2.556 -0.3512 -0.2248 -0.3730
14157TIP3    H163962   3.604   5.520   2.526 -0.8168 -0.4796  0.8327
14157TIP3    H263963   3.679   5.585   2.640 -0.2003  0.7032 -0.2234
14158TIP3   OH263964   1.660   6.809  12.850  0.3677 -0.4029  0.0528
14158TIP3    H163965   1.578   6.773  12.885  0.2302  1.0760  1.3542
14158TIP3    H263966   1.726   6.744  12.873 -0.3065 -1.2505 -0.3307
14159TIP3   OH263967   1.195   6.507  16.159 -0.1880  0.0892  0.2695
14159TIP3    H163968   1.160   6.581  16.207  0.1625  0.3025  0.2000
14159TIP3    H263969   1.173   6.430  16.212 -2.0495  0.0509 -0.4745
14160TIP3   OH263970   4.045   0.185  11.843  0.1043  0.1216  0.2092
14160TIP3    H163971   4.113   0.118  11.838 -0.4659 -0.6956  2.2169
14160TIP3    H263972   4.093   0.268  11.849  0.8729 -0.2746 -0.3206
14161TIP3   OH263973   0.750   2.129   2.425  0.1542 -0.1800  0.3516
14161TIP3    H163974   0.788   2.211   2.393  0.7927 -0.5677  0.1134
14161TIP3    H263975   0.789   2.117   2.512 -0.9743  0.4598  0.9784
14162TIP3   OH263976   6.082   4.785   1.206  0.2191 -0.4334  0.2175
14162TIP3    H163977   6.067   4.724   1.134  1.2112 -1.3268  0.7356
14162TIP3    H263978   6.128   4.733   1.273  2.1616  1.1471  0.2190
14163TIP3   OH263979   1.615   3.146   0.796  0.0925 -0.2586  0.5232
14163TIP3    H163980   1.569   3.170   0.716  0.7480 -1.1340 -0.1355
14163TIP3    H263981   1.636   3.053   0.785  1.1541 -0.1188  1.2302
14164TIP3   OH263982   5.611   4.414   5.316  0.1827 -0.0651 -0.1449
14164TIP3    H163983   5.643   4.487   5.368 -0.8364 -0.2552  0.7957
14164TIP3    H263984   5.522   4.439   5.291  0.6229 -0.0072 -1.7743
14165TIP3   OH263985   3.195   6.325  17.037  0.5457 -0.4295 -0.2148
14165TIP3    H163986   3.157   6.401  17.079 -0.2501 -1.6004  1.2647
14165TIP3    H263987   3.248   6.361  16.965 -0.1539  1.4567  0.1681
14166TIP3   OH263988   6.662   5.027  12.523 -0.2078 -0.0493 -0.1412
14166TIP3    H163989   6.647   5.005  12.615  0.9692  0.4130  0.1748
14166TIP3    H263990   6.649   5.122  12.518  0.1092 -0.0165 -0.3733
14167TIP3   OH263991   2.515   1.250   5.639  0.3572 -0.2602  0.2325
14167TIP3    H163992   2.479   1.166   5.667 -3.1119  0.5254 -1.3257
14167TIP3    H263993   2.547   1.234   5.550 -1.3801  0.1941 -0.5322
14168TIP3   OH263994   4.160   6.265   1.125 -0.7708 -0.0151 -0.0933
14168TIP3    H163995   4.066   6.252   1.111 -0.6229 -0.4811 -0.7145
14168TIP3    H263996   4.187   6.190   1.179 -0.4777 -0.7270 -1.1939
14169TIP3   OH263997   5.722   6.615   2.810 -0.0380  0.6495  0.2194
14169TIP3    H163998   5.747   6.526   2.785 -0.4178  0.2206  1.2972
14169TIP3    H263999   5.758   6.670   2.741 -0.4888 -0.4045 -0.9010
14170TIP3   OH264000   2.261   1.167  10.929  0.3913  0.1176 -0.0257
14170TIP3    H164001   2.193   1.166  10.861  0.8403 -0.4622 -0.4747
14170TIP3    H264002   2.232   1.235  10.991 -0.0692  0.5876 -0.7443
14171TIP3   OH264003   1.285   4.449  16.478  0.1032  0.3443 -0.4640
14171TIP3    H164004   1.335   4.477  16.401  0.5660  0.8644  0.0166
14171TIP3    H264005   1.216   4.516  16.486  0.9998  1.1880  0.4833
14172TIP3   OH264006   4.032   1.869   5.276 -0.3425 -0.2184 -0.0509
14172TIP3    H164007   4.043   1.943   5.336  1.0461 -1.5792  1.4678
14172TIP3    H264008   4.121   1.852   5.243 -0.5039 -1.6171  0.1749
14173TIP3   OH264009   1.478   6.272  16.282  0.1529  0.1791 -0.5730
14173TIP3    H164010   1.398   6.267  16.334 -0.1006 -0.5569 -1.0142
14173TIP3    H264011   1.526   6.192  16.304  0.1964  0.0193 -1.2229
14174TIP3   OH264012   6.612   4.540   4.263 -0.0746 -0.1406  0.6430
14174TIP3    H164013   6.699   4.549   4.301 -0.3346 -1.4492  1.5890
14174TIP3    H264014   6.587   4.449   4.279 -1.0542 -0.1777 -0.8538
14175TIP3   OH264015   3.729   3.517  15.615  0.3680  0.6922  0.0172
14175TIP3    H164016   3.825   3.510  15.620  0.2547 -1.1287  0.1876
14175TIP3    H264017   3.712   3.610  15.630  2.1672  1.2618 -1.0425
14176TIP3   OH264018   5.253   1.203   3.643 -0.2535 -0.0247  0.5740
14176TIP3    H164019   5.219   1.201   3.553 -2.0872 -0.9644  1.2490
14176TIP3    H264020   5.343   1.236   3.633 -0.3278 -0.3013 -1.6205
14177TIP3   OH264021   3.668   6.581  10.508  0.2976 -0.4972  0.5347
14177TIP3    H164022   3.702   6.561  10.421  0.0628  0.1047  0.2995
14177TIP3    H264023   3.723   6.530  10.567  0.0101 -1.4621 -0.0037
14178TIP3   OH264024   0.886   6.036  16.954  0.5101  0.0410  0.3332
14178TIP3    H164025   0.807   6.005  16.911  0.0345 -0.5932  1.6174
14178TIP3    H264026   0.953   6.034  16.886 -0.6571  0.9961 -0.8787
14179TIP3   OH264027   6.774   5.231   0.852  0.3338 -0.6195 -0.0983
14179TIP3    H164028   6.697   5.287   0.837  1.2701  0.0423 -3.2196
14179TIP3    H264029   6.757   5.153   0.800  0.1258 -2.2773  2.3232
14180TIP3   OH264030   6.748   3.691   0.283  0.2994 -0.1788  0.0526
14180TIP3    H164031   6.721   3.717   0.195  0.3387 -0.9991 -0.2055
14180TIP3    H264032   6.666   3.687   0.333 -0.1086 -2.5260 -0.6958
14181TIP3   OH264033   0.971   0.471   3.915 -0.4896  0.4342 -0.3329
14181TIP3    H164034   0.977   0.383   3.879  0.2186  0.9269 -1.4879
14181TIP3    H264035   0.896   0.510   3.871 -0.5786  0.5336 -0.0966
14182TIP3   OH264036   5.226   5.850   3.699 -0.3531 -0.0455  0.2808
14182TIP3    H164037   5.163   5.912   3.663  0.2741 -0.5061 -1.7075
14182TIP3    H264038   5.307   5.900   3.707 -0.4178 -0.0214  0.8227
14183TIP3   OH264039   6.103   0.221   2.209  0.4115 -0.5087  0.3327
14183TIP3    H164040   6.062   0.305   2.186 -0.5841 -0.3192  2.5329
14183TIP3    H264041   6.071   0.160   2.142  0.8351  0.7509 -1.0758
14184TIP3   OH264042   4.343   1.637   5.464  0.3472  0.1441  0.1587
14184TIP3    H164043   4.319   1.594   5.382 -0.5062  2.3081 -0.7810
14184TIP3    H264044   4.318   1.728   5.452  1.3036  0.7663  2.3980
14185TIP3   OH264045   3.120   1.758  11.240 -0.1913 -0.0781 -0.4000
14185TIP3    H164046   3.175   1.759  11.161  0.6482  0.3901  0.1790
14185TIP3    H264047   3.095   1.849  11.252 -0.5234 -0.1870 -0.2570
14186TIP3   OH264048   0.756   5.959  12.022 -0.5052  0.1206  0.4852
14186TIP3    H164049   0.773   6.052  12.036  1.7029 -0.1218 -0.2551
14186TIP3    H264050   0.779   5.944  11.930  0.2793 -1.3559  0.8872
14187TIP3   OH264051   0.140   0.925   2.525  0.3349 -0.5775 -0.2680
14187TIP3    H164052   0.119   0.853   2.584  1.3716 -0.9341 -0.3214
14187TIP3    H264053   0.222   0.961   2.559  0.6559 -0.4435 -1.1674
14188TIP3   OH264054   4.684   2.107  10.972 -0.2162 -0.5698 -0.3842
14188TIP3    H164055   4.717   2.081  10.886 -0.3777  0.6904 -0.8538
14188TIP3    H264056   4.608   2.162  10.952 -0.1112 -0.0684  0.5632
14189TIP3   OH264057   0.177   1.898   1.431  0.4404  0.2932  0.0171
14189TIP3    H164058   0.222   1.858   1.356  4.4096 -1.2394  2.9064
14189TIP3    H264059   0.146   1.824   1.483  3.4484  0.8676  2.9349
14190TIP3   OH264060   1.679   6.560  15.267  0.2042 -0.2816 -0.4688
14190TIP3    H164061   1.723   6.644  15.262  1.2923 -0.8572 -1.0773
14190TIP3    H264062   1.642   6.548  15.179  0.1057 -0.4607 -0.4028
14191TIP3   OH264063   0.465   2.262   4.708 -0.2415 -0.4091  0.3456
14191TIP3    H164064   0.485   2.279   4.616  1.0239 -2.6057  0.1463
14191TIP3    H264065   0.491   2.343   4.753  0.8949  0.0365 -1.0181
14192TIP3   OH264066   4.163   2.064  11.593 -0.0081 -1.0202 -0.1529
14192TIP3    H164067   4.203   2.150  11.611  2.1074 -2.2848  1.7010
14192TIP3    H264068   4.229   2.017  11.542 -1.0095 -1.6973 -0.8592
14193TIP3   OH264069   4.860   0.772   0.115  0.5763 -0.7138 -0.6921
14193TIP3    H164070   4.838   0.681   0.131 -1.6922  0.0074  0.7004
14193TIP3    H264071   4.790   0.805   0.058  0.4563  0.5415  0.1365
14194TIP3   OH264072   5.370   0.345   0.177  0.7604 -0.0794 -0.6629
14194TIP3    H164073   5.278   0.328   0.199  0.2219  1.4673 -1.5201
14194TIP3    H264074   5.366   0.417   0.113  2.6020  0.6224 -0.0586
14195TIP3   OH264075   0.645   5.888   4.536  0.6094  0.1610  0.2107
14195TIP3    H164076   0.583   5.815   4.529  0.4898  0.0910  1.6567
14195TIP3    H264077   0.729   5.845   4.553  0.6789  0.3354  0.3047
14196TIP3   OH264078   0.145   4.333  14.223 -0.1623  0.0046  0.3912
14196TIP3    H164079   0.106   4.251  14.254  0.1991 -0.0881  0.6028
14196TIP3    H264080   0.077   4.373  14.169 -0.1982 -0.6341 -0.0529
14197TIP3   OH264081   6.552   1.341  10.884 -0.2723 -0.3396 -0.1803
14197TIP3    H164082   6.601   1.356  10.803 -0.1073 -0.0995 -0.0352
14197TIP3    H264083   6.492   1.269  10.862 -0.2489 -0.2575 -0.5246
14198TIP3   OH264084   6.766   2.563  16.228  0.2245  0.3418 -0.4901
14198TIP3    H164085   6.755   2.658  16.232  0.7445  0.3625  0.8799
14198TIP3    H264086   6.821   2.549  16.152 -1.1112  0.9940 -1.6364
14199TIP3   OH264087   1.813   5.937  12.280 -0.4127 -0.1161  0.0770
14199TIP3    H164088   1.764   5.953  12.361 -1.7873 -4.0358  0.2092
14199TIP3    H264089   1.746   5.932  12.212  0.4923  0.5135 -0.8971
14200TIP3   OH264090   5.577   1.408   3.357  0.3621 -0.4803 -0.1489
14200TIP3    H164091   5.624   1.444   3.431 -0.4871 -0.1650  0.2504
14200TIP3    H264092   5.571   1.314   3.376  0.0089 -0.3764  0.2590
14201TIP3   OH264093   4.255   6.826   5.200  0.5623  0.0358  0.1035
14201TIP3    H164094   4.293   6.834   5.288  1.8134 -0.6604 -0.3450
14201TIP3    H264095   4.255   6.732   5.182 -0.1242  0.1351 -0.4690
14202TIP3   OH264096   5.467   2.847   0.332 -0.1293 -0.1686  0.1491
14202TIP3    H164097   5.446   2.939   0.316 -0.0023 -0.4193 -1.6383
14202TIP3    H264098   5.557   2.850   0.366 -0.5945  0.4328  1.4017
14203TIP3   OH264099   5.458   2.263   0.092  0.1308  0.0390 -0.0115
14203TIP3    H164100   5.449   2.176   0.130  0.5551 -0.2206 -0.4936
14203TIP3    H264101   5.430   2.253   0.001 -0.2603  0.5091  0.0548
14204TIP3   OH264102   6.586   4.486   0.338  0.3815 -0.5343  0.1331
14204TIP3    H164103   6.508   4.497   0.285  0.7564 -0.7866 -0.4774
14204TIP3    H264104   6.656   4.465   0.275  0.8816 -0.5866  0.6926
14205TIP3   OH264105   0.846   6.331  16.882 -0.0513 -0.5307  0.2601
14205TIP3    H164106   0.938   6.315  16.902  0.1539  0.9965  0.6619
14205TIP3    H264107   0.805   6.244  16.885  1.1013 -1.0642  1.4282
14206TIP3   OH264108   2.840   6.590  11.261 -0.1186  0.5427 -0.4303
14206TIP3    H164109   2.894   6.665  11.235  1.0207 -0.1632 -0.1441
14206TIP3    H264110   2.893   6.544  11.326 -0.8258 -0.5100 -0.5852
14207TIP3   OH264111   6.232   2.895   0.653 -0.4339  0.2767 -0.3051
14207TIP3    H164112   6.167   2.898   0.583 -1.1343 -0.3130  0.2967
14207TIP3    H264113   6.228   2.805   0.685  0.4329  0.3309 -0.0277
14208TIP3   OH264114   3.347   4.876   1.927 -0.4932  0.0054 -0.9719
14208TIP3    H164115   3.427   4.927   1.939  0.1996 -1.3421  0.5609
14208TIP3    H264116   3.277   4.941   1.925  0.5799  1.1771 -1.8682
14209TIP3   OH264117   5.970   3.580   2.856  0.2957 -0.2108 -0.2241
14209TIP3    H164118   6.049   3.527   2.870  0.7666  0.5630  0.1067
14209TIP3    H264119   5.961   3.632   2.936  0.1873  0.6449 -0.7778
14210TIP3   OH264120   3.398   4.890   2.372  0.2958  0.3251 -0.1077
14210TIP3    H164121   3.437   4.844   2.446 -0.4372  0.9436  0.6954
14210TIP3    H264122   3.410   4.832   2.298  0.2710 -0.7084  0.6791
14211TIP3   OH264123   5.861   4.032   0.353  0.1975 -0.2787  0.1285
14211TIP3    H164124   5.887   3.940   0.353 -1.0113 -0.6662 -1.7750
14211TIP3    H264125   5.862   4.057   0.260 -1.5414  1.0143  0.4228
14212TIP3   OH264126   4.878   0.070   0.658 -0.3397 -0.5730 -0.3538
14212TIP3    H164127   4.844   0.010   0.592 -1.5726 -0.6959  0.3708
14212TIP3    H264128   4.846   0.036   0.742 -2.7503  2.0718 -0.0239
14213TIP3   OH264129   6.381   3.847   4.598  0.2604  0.3335  0.0128
14213TIP3    H164130   6.449   3.865   4.534  0.2418  2.3856  0.4860
14213TIP3    H264131   6.403   3.762   4.635  0.4478 -0.7506 -2.4454
14214TIP3   OH264132   0.767   3.740  16.201 -0.7389 -0.2236 -1.2080
14214TIP3    H164133   0.842   3.799  16.192 -0.1081 -1.0050 -1.1708
14214TIP3    H264134   0.752   3.736  16.295 -0.3382 -0.6484 -1.1551
14215TIP3   OH264135   2.176   6.256  14.800  0.4261 -0.3830  0.2896
14215TIP3    H164136   2.243   6.188  14.799  0.5164 -0.2981  0.4472
14215TIP3    H264137   2.114   6.228  14.868  0.5650 -0.2131  0.4874
14216TIP3   OH264138   4.571   0.021   2.888  0.2881 -0.2684  0.4680
14216TIP3    H164139   4.559   0.087   2.957  0.6721 -0.5046  0.7676
14216TIP3    H264140   4.492  -0.033   2.892 -0.0372  0.1881  0.2072
14217TIP3   OH264141   0.348   4.354  15.038  0.6313  0.1811 -0.4068
14217TIP3    H164142   0.339   4.354  15.134  2.7289  1.3631 -0.1467
14217TIP3    H264143   0.270   4.310  15.007  0.6176 -1.6409  1.9284
14218TIP3   OH264144   3.254   4.169  10.444 -0.5711  0.2736  0.3710
14218TIP3    H164145   3.200   4.117  10.385 -0.8872  0.8464  0.1591
14218TIP3    H264146   3.288   4.240  10.390 -0.0234  0.2136  0.6298
14219TIP3   OH264147   3.680   0.254  15.970 -0.1444 -0.4157 -0.6020
14219TIP3    H164148   3.599   0.292  15.935 -0.2416 -0.0129  0.0493
14219TIP3    H264149   3.700   0.182  15.910 -0.2981  0.2647 -1.4947
14220TIP3   OH264150   0.011   2.218  13.283  0.0883 -0.0287 -0.4889
14220TIP3    H164151   0.089   2.205  13.336  0.4795  1.5739 -0.5992
14220TIP3    H264152   0.030   2.174  13.200  0.7836  0.1358 -0.4212
14221TIP3   OH264153   4.085   0.038  12.686  0.0237 -0.2911  0.0466
14221TIP3    H164154   4.085   0.091  12.606 -0.7056  0.1783  0.3399
14221TIP3    H264155   4.174   0.004  12.693 -0.1757 -1.2244 -1.5401
14222TIP3   OH264156   5.662   4.831   0.774 -0.4210 -0.9534 -0.1513
14222TIP3    H164157   5.679   4.788   0.690 -0.3201 -0.2693 -0.4901
14222TIP3    H264158   5.566   4.838   0.778 -0.4660 -1.6786  0.1516
14223TIP3   OH264159   3.004   0.168   4.740 -0.3479  0.0009 -0.0564
14223TIP3    H164160   3.000   0.193   4.648 -0.2646  1.4468  0.2991
14223TIP3    H264161   3.069   0.228   4.778 -0.9186 -0.0632  1.0744
14224TIP3   OH264162   1.978   4.045  14.524 -0.0961 -0.2480 -0.1855
14224TIP3    H164163   1.995   4.131  14.484  1.1132 -0.3377  0.0742
14224TIP3    H264164   2.061   3.998  14.514 -0.8394 -1.5069 -0.5996
14225TIP3   OH264165   1.569   1.412  11.438 -0.4202  0.1137  0.1761
14225TIP3    H164166   1.531   1.336  11.395  2.6561 -0.8526 -1.0848
14225TIP3    H264167   1.541   1.486  11.383 -1.2903 -0.4067 -0.1043
14226TIP3   OH264168   3.995   4.270   4.973  0.6119  0.6378  0.8839
14226TIP3    H164169   3.952   4.278   4.888  0.3195  2.2227  1.1515
14226TIP3    H264170   4.089   4.274   4.953  0.5377  1.4144  0.6552
14227TIP3   OH264171   0.987   5.918  15.249 -0.2122 -0.2945  0.1107
14227TIP3    H164172   0.893   5.904  15.240 -0.1461 -0.5746 -0.1566
14227TIP3    H264173   1.027   5.850  15.195  0.1425 -0.1048  0.1308
14228TIP3   OH264174   0.627   4.070  15.233 -0.0681  0.3769 -1.0632
14228TIP3    H164175   0.610   4.075  15.139 -0.1765  1.2692 -1.0010
14228TIP3    H264176   0.715   4.107  15.243 -0.4204  1.1334 -0.7116
14229TIP3   OH264177   6.342   1.283   5.654  0.0323  0.0017 -0.4588
14229TIP3    H164178   6.343   1.334   5.573  1.9070 -0.5615 -0.8348
14229TIP3    H264179   6.258   1.305   5.695 -0.5303  1.0454 -2.0650
14230TIP3   OH264180   6.702   0.604   6.181  0.1091 -0.7110 -0.5856
14230TIP3    H164181   6.667   0.526   6.138 -1.3854 -0.0537 -0.6233
14230TIP3    H264182   6.680   0.593   6.273 -2.1531  0.6205 -0.8716
14231TIP3   OH264183   2.773   6.443  16.749 -0.3878 -0.0468 -0.4208
14231TIP3    H164184   2.817   6.489  16.820 -1.6032 -0.6551  0.7826
14231TIP3    H264185   2.688   6.487  16.741 -0.3585 -0.1311 -1.3640
14232TIP3   OH264186   3.080   0.540  15.417 -0.7076 -0.5337 -0.7851
14232TIP3    H164187   2.999   0.489  15.407 -2.1321  1.4300  0.1697
14232TIP3    H264188   3.054   0.631  15.402  1.2543  0.2104 -0.0840
14233TIP3   OH264189   1.674   2.034  13.840  0.4453 -0.5013 -0.1632
14233TIP3    H164190   1.714   2.019  13.755  0.5960 -1.0483  0.0012
14233TIP3    H264191   1.613   2.107  13.825  0.6963 -0.3884 -0.6604
14234TIP3   OH264192   4.126   1.739  14.676  0.1689  0.2685 -0.5726
14234TIP3    H164193   4.163   1.820  14.640 -0.0543  1.1674  1.0970
14234TIP3    H264194   4.184   1.715  14.747 -1.9266  1.3100  1.6382
14235TIP3   OH264195   3.035   6.551   6.195  0.2951 -0.3938  0.3957
14235TIP3    H164196   3.124   6.585   6.192  0.2500 -0.3307 -0.5118
14235TIP3    H264197   3.045   6.456   6.189  0.3658 -0.4850  1.7801
14236TIP3   OH264198   4.216   5.149   1.623 -0.1731 -0.2202 -0.3383
14236TIP3    H164199   4.130   5.109   1.630 -0.5563  0.5619 -0.4135
14236TIP3    H264200   4.264   5.094   1.561 -0.3876 -1.0427  0.2097
14237TIP3   OH264201   4.074   0.279  10.414 -0.4042 -0.6308  0.2950
14237TIP3    H164202   3.996   0.268  10.468 -1.0158  2.2705  0.1972
14237TIP3    H264203   4.042   0.273  10.324 -0.6114  0.7964  0.2510
14238TIP3   OH264204   0.941   2.017  14.505  0.1202 -0.2968  0.7807
14238TIP3    H164205   0.900   2.101  14.521 -0.8947 -0.6998  0.3770
14238TIP3    H264206   1.018   2.016  14.562 -0.6564  0.3108  1.8747
14239TIP3   OH264207   5.301   6.817  12.898 -0.0328 -0.1785 -0.0429
14239TIP3    H164208   5.207   6.835  12.892 -0.1475 -0.2432  1.3309
14239TIP3    H264209   5.326   6.848  12.985  1.0109 -1.1060  0.0076
14240TIP3   OH264210   0.934   0.464  17.125  0.0957  0.0369  0.3187
14240TIP3    H164211   0.915   0.373  17.148  0.7521 -0.0779  0.4147
14240TIP3    H264212   1.010   0.459  17.068 -0.5527  0.4433 -0.6128
14241TIP3   OH264213   1.514   3.505   3.273 -0.1444  0.1530 -0.1841
14241TIP3    H164214   1.424   3.532   3.294 -0.6377 -1.1060 -0.5603
14241TIP3    H264215   1.512   3.487   3.179  0.2145 -0.9056 -0.0008
14242TIP3   OH264216   4.089   6.709   1.297  0.4608  0.3961  0.2243
14242TIP3    H164217   4.087   6.738   1.206  0.0237 -2.0693 -0.6364
14242TIP3    H264218   4.127   6.622   1.294  1.6568  0.7497  2.6118
14243TIP3   OH264219   4.247   4.556  12.915 -0.0693 -0.7565 -0.2990
14243TIP3    H164220   4.310   4.619  12.880 -1.8890  1.0715 -0.5477
14243TIP3    H264221   4.265   4.553  13.009  1.0690 -1.1092 -0.5240
14244TIP3   OH264222   4.995   6.530  15.576 -0.1170 -0.4844  0.0701
14244TIP3    H164223   4.913   6.517  15.623  0.1847 -2.4096  0.1350
14244TIP3    H264224   5.061   6.487  15.631  0.9389  0.9384 -0.0323
14245TIP3   OH264225   0.163   3.020  15.078  0.0268 -0.3368 -0.2165
14245TIP3    H164226   0.071   3.006  15.101  0.2731 -0.9428  0.4229
14245TIP3    H264227   0.205   2.936  15.093  0.6940 -0.0588 -0.4819
14246TIP3   OH264228   3.791   4.164   0.427  0.4862 -0.6065  0.2829
14246TIP3    H164229   3.721   4.128   0.481  0.8566  2.4275  3.1276
14246TIP3    H264230   3.747   4.188   0.345 -1.3156 -0.8120  1.1207
14247TIP3   OH264231   0.054   2.613  12.118  0.4272  0.0026  0.4343
14247TIP3    H164232   0.067   2.560  12.196  0.1568 -0.3225  0.2574
14247TIP3    H264233   0.121   2.681  12.124  0.9575 -0.5201  0.5205
14248TIP3   OH264234   2.203   2.037  12.042 -0.0805 -0.0261  0.2893
14248TIP3    H164235   2.168   2.055  12.128  0.2357 -0.4717  0.5179
14248TIP3    H264236   2.298   2.037  12.054  0.0077  0.8686 -0.2546
14249TIP3   OH264237   0.808   3.678  17.113 -0.1990 -0.0423 -0.1351
14249TIP3    H164238   0.860   3.641  17.184 -1.3600  0.7868  1.2022
14249TIP3    H264239   0.859   3.753  17.083 -0.0782  0.1022  0.4089
14250TIP3   OH264240   5.766   3.328  11.663  0.4546  0.1957 -0.0707
14250TIP3    H164241   5.703   3.389  11.701 -0.2696  0.2719 -1.3536
14250TIP3    H264242   5.739   3.242  11.696  0.2315  0.3271  0.0951
14251TIP3   OH264243   4.393   4.049  10.509 -0.1996  0.3169  0.4484
14251TIP3    H164244   4.466   4.091  10.463  1.7041 -0.9254  2.1271
14251TIP3    H264245   4.319   4.055  10.449  1.5649  0.7227 -1.8084
14252TIP3   OH264246   5.296   6.222  14.109  0.2604  0.3330  0.2964
14252TIP3    H164247   5.298   6.270  14.026 -0.0364 -1.0509 -0.5364
14252TIP3    H264248   5.366   6.262  14.161  0.9319  0.7546 -0.8814
14253TIP3   OH264249   6.358   0.048   5.240 -0.9338  0.5071  0.2964
14253TIP3    H164250   6.385   0.002   5.161 -1.8083  0.6571 -0.1021
14253TIP3    H264251   6.440   0.082   5.277 -0.1015 -2.2343  1.2116
14254TIP3   OH264252   4.657   4.989  14.645  0.2035  0.5884  0.4721
14254TIP3    H164253   4.750   5.002  14.660  0.6841 -0.1209 -1.5112
14254TIP3    H264254   4.639   5.038  14.564  0.1378 -3.4027 -2.2190
14255TIP3   OH264255   1.669   1.057  13.421 -0.1873 -0.6188  0.5407
14255TIP3    H164256   1.652   1.111  13.344  0.7847  0.4440  1.0420
14255TIP3    H264257   1.738   1.104  13.469  0.1418 -1.9113  1.3947
14256TIP3   OH264258   0.531   1.218   0.884  0.4253 -0.5425 -0.3240
14256TIP3    H164259   0.608   1.162   0.896 -0.5479 -1.3424  4.1215
14256TIP3    H264260   0.564   1.307   0.899  0.5359 -0.9210  2.0506
14257TIP3   OH264261   6.147   1.733  14.114  0.8322 -0.1450 -0.1632
14257TIP3    H164262   6.208   1.771  14.050  1.3075 -0.0539  0.3425
14257TIP3    H264263   6.166   1.779  14.195  1.5645 -1.5814  0.5277
14258TIP3   OH264264   4.443   5.129   5.102  0.4954 -0.2272  0.7105
14258TIP3    H164265   4.414   5.220   5.099  0.2555 -0.3282 -1.6074
14258TIP3    H264266   4.535   5.132   5.075  0.8425 -0.5714  1.7952
14259TIP3   OH264267   6.473   3.335   4.238 -0.4388  0.0965  0.1372
14259TIP3    H164268   6.508   3.297   4.158 -1.4395 -0.6556  0.0454
14259TIP3    H264269   6.380   3.351   4.219 -0.2588  1.7750  0.4760
14260TIP3   OH264270   3.572   1.259  12.896  0.1477  0.2686  0.0942
14260TIP3    H164271   3.584   1.312  12.975 -0.3117 -0.0115  0.3560
14260TIP3    H264272   3.500   1.200  12.918  0.3333 -0.1347 -0.3659
14261TIP3   OH264273   5.766   5.468   1.723  0.3332 -0.1218  0.0364
14261TIP3    H164274   5.714   5.542   1.692  1.8343  1.2514  0.6108
14261TIP3    H264275   5.815   5.503   1.798  1.6879 -1.4572 -0.1785
14262TIP3   OH264276   0.634   4.321  14.708  0.2648 -0.3511  0.2566
14262TIP3    H164277   0.548   4.323  14.751 -0.2081  0.5045 -0.6788
14262TIP3    H264278   0.634   4.239  14.658  0.3780 -0.8082  0.9945
14263TIP3   OH264279   6.070   3.445  15.730  0.3555 -0.4108  0.2703
14263TIP3    H164280   6.126   3.476  15.658 -2.0738  2.1227 -0.7049
14263TIP3    H264281   6.014   3.378  15.690  1.5710 -1.8524  0.8755
14264TIP3   OH264282   2.181   2.015  11.457  0.0373  0.0603 -0.4304
14264TIP3    H164283   2.173   2.097  11.409 -0.9669  1.0234  1.2607
14264TIP3    H264284   2.253   2.030  11.519  0.3259 -0.5983 -0.5994
14265TIP3   OH264285   4.637   4.190  14.784 -0.6174  0.0795  0.0093
14265TIP3    H164286   4.626   4.266  14.841 -0.0345 -0.4854  0.8964
14265TIP3    H264287   4.728   4.163  14.797 -1.0308 -1.2405  0.3304
14266TIP3   OH264288   1.567   1.669  11.004  0.0783  0.4414 -0.0428
14266TIP3    H164289   1.566   1.724  11.083  0.2718  0.9556 -0.3942
14266TIP3    H264290   1.534   1.584  11.034 -0.4435  0.8123  0.4566
14267TIP3   OH264291   4.923   6.050   3.219 -0.5674 -0.3057 -0.1740
14267TIP3    H164292   4.942   6.137   3.254  1.2492 -0.9067  0.4212
14267TIP3    H264293   4.838   6.027   3.256 -0.6744  0.8660  0.3367
14268TIP3   OH264294   2.365   4.980  14.625 -0.0921 -0.0269  0.0474
14268TIP3    H164295   2.349   4.982  14.531 -0.7339 -0.5708  0.1400
14268TIP3    H264296   2.451   5.020  14.636  0.9908 -1.9925 -0.9654
14269TIP3   OH264297   3.643   5.565  16.372 -0.2560 -0.2597  0.2688
14269TIP3    H164298   3.557   5.536  16.342  0.0106  0.0357 -0.8313
14269TIP3    H264299   3.638   5.660  16.372  0.0124 -0.2443  0.4083
14270TIP3   OH264300   0.431   4.857  16.593  0.2621  0.1863 -1.2177
14270TIP3    H164301   0.438   4.892  16.681  0.5193  1.3659 -1.6800
14270TIP3    H264302   0.436   4.934  16.536 -1.8739 -0.3045 -2.1966
14271TIP3   OH264303   0.400   4.476   3.096  0.4993 -0.1634 -0.1293
14271TIP3    H164304   0.418   4.556   3.146 -1.9246 -0.1971  0.8935
14271TIP3    H264305   0.479   4.423   3.108  1.8761  1.7357 -0.2462
14272TIP3   OH264306   1.555   5.766  14.372 -0.3903 -0.0738  0.5291
14272TIP3    H164307   1.599   5.839  14.417 -1.0698 -0.2732  1.5636
14272TIP3    H264308   1.464   5.795  14.363  0.1871  1.0895 -3.2025
14273TIP3   OH264309   5.024   3.458   2.416 -0.1631  0.0232 -0.8754
14273TIP3    H164310   4.992   3.378   2.457 -2.4581 -0.4418 -3.2752
14273TIP3    H264311   5.115   3.438   2.391 -0.0344 -1.0466  0.3656
14274TIP3   OH264312   1.415   0.537   3.999 -0.7522 -0.4886  0.0105
14274TIP3    H164313   1.353   0.465   3.996 -1.2993 -0.0665  0.9421
14274TIP3    H264314   1.440   0.551   3.907  0.3817 -2.7070 -0.0816
14275TIP3   OH264315   1.822   4.846  12.276 -0.0637  0.1929  0.8970
14275TIP3    H164316   1.896   4.785  12.274  0.2712  0.6019 -0.6347
14275TIP3    H264317   1.775   4.824  12.356 -0.1785 -2.3564  0.2241
14276TIP3   OH264318   3.329   0.751  10.403  0.1071  0.4865  0.2409
14276TIP3    H164319   3.329   0.831  10.352  1.1464  1.1220  1.1844
14276TIP3    H264320   3.240   0.716  10.393 -0.3940  1.7932 -0.1152
14277TIP3   OH264321   0.651   6.769  15.813  0.1382  0.0811  0.4801
14277TIP3    H164322   0.568   6.761  15.860  0.9200 -0.0254  1.9037
14277TIP3    H264323   0.710   6.710  15.860  0.8832 -0.2511 -0.8473
14278TIP3   OH264324   0.452   3.185  16.418 -0.0504  0.1042 -0.0738
14278TIP3    H164325   0.436   3.149  16.330  0.9334 -0.8997  0.1408
14278TIP3    H264326   0.401   3.130  16.476  1.1490 -0.7493  0.2130
14279TIP3   OH264327   6.537   2.176  15.914 -0.0808  0.4250  0.7350
14279TIP3    H164328   6.606   2.213  15.969 -0.6484  0.4151  1.4729
14279TIP3    H264329   6.475   2.248  15.901  0.5430  0.7331 -0.7728
14280TIP3   OH264330   5.094   2.141  13.848  0.8067 -0.0625 -0.5268
14280TIP3    H164331   5.165   2.087  13.813  0.4082 -3.0151  2.7024
14280TIP3    H264332   5.017   2.086  13.842 -0.8536  2.2157 -1.7633
14281TIP3   OH264333   4.314   1.907   5.460 -0.1272 -0.2236 -0.0689
14281TIP3    H164334   4.310   1.979   5.398 -1.7508  0.6580  0.9842
14281TIP3    H264335   4.391   1.928   5.515  0.2530 -0.0638 -0.6537
14282TIP3   OH264336   4.618   5.005   6.070 -0.0115 -0.4401 -0.3550
14282TIP3    H164337   4.556   5.068   6.033 -0.1693 -0.2545  0.2211
14282TIP3    H264338   4.648   5.045   6.152  1.8795  0.0739 -1.2471
14283TIP3   OH264339   5.168   3.723  15.948 -0.4385  0.3539 -0.2014
14283TIP3    H164340   5.190   3.631  15.959 -2.3490 -0.1322 -0.0867
14283TIP3    H264341   5.084   3.723  15.903 -0.0241  2.0847 -1.0912
14284TIP3   OH264342   0.938   1.867   6.334 -0.1286 -0.0799  0.5577
14284TIP3    H164343   0.931   1.956   6.368 -0.2594  0.7347 -1.4732
14284TIP3    H264344   1.031   1.857   6.311  0.0999 -0.8692  1.7281
14285TIP3   OH264345   4.903   3.741  15.885  0.0233  0.2979  0.2515
14285TIP3    H164346   4.843   3.691  15.831  0.7511 -3.1191  2.3060
14285TIP3    H264347   4.882   3.832  15.867 -3.1658 -0.7129 -1.8790
14286TIP3   OH264348   2.087   2.227  11.870  0.2622 -0.2154  0.2436
14286TIP3    H164349   2.174   2.265  11.866  0.8232 -1.4163  0.4885
14286TIP3    H264350   2.092   2.161  11.939 -0.9007 -0.1821  0.3927
14287TIP3   OH264351   4.411   1.249  11.628  0.3179 -0.3172  0.5829
14287TIP3    H164352   4.366   1.286  11.705 -3.9032 -0.1457 -1.6886
14287TIP3    H264353   4.417   1.323  11.567  0.1268 -1.2749 -0.6222
14288TIP3   OH264354   5.194   2.748  15.457 -0.2442 -0.3291 -0.0126
14288TIP3    H164355   5.273   2.720  15.503  0.0766 -3.4053 -2.1519
14288TIP3    H264356   5.124   2.698  15.498 -0.6022 -0.0235 -0.2515
14289TIP3   OH264357   5.323   6.578   4.369  0.3808  0.2981 -0.9098
14289TIP3    H164358   5.382   6.653   4.369 -1.1162  1.5347 -0.6495
14289TIP3    H264359   5.275   6.586   4.451 -0.8459 -0.0610 -1.5640
14290TIP3   OH264360   6.225   2.493   0.260 -0.0393  0.7244 -0.5358
14290TIP3    H164361   6.224   2.513   0.354 -0.2929  1.1978 -0.6399
14290TIP3    H264362   6.133   2.488   0.235 -0.0275 -1.3910 -0.3550
14291TIP3   OH264363   2.289   1.595   5.936 -0.1512 -0.3091 -0.0813
14291TIP3    H164364   2.375   1.554   5.927  0.5135  1.1963 -0.9398
14291TIP3    H264365   2.288   1.629   6.026  0.0414 -0.5723  0.0199
14292TIP3   OH264366   0.750   3.818   2.549  0.2781 -0.2357 -0.2679
14292TIP3    H164367   0.732   3.725   2.536 -0.2145 -0.1950  0.0747
14292TIP3    H264368   0.812   3.821   2.622 -0.0358 -0.2804  0.0039
14293TIP3   OH264369   2.977   6.514   1.541 -0.6073  0.0256 -0.4201
14293TIP3    H164370   2.923   6.577   1.589 -0.1157 -1.1851  1.8675
14293TIP3    H264371   3.067   6.535   1.567 -0.3006 -0.5472 -0.9947
14294TIP3   OH264372   1.627   4.861  16.237  0.4516  0.9990  0.8826
14294TIP3    H164373   1.653   4.951  16.259  0.7222  1.1403  0.0076
14294TIP3    H264374   1.696   4.829  16.180  0.3148  0.2479  1.1245
14295TIP3   OH264375   4.021   1.581   5.532  0.0059  0.0226 -0.4859
14295TIP3    H164376   4.055   1.667   5.558  1.3028 -0.3085 -1.0171
14295TIP3    H264377   3.987   1.594   5.444 -0.0815  0.0528 -0.4484
14296TIP3   OH264378   2.811   1.800  16.669 -0.3897  0.7239 -0.0685
14296TIP3    H164379   2.795   1.895  16.663 -0.7574  0.6746  0.0910
14296TIP3    H264380   2.732   1.760  16.633  0.6490  0.4708 -2.2112
14297TIP3   OH264381   4.163   0.409   1.024 -0.6211  0.1925  0.3223
14297TIP3    H164382   4.235   0.359   1.062 -0.5864 -1.6519 -2.0069
14297TIP3    H264383   4.205   0.484   0.983 -0.0251 -0.6459 -0.6519
14298TIP3   OH264384   2.270   3.866  16.793 -0.6843  0.7415 -0.1461
14298TIP3    H164385   2.276   3.774  16.768 -1.7237  0.7478 -0.5118
14298TIP3    H264386   2.190   3.896  16.749 -2.0727  1.0255  2.4043
14299TIP3   OH264387   1.393   5.511  14.308  0.3402 -0.0299 -0.4046
14299TIP3    H164388   1.370   5.480  14.221 -1.9761  0.0766  0.1019
14299TIP3    H264389   1.408   5.605  14.297  0.7019 -0.1298 -0.7848
14300TIP3   OH264390   4.461   1.166  11.345 -0.1328 -0.1574 -0.1430
14300TIP3    H164391   4.465   1.261  11.349 -1.5192 -0.0860  0.2730
14300TIP3    H264392   4.394   1.142  11.410 -0.4812 -1.3412 -0.9080
14301TIP3   OH264393   2.242   2.033   1.325  0.6894  0.7874 -0.4791
14301TIP3    H164394   2.297   1.959   1.350 -0.2513 -0.1422 -1.1040
14301TIP3    H264395   2.231   2.025   1.231 -2.7219 -0.7007 -0.1040
14302TIP3   OH264396   1.709   6.662  11.744  0.5498 -0.6233  0.5352
14302TIP3    H164397   1.682   6.728  11.808 -0.0456 -0.3653  0.0432
14302TIP3    H264398   1.703   6.579  11.790  0.8156 -0.3732  1.0193
14303TIP3   OH264399   0.873   0.959   2.988  0.4100  0.5083  0.6617
14303TIP3    H164400   0.958   0.916   2.986 -0.0796 -0.4797 -1.3455
14303TIP3    H264401   0.810   0.889   3.004  0.0025  1.4644  3.9775
14304TIP3   OH264402   1.881   1.051  16.652  0.0504 -0.3669  0.1887
14304TIP3    H164403   1.787   1.066  16.666 -0.5449 -1.6831 -1.9688
14304TIP3    H264404   1.924   1.113  16.711 -2.1600  0.3136  1.1992
14305TIP3   OH264405   4.004   0.651  13.469  0.3778 -0.2860 -0.4875
14305TIP3    H164406   4.012   0.641  13.564 -1.2710  0.1146 -0.2694
14305TIP3    H264407   3.991   0.561  13.437 -1.5261 -0.2239 -0.0146
14306TIP3   OH264408   1.211   0.664   3.684  0.4992 -0.4925 -0.0914
14306TIP3    H164409   1.187   0.595   3.622 -1.2036 -0.2865  0.2821
14306TIP3    H264410   1.172   0.635   3.767  2.4257 -0.5945  0.8189
14307TIP3   OH264411   3.065   0.029  12.304  0.6638  0.7178 -0.2069
14307TIP3    H164412   3.124   0.091  12.260  0.8032 -0.1712 -1.3162
14307TIP3    H264413   3.121  -0.017  12.367  0.7760  1.0291 -0.0759
14308TIP3   OH264414   5.047   4.265  13.415  0.4645 -0.5758 -0.8004
14308TIP3    H164415   4.984   4.192  13.414  1.9740 -1.9520 -0.0567
14308TIP3    H264416   5.111   4.243  13.348  0.1888  0.8211 -1.5602
14309TIP3   OH264417   1.587   4.710  10.209  0.6610  0.0222 -0.0670
14309TIP3    H164418   1.584   4.765  10.288  0.2256  2.3517 -1.6073
14309TIP3    H264419   1.668   4.737  10.166 -0.3113  0.6080 -1.6030
14310TIP3   OH264420   3.642   0.765  15.504 -0.7719  0.3059 -0.3174
14310TIP3    H164421   3.697   0.728  15.435  0.7028 -0.0367  1.0001
14310TIP3    H264422   3.625   0.855  15.475 -0.0844  0.2060 -1.0774
14311TIP3   OH264423   0.760   1.863  14.893 -0.0247 -0.2841  0.0514
14311TIP3    H164424   0.812   1.833  14.819 -0.6895 -1.5111  0.0494
14311TIP3    H264425   0.754   1.787  14.951 -0.7883  0.1910  0.6244
14312TIP3   OH264426   2.320   0.698  13.442  0.2228  0.5274  0.4598
14312TIP3    H164427   2.340   0.764  13.376  0.0045  0.0941 -0.0359
14312TIP3    H264428   2.244   0.651  13.409  0.7832 -0.4207  0.4828
14313TIP3   OH264429   4.346   3.714   4.146  0.2013  0.4995  0.3139
14313TIP3    H164430   4.426   3.744   4.104  0.3686  0.3022  0.4911
14313TIP3    H264431   4.357   3.736   4.238  0.4915 -0.4299  0.5198
14314TIP3   OH264432   2.760   0.345  13.810  0.6221  0.3226  0.0672
14314TIP3    H164433   2.775   0.363  13.903 -2.0658  0.1166  0.6181
14314TIP3    H264434   2.672   0.378  13.793  0.5737 -0.7526 -2.1191
14315TIP3   OH264435   3.853   2.464   1.839  0.2818  0.2955 -0.0386
14315TIP3    H164436   3.881   2.542   1.886  0.8154  1.0533 -1.5302
14315TIP3    H264437   3.758   2.474   1.829 -0.0066 -0.3882  1.7157
14316TIP3   OH264438   3.115   3.486  12.252  0.5542 -0.5794  0.2380
14316TIP3    H164439   3.133   3.395  12.276  0.3009 -0.7878 -0.3521
14316TIP3    H264440   3.033   3.482  12.203 -0.5644  0.2236  1.9337
14317TIP3   OH264441   3.137   5.921  16.744  0.1204 -0.1355 -0.0218
14317TIP3    H164442   3.061   5.864  16.737 -0.2130  0.4744 -2.4590
14317TIP3    H264443   3.201   5.870  16.793 -1.6053 -0.8940  1.5897
14318TIP3   OH264444   2.553   6.850  14.874 -0.1055  0.2051 -0.2563
14318TIP3    H164445   2.530   6.916  14.939  0.9794  0.2508  0.1147
14318TIP3    H264446   2.648   6.860  14.862  0.1689 -1.5378  0.1103
14319TIP3   OH264447   2.679   5.065   0.992  0.3571 -0.6935  0.6951
14319TIP3    H164448   2.671   4.973   0.967  1.9558 -0.5260 -0.5208
14319TIP3    H264449   2.732   5.105   0.923 -0.0341  1.0800  1.3720
14320TIP3   OH264450   1.092   6.354   2.797 -0.1553  0.1945 -0.0564
14320TIP3    H164451   1.182   6.347   2.765  0.3540  1.5875  0.9639
14320TIP3    H264452   1.058   6.265   2.790  0.6571 -0.0148 -2.2277
14321TIP3   OH264453   5.349   4.854   3.329 -0.5818  0.2231 -0.6748
14321TIP3    H164454   5.344   4.825   3.237  0.5940 -1.1710 -0.3395
14321TIP3    H264455   5.410   4.793   3.370  2.8095  3.6849 -0.0360
14322TIP3   OH264456   4.796   0.940  11.706 -0.2380 -0.1658 -0.0920
14322TIP3    H164457   4.871   0.977  11.752 -0.5543  0.8804 -0.3791
14322TIP3    H264458   4.757   1.015  11.660 -1.5934 -0.6260  0.2536
14323TIP3   OH264459   4.471   3.630  13.817 -0.4006  0.0335  0.5138
14323TIP3    H164460   4.473   3.535  13.830  0.0811 -0.0078  0.1438
14323TIP3    H264461   4.395   3.659  13.869 -0.5900 -0.5572  0.5797
14324TIP3   OH264462   4.473   3.902  15.598  0.2430 -0.8705  0.6752
14324TIP3    H164463   4.460   3.846  15.521 -0.1358 -0.0285  0.1156
14324TIP3    H264464   4.466   3.991  15.564  1.5902 -0.4591  1.4289
14325TIP3   OH264465   1.727   4.127   2.506  0.1310 -0.7532 -0.3795
14325TIP3    H164466   1.652   4.073   2.483  0.0596 -2.2595  2.7711
14325TIP3    H264467   1.720   4.205   2.451 -2.1195 -2.1087 -2.1434
14326TIP3   OH264468   4.015   5.284  16.951  0.3936 -0.0755 -0.1545
14326TIP3    H164469   4.109   5.289  16.966  0.0480  0.1662  2.5509
14326TIP3    H264470   3.996   5.358  16.893  1.7276  0.5792  0.1981
14327TIP3   OH264471   6.349   4.215   1.618 -0.5621 -0.2143 -0.4866
14327TIP3    H164472   6.352   4.260   1.534  0.1950  0.7753  0.0536
14327TIP3    H264473   6.406   4.266   1.675 -0.7318 -1.1075  0.5203
14328TIP3   OH264474   2.396   4.693  16.137  0.2566  0.1868 -0.2230
14328TIP3    H164475   2.442   4.632  16.080  0.6366 -0.9944  1.2990
14328TIP3    H264476   2.398   4.652  16.224  0.7807  2.4834  0.9313
14329TIP3   OH264477   6.615   6.772  10.545 -0.2969 -0.3754  0.3375
14329TIP3    H164478   6.624   6.686  10.504 -1.7675 -0.2532 -0.2842
14329TIP3    H264479   6.579   6.828  10.477 -2.4960 -0.0910  1.6477
14330TIP3   OH264480   3.644   0.653   3.681 -0.4124  0.4903  0.3843
14330TIP3    H164481   3.657   0.712   3.756  1.2842 -0.1610  0.6512
14330TIP3    H264482   3.610   0.710   3.612 -1.1362  1.2812  1.3622
14331TIP3   OH264483   2.522   3.653  14.819 -0.3196 -0.0405 -0.1192
14331TIP3    H164484   2.518   3.577  14.877  1.6976  0.4829  0.7575
14331TIP3    H264485   2.591   3.632  14.756  0.5995  1.2557  0.4322
14332TIP3   OH264486   5.967   5.079   4.207  0.2565  0.3738  0.4150
14332TIP3    H164487   5.954   4.984   4.207 -1.1633  0.5475  1.1402
14332TIP3    H264488   6.058   5.091   4.233  0.7169 -0.8051 -0.5372
14333TIP3   OH264489   2.661   6.709   2.112 -0.2308  0.0993  0.2663
14333TIP3    H164490   2.676   6.618   2.086 -0.3708 -0.6177  2.4767
14333TIP3    H264491   2.608   6.703   2.191 -0.7422  2.1499  0.1370
14334TIP3   OH264492   3.332   2.851  14.502 -0.5561 -0.4381  0.0467
14334TIP3    H164493   3.299   2.827  14.589  1.0178 -0.5405  0.6484
14334TIP3    H264494   3.395   2.782  14.481 -0.6106 -0.1806 -0.9976
14335TIP3   OH264495   1.214   0.291   1.012  0.2580 -0.1920  0.4100
14335TIP3    H164496   1.215   0.360   1.079  0.1521 -0.1583  0.3761
14335TIP3    H264497   1.141   0.314   0.955  0.4581 -0.1227  0.1821
14336TIP3   OH264498   0.652   4.730  15.435 -0.4076  0.2291 -0.1508
14336TIP3    H164499   0.655   4.697  15.345 -0.1108 -0.1087 -0.0178
14336TIP3    H264500   0.582   4.679  15.477  0.2913 -0.4975  0.1552
14337TIP3   OH264501   0.446   2.275  12.988 -0.0805  0.1026  0.3373
14337TIP3    H164502   0.407   2.359  12.964 -1.1345 -0.5421 -0.2961
14337TIP3    H264503   0.427   2.265  13.081 -0.0664  0.5007  0.3843
14338TIP3   OH264504   5.175   0.913   5.942  0.1260 -0.2068 -0.1256
14338TIP3    H164505   5.091   0.871   5.962 -0.0827 -0.3975 -1.2941
14338TIP3    H264506   5.194   0.886   5.852  1.0199  0.5325 -0.1737
14339TIP3   OH264507   0.485   2.638   5.162  0.4791 -0.8339  0.2859
14339TIP3    H164508   0.424   2.568   5.185  2.0455 -2.0563  0.8321
14339TIP3    H264509   0.454   2.713   5.214 -0.9234 -1.2168  0.0619
14340TIP3   OH264510   1.650   0.535   0.900 -0.5099 -0.1967  0.3690
14340TIP3    H164511   1.670   0.602   0.966 -2.6164 -0.0954  0.9917
14340TIP3    H264512   1.667   0.578   0.816 -1.7384  1.1270  0.7633
14341TIP3   OH264513   1.004   1.776   3.762  0.2701 -0.0164 -0.0446
14341TIP3    H164514   1.086   1.817   3.789  1.0535 -1.7711  0.3752
14341TIP3    H264515   0.962   1.750   3.843 -0.2013 -0.0789 -0.3034
14342TIP3   OH264516   5.122   3.111   5.528 -0.0786 -0.3359  0.2084
14342TIP3    H164517   5.151   3.107   5.437  0.2678 -0.9335  0.3333
14342TIP3    H264518   5.034   3.073   5.527  0.4148 -1.5421  0.2955
14343TIP3   OH264519   3.913   3.813  15.733  0.0701  0.3492 -0.1440
14343TIP3    H164520   3.932   3.858  15.651  0.8470 -1.0700 -0.7767
14343TIP3    H264521   3.971   3.855  15.797  2.3211 -1.0617 -1.1629
14344TIP3   OH264522   3.023   0.554  14.839  0.3280  0.1977 -0.3339
14344TIP3    H164523   3.106   0.546  14.791 -0.5584  0.5855 -2.0402
14344TIP3    H264524   2.981   0.469  14.828 -0.4831  0.7185 -1.4962
14345TIP3   OH264525   6.369   3.666   4.982  0.3588 -0.9886  0.1634
14345TIP3    H164526   6.284   3.666   4.937 -0.9167 -1.6672  2.4055
14345TIP3    H264527   6.394   3.574   4.987  1.9056 -0.7142 -1.5592
14346TIP3   OH264528   0.464   3.085   1.584  0.1081 -0.1252 -0.2098
14346TIP3    H164529   0.431   3.083   1.494 -2.2006 -1.6713  0.5766
14346TIP3    H264530   0.535   3.020   1.585  0.0555 -0.2050 -0.8729
14347TIP3   OH264531   5.663   3.225   5.849  0.4630 -0.2020  0.6105
14347TIP3    H164532   5.680   3.304   5.901 -0.2707  1.4131 -1.4423
14347TIP3    H264533   5.596   3.252   5.787  1.1533 -2.0681 -1.0468
14348TIP3   OH264534   6.753   4.120   0.083 -0.4444  0.1367 -0.3325
14348TIP3    H164535   6.697   4.043   0.096 -0.3080  0.3201  1.5269
14348TIP3    H264536   6.838   4.094   0.116 -0.3497  1.0181  0.1417
14349TIP3   OH264537   1.156   6.114  13.362 -0.1471 -0.2773 -0.2396
14349TIP3    H164538   1.192   6.127  13.274 -1.2646 -1.8994 -0.9863
14349TIP3    H264539   1.233   6.108  13.418  0.5668  3.1086 -0.6677
14350TIP3   OH264540   4.721   2.765   5.082  0.2958 -0.2089  0.1712
14350TIP3    H164541   4.771   2.796   5.006  0.5094 -0.0048  0.3921
14350TIP3    H264542   4.786   2.756   5.152  0.1078 -0.4385  0.3198
14351TIP3   OH264543   0.561   6.516  13.258 -0.0522  0.0081 -0.3880
14351TIP3    H164544   0.498   6.541  13.191 -2.0300 -2.1812  0.4928
14351TIP3    H264545   0.549   6.581  13.327 -0.7142  0.1611 -0.6320
14352TIP3   OH264546   1.015   6.099  14.752 -0.3229 -0.0962  0.0700
14352TIP3    H164547   0.966   6.017  14.744 -2.0761  0.4434  3.4875
14352TIP3    H264548   1.087   6.078  14.812 -0.3659  0.6758  0.4076
14353TIP3   OH264549   1.205   1.763  16.929  0.1723  0.1465  0.3685
14353TIP3    H164550   1.114   1.770  16.958  0.3353  2.6850  0.4616
14353TIP3    H264551   1.209   1.817  16.851  1.8245  0.9039  0.9516
14354TIP3   OH264552   6.223   4.718   4.087  0.3276 -0.5650 -0.5868
14354TIP3    H164553   6.161   4.773   4.038  2.3187  0.1848 -2.4052
14354TIP3    H264554   6.170   4.681   4.157 -1.7775  1.4265 -0.9673
14355TIP3   OH264555   2.606   4.530   6.096  0.1985  0.3271 -0.4333
14355TIP3    H164556   2.664   4.481   6.038 -0.4699  0.5473 -1.3147
14355TIP3    H264557   2.518   4.500   6.073 -0.0202 -0.5619  1.4092
14356TIP3   OH264558   3.625   3.609  12.793 -0.0410 -0.0338  0.2362
14356TIP3    H164559   3.638   3.699  12.823  2.1464  0.1458 -0.9763
14356TIP3    H264560   3.624   3.615  12.698  1.0590 -1.3440  0.0965
14357TIP3   OH264561   2.814   5.566   5.008 -0.5726  0.4525 -0.6902
14357TIP3    H164562   2.772   5.618   5.077  0.8557 -0.3111  0.8166
14357TIP3    H264563   2.906   5.594   5.010 -0.1762 -0.7766 -1.1391
14358TIP3   OH264564   2.571   0.568   3.580  0.3477 -0.1341  0.0128
14358TIP3    H164565   2.507   0.618   3.530  0.0663  0.9408  1.4079
14358TIP3    H264566   2.653   0.617   3.571  0.5795 -0.5696 -0.3258
14359TIP3   OH264567   6.139   3.093   6.229  0.5206  0.2519 -0.1178
14359TIP3    H164568   6.162   3.068   6.318  0.1116 -0.8865 -0.3259
14359TIP3    H264569   6.146   3.189   6.229 -1.9300  0.5548  1.8506
14360TIP3   OH264570   4.224   4.431   1.012 -0.1890  0.6103 -0.3161
14360TIP3    H164571   4.166   4.401   0.942  0.0586  0.1976 -0.3469
14360TIP3    H264572   4.239   4.524   0.993  1.1635  0.1338 -1.7105
14361TIP3   OH264573   4.751   6.532   0.329 -0.5092  0.0671  0.7112
14361TIP3    H164574   4.724   6.614   0.287 -0.8324  0.1448  1.0658
14361TIP3    H264575   4.702   6.530   0.410 -1.0806 -0.8655  0.3494
14362TIP3   OH264576   2.243   0.182  14.883  0.2209 -0.0186 -0.6149
14362TIP3    H164577   2.202   0.161  14.799  0.2995  0.6202 -0.8208
14362TIP3    H264578   2.229   0.104  14.937 -0.7232 -0.0537 -0.8839
14363TIP3   OH264579   6.033   2.647   2.293  0.3093  0.1493  0.4943
14363TIP3    H164580   5.939   2.637   2.302  0.2979 -0.0925  0.1435
14363TIP3    H264581   6.070   2.608   2.372  0.0622  1.4207  1.2579
14364TIP3   OH264582   1.352   1.654   4.197  0.4881  0.5127 -1.0625
14364TIP3    H164583   1.282   1.629   4.137 -1.4145  0.3956  1.0285
14364TIP3    H264584   1.393   1.571   4.221 -0.1036  0.3116 -0.7018
14365TIP3   OH264585   0.066   1.683  12.561  0.6695 -0.1110  0.5478
14365TIP3    H164586   0.021   1.731  12.491  0.7371  1.0219  1.2596
14365TIP3    H264587   0.127   1.747  12.598 -0.6019 -0.1075  2.8102
14366TIP3   OH264588   1.212   6.058  12.372 -0.0987  0.1228  0.1064
14366TIP3    H164589   1.292   6.071  12.423 -0.8429 -1.6762  1.8916
14366TIP3    H264590   1.141   6.074  12.434 -1.0562 -1.6528 -0.4529
14367TIP3   OH264591   2.722   4.047   1.153  0.1750 -0.0771  0.0238
14367TIP3    H164592   2.631   4.018   1.152  0.0446  0.3083 -1.1975
14367TIP3    H264593   2.741   4.066   1.245 -1.7248  2.1723  0.0371
14368TIP3   OH264594   1.488   3.757   4.159  0.3642  0.1327  0.0110
14368TIP3    H164595   1.426   3.684   4.163 -0.1737  0.4903 -1.1582
14368TIP3    H264596   1.432   3.835   4.161  0.8967  0.5086  0.6396
14369TIP3   OH264597   1.482   6.647  13.475  0.4348 -0.3286  0.7094
14369TIP3    H164598   1.454   6.681  13.389  1.9513 -1.2718 -0.2072
14369TIP3    H264599   1.421   6.687  13.537 -0.9773  0.0768 -0.8373
14370TIP3   OH264600   0.883   4.341   1.699  0.1216  0.3515  0.0352
14370TIP3    H164601   0.854   4.422   1.741  0.9792  0.9026 -0.4057
14370TIP3    H264602   0.973   4.329   1.730  0.6733  0.6178 -1.3856
14371TIP3   OH264603   0.044   6.825  13.840  0.1426 -0.2554  0.0849
14371TIP3    H164604  -0.042   6.782  13.840  0.9587 -2.0171  1.4873
14371TIP3    H264605   0.025   6.916  13.819 -1.9165 -0.8481 -0.9696
14372TIP3   OH264606   2.715   5.037   2.001 -0.4129  0.0355 -0.4488
14372TIP3    H164607   2.653   5.010   1.934 -1.1404 -2.1257  0.9574
14372TIP3    H264608   2.661   5.057   2.077  0.4578  0.9572 -0.0488
14373TIP3   OH264609   1.906   0.920   2.648 -0.0235 -0.1707  0.3224
14373TIP3    H164610   1.888   0.950   2.559  0.3879 -0.0677  0.2710
14373TIP3    H264611   1.916   0.825   2.640  0.3041 -0.1295  0.2040
14374TIP3   OH264612   1.578   2.142   0.431  0.0360  0.6390 -0.1751
14374TIP3    H164613   1.482   2.146   0.439 -0.1986 -2.7236  0.2217
14374TIP3    H264614   1.595   2.162   0.339 -1.3192 -0.9539 -0.8327
14375TIP3   OH264615   4.617   4.809   0.330 -0.3060 -0.5223 -0.2518
14375TIP3    H164616   4.653   4.723   0.309  0.5097 -0.2323 -0.1002
14375TIP3    H264617   4.681   4.848   0.389 -0.2440  0.5002 -0.9553
14376TIP3   OH264618   0.386   6.531  14.497 -0.5099 -0.3089  0.1108
14376TIP3    H164619   0.378   6.596  14.567  0.2642  0.9730 -0.9648
14376TIP3    H264620   0.439   6.461  14.536 -0.4814  0.1732  0.9609
14377TIP3   OH264621   0.874   6.654   5.661 -0.3813 -0.1730  0.0204
14377TIP3    H164622   0.969   6.647   5.651 -0.2934  1.6749 -0.7939
14377TIP3    H264623   0.839   6.637   5.574 -0.6779  0.7420 -0.0493
14378TIP3   OH264624   0.505   6.667   0.341 -0.1133  0.6547  0.0925
14378TIP3    H164625   0.455   6.585   0.344 -0.2987  0.6105 -2.3088
14378TIP3    H264626   0.576   6.654   0.403 -0.4649 -1.1210  0.1750
14379TIP3   OH264627   0.166   1.477   5.200  0.6347 -0.5375  0.3133
14379TIP3    H164628   0.085   1.516   5.169  0.9036 -0.0212  0.2584
14379TIP3    H264629   0.218   1.550   5.233  0.2193 -1.0971  2.3255
14380TIP3   OH264630   3.867   0.328  15.404 -0.4365 -0.0254 -0.0478
14380TIP3    H164631   3.875   0.360  15.494 -0.7318 -0.0305 -0.0202
14380TIP3    H264632   3.849   0.234  15.413 -1.9258  0.2444 -0.0792
14381TIP3   OH264633   6.577   6.473   1.923  0.0796 -0.2330  0.1094
14381TIP3    H164634   6.594   6.386   1.958 -0.6647 -1.1235 -1.6299
14381TIP3    H264635   6.613   6.471   1.834 -2.2325  0.2895 -0.9285
14382TIP3   OH264636   1.577   0.339   3.407 -0.0556  0.4575  0.9628
14382TIP3    H164637   1.559   0.395   3.332 -1.3563 -1.0271  0.0812
14382TIP3    H264638   1.620   0.395   3.470  1.0677  1.7807 -0.8793
14383TIP3   OH264639   5.642   0.246  14.596  0.2104  0.5295 -0.2545
14383TIP3    H164640   5.555   0.242  14.555 -0.3131 -0.3703  0.8945
14383TIP3    H264641   5.697   0.191  14.542 -0.7298 -1.5343  0.7917
14384TIP3   OH264642   2.101   4.062  15.997  0.4821  0.0097 -0.4374
14384TIP3    H164643   2.069   4.040  16.084  0.2308 -1.1253 -0.7998
14384TIP3    H264644   2.037   4.125  15.963  0.4819  0.3165  0.1208
14385TIP3   OH264645   0.812   4.509  10.957 -0.2231 -0.1064 -0.5837
14385TIP3    H164646   0.879   4.553  11.010  0.1207  0.1211 -1.1986
14385TIP3    H264647   0.773   4.445  11.016 -0.6577  0.9314  0.3106
14386TIP3   OH264648   3.446   4.752  14.988 -0.3766 -0.7726 -0.1337
14386TIP3    H164649   3.472   4.709  15.069 -0.8641 -1.0364 -0.1117
14386TIP3    H264650   3.496   4.707  14.919  3.3155  2.1242  0.3069
14387TIP3   OH264651   6.081   5.540   3.994  0.2431 -0.4125 -0.3627
14387TIP3    H164652   5.988   5.533   3.973  0.2458  0.6738 -0.7784
14387TIP3    H264653   6.123   5.563   3.912  0.9037 -0.9830 -0.1958
14388TIP3   OH264654   3.428   2.561  15.839 -0.1450 -0.0758  0.6351
14388TIP3    H164655   3.501   2.507  15.870  0.4320  0.8970  1.0392
14388TIP3    H264656   3.351   2.504  15.845  0.7148 -1.4621 -0.7424
14389TIP3   OH264657   2.022   0.264   1.244  0.5930 -0.1721 -0.1899
14389TIP3    H164658   2.101   0.294   1.289  2.0791  0.3797 -2.9291
14389TIP3    H264659   2.044   0.176   1.213  0.5120  0.2972 -1.6769
14390TIP3   OH264660   1.593   2.872   6.483 -0.4217 -0.3558  0.1954
14390TIP3    H164661   1.618   2.781   6.496  0.3505 -0.1614  0.1253
14390TIP3    H264662   1.522   2.869   6.418  1.3070 -0.7547 -1.7883
14391TIP3   OH264663   6.082   0.194   5.998 -0.3797  0.5772  0.0627
14391TIP3    H164664   6.082   0.131   6.070 -3.1784 -1.3478 -1.4894
14391TIP3    H264665   6.058   0.277   6.040 -3.4787 -0.7781  1.2756
14392TIP3   OH264666   3.116   0.823  11.264  0.2872  0.0512 -0.1444
14392TIP3    H164667   3.160   0.859  11.341  0.9188 -1.2419  0.1235
14392TIP3    H264668   3.078   0.740  11.295 -0.1699 -0.0698 -1.0085
14393TIP3   OH264669   1.456   1.857  16.604  0.5679 -0.5772  0.0783
14393TIP3    H164670   1.546   1.880  16.580  0.3628 -1.1272 -1.3121
14393TIP3    H264671   1.433   1.786  16.544 -0.8486 -0.3277  0.3037
14394TIP3   OH264672   5.212   6.035   1.796  0.0627 -0.0673  0.2095
14394TIP3    H164673   5.175   6.115   1.759 -0.4293 -0.9151 -1.2218
14394TIP3    H264674   5.158   6.017   1.873 -1.3429 -0.2451 -0.7704
14395TIP3   OH264675   5.425   2.899  14.831  0.5109 -0.3109  0.9869
14395TIP3    H164676   5.376   2.972  14.796  0.0782 -0.5424  1.1016
14395TIP3    H264677   5.517   2.925  14.823  0.3499  0.3846  1.3433
14396TIP3   OH264678   0.378   3.935  14.263 -0.0576 -0.6856 -0.3166
14396TIP3    H164679   0.376   4.003  14.196  0.6119 -0.8700 -0.5307
14396TIP3    H264680   0.348   3.856  14.218  0.3507 -0.7999 -0.3953
14397TIP3   OH264681   1.916   2.235  15.438  0.4783  0.1412  0.5575
14397TIP3    H164682   1.966   2.317  15.439  0.8450 -0.0515 -0.5311
14397TIP3    H264683   1.982   2.167  15.443  0.3972 -0.1254 -1.1629
14398TIP3   OH264684   5.926   5.940  16.952 -0.1160  0.0640 -0.4265
14398TIP3    H164685   5.896   5.996  17.023  1.2396 -0.2936  0.4725
14398TIP3    H264686   5.947   5.857  16.994 -2.0856 -1.1583 -1.7309
14399TIP3   OH264687   6.377   1.645   0.199  0.6452 -0.9129  0.6792
14399TIP3    H164688   6.299   1.590   0.190 -1.4025  1.4946  2.3852
14399TIP3    H264689   6.343   1.731   0.220  3.7582  0.7940 -0.6671
14400TIP3   OH264690   1.510   1.331   1.155  0.6224 -0.2816  0.2421
14400TIP3    H164691   1.593   1.291   1.184  0.1745 -1.2746  0.1834
14400TIP3    H264692   1.486   1.389   1.228  2.1723  1.2834 -0.4156
14401TIP3   OH264693   6.086   4.072  15.651  0.5869 -0.1237 -0.1489
14401TIP3    H164694   6.161   4.014  15.665  1.6262  1.3006  0.3443
14401TIP3    H264695   6.025   4.050  15.722  0.4325 -1.3858 -0.6351
14402TIP3   OH264696   1.432   2.585   0.896 -0.1406 -0.4267 -0.6543
14402TIP3    H164697   1.528   2.585   0.894 -0.0424 -2.7754  0.4037
14402TIP3    H264698   1.407   2.507   0.846 -1.3830 -0.9718  0.7481
14403TIP3   OH264699   3.347   0.632  13.435  0.4541  0.0017  0.2238
14403TIP3    H164700   3.429   0.638  13.387 -0.1929 -1.7360 -1.2343
14403TIP3    H264701   3.280   0.655  13.371 -0.2772  0.1712  1.0287
14404TIP3   OH264702   0.227   4.468   0.931 -0.3906 -0.3969 -0.3478
14404TIP3    H164703   0.284   4.539   0.901  1.8512 -1.3561  1.3576
14404TIP3    H264704   0.169   4.508   0.995 -0.5478  0.2834 -0.9091
14405TIP3   OH264705   5.460   3.972   4.028  0.0306  0.0618  0.4197
14405TIP3    H164706   5.536   4.029   4.016  0.9865 -1.3351 -0.4342
14405TIP3    H264707   5.485   3.890   3.985 -1.4053 -0.9099  1.3666
14406TIP3   OH264708   4.130   0.487  12.382  0.3550  0.6175  0.2567
14406TIP3    H164709   4.153   0.580  12.391 -1.1479  1.2024 -1.3863
14406TIP3    H264710   4.101   0.461  12.469  0.6074  1.7560  0.6944
14407TIP3   OH264711   6.199   2.598   1.380 -0.1025  0.5001 -0.1028
14407TIP3    H164712   6.179   2.552   1.299  0.2561  2.1086 -1.1594
14407TIP3    H264713   6.120   2.647   1.400 -0.3561 -0.2490  0.8095
14408TIP3   OH264714   1.027   4.077  16.430  0.3452  0.0836 -0.8494
14408TIP3    H164715   1.120   4.097  16.438  0.2565  0.1100  0.1903
14408TIP3    H264716   0.983   4.161  16.443 -0.0092 -0.5181  3.2380
14409TIP3   OH264717   1.860   2.863  15.170 -0.2536 -0.1720  0.2033
14409TIP3    H164718   1.815   2.878  15.087  0.4065 -1.1440 -0.3538
14409TIP3    H264719   1.813   2.790  15.210  0.4141 -0.7817 -0.0926
14410TIP3   OH264720   5.959   2.297   2.307  0.3042 -0.6325  0.3102
14410TIP3    H164721   5.900   2.252   2.246 -0.3013  0.2835  0.1918
14410TIP3    H264722   6.004   2.361   2.252  0.2634 -0.2752  0.6944
14411TIP3   OH264723   2.675   3.516  12.821 -0.0501  0.0968 -0.1563
14411TIP3    H164724   2.755   3.477  12.856  0.2640 -0.7873 -1.7795
14411TIP3    H264725   2.605   3.458  12.851 -0.1661  1.0319  1.5142
14412TIP3   OH264726   0.577   6.085  11.412 -0.5522  0.1507  0.3412
14412TIP3    H164727   0.489   6.048  11.408 -0.8089  0.7094  0.7035
14412TIP3    H264728   0.568   6.172  11.374  0.5078 -0.9341 -2.6584
14413TIP3   OH264729   6.565   6.692  17.046  0.8729 -0.0942 -0.2352
14413TIP3    H164730   6.497   6.628  17.026  1.3152  0.0206 -2.2786
14413TIP3    H264731   6.642   6.662  16.999  1.7953  0.6451  0.7535
14414TIP3   OH264732   4.344   6.504  11.632 -0.0894 -0.0936 -0.1065
14414TIP3    H164733   4.361   6.592  11.666 -0.5073 -0.1439  0.2388
14414TIP3    H264734   4.376   6.445  11.701 -1.9400 -0.1885  0.7195
14415TIP3   OH264735   5.949   3.470   3.638  0.1329  0.3426 -0.6034
14415TIP3    H164736   5.964   3.445   3.547 -0.7429  1.5337 -1.0922
14415TIP3    H264737   5.854   3.468   3.648  0.2456 -2.2225  1.0317
14416TIP3   OH264738   6.007   4.606   3.180  0.3211 -0.3691 -0.0886
14416TIP3    H164739   6.015   4.545   3.254  1.1038 -0.3964 -0.1934
14416TIP3    H264740   5.974   4.687   3.219 -1.9888 -1.2160 -0.1268
14417TIP3   OH264741   2.525   4.858  13.912  0.1949 -0.3417 -0.5360
14417TIP3    H164742   2.583   4.787  13.938  0.9619 -0.8989 -3.4002
14417TIP3    H264743   2.526   4.856  13.816 -0.5169  2.9275 -0.7382
14418TIP3   OH264744   1.286   4.937  11.166  0.6423 -0.1357  0.0537
14418TIP3    H164745   1.281   4.841  11.163 -0.5059 -0.0851 -0.0668
14418TIP3    H264746   1.216   4.966  11.108  0.1331  0.7736  1.0879
14419TIP3   OH264747   3.487   4.604   0.710  0.2210 -0.8138 -0.2349
14419TIP3    H164748   3.512   4.531   0.653 -0.6876 -0.9495 -0.4778
14419TIP3    H264749   3.470   4.677   0.650 -2.2940 -1.3907 -0.3471
14420TIP3   OH264750   3.137   2.311   3.039  0.5548  0.0490  0.2166
14420TIP3    H164751   3.129   2.392   2.987 -0.7202  0.8446  1.5943
14420TIP3    H264752   3.086   2.246   2.990  1.3371  0.1254 -0.7419
14421TIP3   OH264753   5.506   0.855   2.677 -0.5461  0.7906  0.6797
14421TIP3    H164754   5.508   0.844   2.772 -1.3935  1.0731  0.7385
14421TIP3    H264755   5.471   0.942   2.663  0.3077  1.0580  0.1053
14422TIP3   OH264756   6.305   3.360  16.444 -0.5516  0.3979  0.1525
14422TIP3    H164757   6.215   3.349  16.474 -0.9047 -2.1743 -1.5178
14422TIP3    H264758   6.327   3.276  16.402  2.6954  0.8723  0.6408
14423TIP3   OH264759   6.023   5.355  17.110  0.6912  0.2176  0.3917
14423TIP3    H164760   6.039   5.321  17.022 -0.3399 -0.7468  0.5498
14423TIP3    H264761   6.108   5.387  17.140  0.9318  1.1798 -1.1961
14424TIP3   OH264762   4.031   4.568   5.271  0.0740 -0.3943  0.4021
14424TIP3    H164763   3.939   4.570   5.246  0.6313  1.2429 -1.8455
14424TIP3    H264764   4.065   4.654   5.246  2.7376 -1.7442 -1.1639
14425TIP3   OH264765   0.107   2.746   1.925 -0.0154 -0.5716 -0.6231
14425TIP3    H164766   0.097   2.705   1.839 -0.2038  0.8965 -1.3281
14425TIP3    H264767   0.201   2.759   1.935  0.0805 -1.4964 -0.2239
14426TIP3   OH264768   5.582   1.236   4.872  0.1945 -0.0066 -0.4257
14426TIP3    H164769   5.537   1.254   4.789 -2.1815 -0.2012  0.7327
14426TIP3    H264770   5.568   1.314   4.925  2.3377  0.4204 -0.4208
14427TIP3   OH264771   4.935   1.904   5.902  0.2742 -0.4814 -0.3725
14427TIP3    H164772   4.903   1.917   5.991  1.0900 -0.7371 -0.0325
14427TIP3    H264773   5.019   1.859   5.912  0.6818  0.0363 -1.2371
14428TIP3   OH264774   2.085   4.983   5.819  0.0423  0.2236  0.4847
14428TIP3    H164775   2.032   4.920   5.868  1.4122 -1.7039 -0.3577
14428TIP3    H264776   2.044   4.986   5.732 -0.3643  0.9764  0.6953
14429TIP3   OH264777   0.907   1.201  11.760  0.0476 -0.0403  0.2574
14429TIP3    H164778   0.840   1.136  11.740  0.3715  0.2479 -1.9331
14429TIP3    H264779   0.966   1.200  11.685  2.9110 -0.7050  2.3227
14430TIP3   OH264780   4.396   1.195  15.826  0.2994  0.7168 -0.4089
14430TIP3    H164781   4.419   1.254  15.754 -2.4691  2.3188 -0.1053
14430TIP3    H264782   4.433   1.236  15.904 -0.3389  1.2821 -0.3946
14431TIP3   OH264783   5.717   5.745  15.576  0.5634  0.6299 -0.2196
14431TIP3    H164784   5.736   5.660  15.616 -0.3831  0.8156  0.6471
14431TIP3    H264785   5.701   5.804  15.650  0.9993  1.5250 -0.8131
14432TIP3   OH264786   4.302   6.457  16.083 -0.4552  0.7863 -0.1490
14432TIP3    H164787   4.232   6.455  16.018  0.9910 -2.1030 -1.8381
14432TIP3    H264788   4.268   6.410  16.158 -0.3123 -0.8732 -1.0790
14433TIP3   OH264789   6.226   5.430   5.942 -0.3691  0.2253  0.1380
14433TIP3    H164790   6.214   5.361   5.877 -2.3638 -0.8866  1.5751
14433TIP3    H264791   6.280   5.390   6.010  1.3909  1.2582 -0.5840
14434TIP3   OH264792   5.351   0.058  15.822 -0.5983  0.3135 -0.4136
14434TIP3    H164793   5.425   0.057  15.882 -1.1902  1.2793  0.3607
14434TIP3    H264794   5.389   0.085  15.738  0.2382 -1.0993 -0.5100
14435TIP3   OH264795   0.394   4.514   1.512  0.2847  0.7706 -0.0720
14435TIP3    H164796   0.434   4.543   1.431  1.8113  1.7198  0.9629
14435TIP3    H264797   0.445   4.557   1.581 -1.4698  0.6522  1.3770
14436TIP3   OH264798   5.761   5.854  16.215 -0.2081 -0.8191 -0.3134
14436TIP3    H164799   5.746   5.760  16.226  0.2724 -0.8822 -0.2036
14436TIP3    H264800   5.709   5.894  16.285  1.1464 -1.1133  0.9139
14437TIP3   OH264801   6.354   2.357   2.753 -0.3298  0.2017  0.1335
14437TIP3    H164802   6.410   2.303   2.810 -1.3151 -1.3872 -0.3447
14437TIP3    H264803   6.370   2.322   2.665  1.3272  2.7511 -0.7049
14438TIP3   OH264804   6.663   4.730  11.809 -0.5708 -0.0822  0.5524
14438TIP3    H164805   6.650   4.819  11.843  0.6519  0.0399  0.7233
14438TIP3    H264806   6.624   4.673  11.876  1.1478  0.1984  1.8398
14439TIP3   OH264807   4.266   5.838  13.551 -0.2809  0.0524 -0.4109
14439TIP3    H164808   4.217   5.874  13.477 -1.0455 -1.5499 -0.7279
14439TIP3    H264809   4.341   5.795  13.511  0.1728  0.5433 -0.1043
14440TIP3   OH264810   3.857   2.916   2.843  0.3713 -0.5437  0.1434
14440TIP3    H164811   3.801   2.847   2.878 -0.5749 -0.3435 -0.8893
14440TIP3    H264812   3.795   2.983   2.812  1.2383  0.3712  0.3389
14441TIP3   OH264813   3.759   6.176  17.009 -0.5084  0.0462 -0.2009
14441TIP3    H164814   3.689   6.212  17.063 -2.0150  0.4790 -2.3242
14441TIP3    H264815   3.714   6.135  16.935  1.4617 -0.4053 -1.2218
14442TIP3   OH264816   0.813   1.842   5.198  0.1489  0.5770 -0.4758
14442TIP3    H164817   0.856   1.804   5.275 -0.8563  1.5328  0.5972
14442TIP3    H264818   0.841   1.787   5.125  0.1352 -1.1173  0.7457
14443TIP3   OH264819   1.750   4.947  15.427  0.4910  0.5426  0.3311
14443TIP3    H164820   1.742   5.042  15.429  1.8228  0.6651  1.5069
14443TIP3    H264821   1.814   4.927  15.496  1.1932 -1.0958 -0.7334
14444TIP3   OH264822   0.015   4.023   0.445 -0.6523 -0.5961 -0.2967
14444TIP3    H164823   0.020   4.097   0.505  0.5617  0.9166 -2.1532
14444TIP3    H264824  -0.068   4.034   0.399 -1.1499 -1.2442  0.4084
14445TIP3   OH264825   0.553   6.501  12.584 -0.5000 -0.7026 -0.3978
14445TIP3    H164826   0.637   6.464  12.555  0.2055  0.1866  0.4557
14445TIP3    H264827   0.553   6.491  12.679 -1.3197 -0.5772 -0.3727
14446TIP3   OH264828   4.268   0.245  10.586 -0.3457 -0.4399 -0.4283
14446TIP3    H164829   4.214   0.260  10.508 -0.5236  0.7028 -0.1038
14446TIP3    H264830   4.313   0.163  10.569 -0.5580 -0.3181 -1.6445
14447TIP3   OH264831   4.124   3.152  11.829 -0.0828  0.1973 -0.5547
14447TIP3    H164832   4.217   3.162  11.846  0.3445 -0.4823 -2.2552
14447TIP3    H264833   4.103   3.220  11.764 -1.1633  1.3835  0.9568
14448TIP3   OH264834   1.992   5.917   6.589 -0.1595 -0.2386 -0.1889
14448TIP3    H164835   1.897   5.932   6.585 -0.5248 -0.3624  3.8167
14448TIP3    H264836   2.000   5.822   6.600  0.1176  0.0222  2.4293
14449TIP3   OH264837   4.709   1.575   3.059  0.2209  0.5995 -0.5754
14449TIP3    H164838   4.652   1.526   3.119 -0.2539  0.5259 -1.0859
14449TIP3    H264839   4.729   1.656   3.106 -0.4498  0.7066 -0.4704
14450TIP3   OH264840   3.318   4.434  16.576 -0.3284 -0.2540 -0.2988
14450TIP3    H164841   3.232   4.469  16.556  0.7279  1.4374 -2.2443
14450TIP3    H264842   3.301   4.345  16.607 -2.8170  0.4560  0.6222
14451TIP3   OH264843   0.984   1.820   2.229  0.8324 -0.4680  0.1839
14451TIP3    H164844   1.055   1.761   2.202 -0.2472 -1.2629 -1.0247
14451TIP3    H264845   0.919   1.813   2.159  0.0450  1.1062  0.7138
14452TIP3   OH264846   6.162   6.537   4.691  0.0993  0.1208 -0.1371
14452TIP3    H164847   6.109   6.549   4.612 -1.3663 -0.6675  0.6796
14452TIP3    H264848   6.130   6.604   4.752  1.1725  0.6834 -0.1591
14453TIP3   OH264849   2.054   2.862  12.996 -0.3170 -0.3823  0.0376
14453TIP3    H164850   1.962   2.846  12.978 -0.0210  0.1120 -2.1768
14453TIP3    H264851   2.060   2.865  13.092 -2.8221  0.8476  0.2198
14454TIP3   OH264852   5.971   3.340  11.206 -0.2825  0.2404  0.2394
14454TIP3    H164853   5.904   3.311  11.268  2.3843  0.1832  3.3345
14454TIP3    H264854   6.010   3.417  11.247  1.9358 -0.0600 -1.1344
14455TIP3   OH264855   2.125   1.626   1.223  0.1195  0.3353  0.0206
14455TIP3    H164856   2.176   1.581   1.290  0.1683 -0.8403 -0.7814
14455TIP3    H264857   2.074   1.558   1.180  0.0155  1.0618 -1.0756
14456TIP3   OH264858   5.841   3.271  13.845 -0.1536  0.2460  0.6025
14456TIP3    H164859   5.850   3.189  13.893  2.2883 -0.1999 -0.4556
14456TIP3    H264860   5.857   3.339  13.910 -0.2188 -0.2019  1.0929
14457TIP3   OH264861   3.873   3.473   3.722  0.4955 -0.3814 -0.3556
14457TIP3    H164862   3.915   3.393   3.690  0.9613 -0.3707  0.2113
14457TIP3    H264863   3.868   3.530   3.645  1.4920 -0.4026 -0.4509
14458TIP3   OH264864   0.932   2.914   4.864 -0.0954  0.4608 -0.4554
14458TIP3    H164865   1.002   2.866   4.819 -0.1286  0.9598 -1.0492
14458TIP3    H264866   0.968   2.934   4.950 -0.4809 -1.6052  0.2584
14459TIP3   OH264867   3.810   5.536   5.325 -0.1610 -0.5059  0.1119
14459TIP3    H164868   3.795   5.622   5.365 -0.2846 -0.5802  0.2262
14459TIP3    H264869   3.855   5.555   5.243  0.6155 -0.3900  0.5618
14460TIP3   OH264870   3.747   1.750  10.771  0.0942 -0.0003 -0.2501
14460TIP3    H164871   3.822   1.691  10.757  0.3734  0.1538  0.5209
14460TIP3    H264872   3.691   1.703  10.833 -0.7170 -0.3365 -1.2182
14461TIP3   OH264873   6.018   4.580  11.552 -0.6871  0.2907  0.4230
14461TIP3    H164874   6.026   4.551  11.462  1.2115 -1.6700  1.1587
14461TIP3    H264875   6.022   4.676  11.547  2.3616  0.1598 -1.3645
14462TIP3   OH264876   6.167   5.086   5.183  0.4349 -0.3994  0.6912
14462TIP3    H164877   6.192   5.035   5.105  1.4765 -0.0774  0.7954
14462TIP3    H264878   6.162   5.176   5.152  0.6578 -0.2950  0.9576
14463TIP3   OH264879   6.677   6.397   3.687  0.2552  0.1039 -0.5500
14463TIP3    H164880   6.767   6.420   3.712  0.3615 -0.3421 -0.5062
14463TIP3    H264881   6.632   6.384   3.771  0.4070 -0.6234 -0.5712
14464TIP3   OH264882   6.767   0.685   5.060  0.1276  0.0686  0.1205
14464TIP3    H164883   6.779   0.681   5.155 -1.3260 -0.2911  0.3196
14464TIP3    H264884   6.684   0.640   5.045 -1.6042  3.2748 -0.9043
14465TIP3   OH264885   6.002   1.606   4.950 -0.0608 -0.1036  0.0466
14465TIP3    H164886   6.051   1.523   4.949  1.3321  0.6784 -1.6693
14465TIP3    H264887   6.024   1.646   5.034  1.7957 -0.0683 -0.4136
14466TIP3   OH264888   0.685   2.535   2.752  0.1002  0.4606  0.0292
14466TIP3    H164889   0.747   2.548   2.825 -0.0071 -0.5209  0.3070
14466TIP3    H264890   0.609   2.493   2.792 -0.1343  0.2935 -0.5828
14467TIP3   OH264891   6.588   2.127   2.663 -0.1390  0.2954 -0.1012
14467TIP3    H164892   6.595   2.153   2.571 -1.8282 -0.6339 -0.5263
14467TIP3    H264893   6.611   2.206   2.711 -1.9970  1.6849 -1.3429
14468TIP3   OH264894   3.685   6.463  11.339  0.2160 -0.2379 -0.6200
14468TIP3    H164895   3.684   6.369  11.356 -1.5340 -0.6730 -2.6794
14468TIP3    H264896   3.594   6.491  11.353  0.7509  1.2139  0.1637
14469TIP3   OH264897   5.492   6.107   1.809  0.2925  0.0162 -0.3199
14469TIP3    H164898   5.434   6.037   1.839  0.7907 -0.5755 -0.7101
14469TIP3    H264899   5.434   6.183   1.798 -0.1770 -0.2091  0.5198
14470TIP3   OH264900   4.281   0.331  15.636  0.0694  0.2456  0.0617
14470TIP3    H164901   4.358   0.386  15.623 -0.7779  1.4648  0.0030
14470TIP3    H264902   4.239   0.329  15.550  0.0193 -0.3884  0.0983
14471TIP3   OH264903   0.860   1.925  11.154 -0.0777  0.1054 -0.2460
14471TIP3    H164904   0.854   1.987  11.080  1.7316 -1.2811 -1.6359
14471TIP3    H264905   0.799   1.855  11.131 -0.4277  0.2500  0.2155
14472TIP3   OH264906   2.206   6.365  12.393 -0.3457  0.0377 -0.2810
14472TIP3    H164907   2.144   6.296  12.416  0.1983 -1.2096 -2.2545
14472TIP3    H264908   2.164   6.446  12.422 -0.8384 -1.0788  2.4983
14473TIP3   OH264909   1.275   2.225   2.713 -0.5321 -0.3367 -0.1594
14473TIP3    H164910   1.242   2.186   2.794 -2.2058  1.2246 -0.0090
14473TIP3    H264911   1.284   2.318   2.733  0.2165 -0.1149 -1.4192
14474TIP3   OH264912   5.318   0.796  13.514  0.1995  0.5051  0.0571
14474TIP3    H164913   5.357   0.716  13.479 -0.1368  0.1772  0.4179
14474TIP3    H264914   5.238   0.809  13.462  0.3473  0.7145 -0.1240
14475TIP3   OH264915   2.147   3.758   4.877 -0.4491 -0.1879 -0.0878
14475TIP3    H164916   2.083   3.687   4.871  0.2054 -0.9385  1.1479
14475TIP3    H264917   2.229   3.714   4.901  0.4655  0.7788 -1.3344
14476TIP3   OH264918   6.498   6.573   0.266  0.2858 -0.5310 -0.1363
14476TIP3    H164919   6.466   6.622   0.191  2.7679  0.1348 -0.8671
14476TIP3    H264920   6.484   6.481   0.244 -0.5766 -0.2933 -0.6141
14477TIP3   OH264921   3.781   1.720  14.107  0.6648  0.0342  0.2501
14477TIP3    H164922   3.757   1.673  14.027 -0.6886 -0.2539  0.8098
14477TIP3    H264923   3.748   1.809  14.093  2.0485  0.5091 -0.2451
14478TIP3   OH264924   5.228   4.594   1.927  0.2096  0.1825  0.4563
14478TIP3    H164925   5.319   4.610   1.903 -0.1648  0.6279 -0.7854
14478TIP3    H264926   5.203   4.669   1.980 -0.0404  1.2131 -1.0416
14479TIP3   OH264927   5.706   1.620   4.956  0.2462  0.0584 -0.7447
14479TIP3    H164928   5.802   1.614   4.961  0.2116 -2.1454 -1.7618
14479TIP3    H264929   5.689   1.646   4.865 -0.1382 -0.7727 -0.9178
14480TIP3   OH264930   6.829   0.992   0.454  0.6020  0.1728 -0.1048
14480TIP3    H164931   6.768   1.065   0.447  0.6810  0.3245  0.7429
14480TIP3    H264932   6.907   1.021   0.406  1.0122  1.0548  1.0735
14481TIP3   OH264933   0.759   2.200   4.204 -0.2857  0.1314 -0.5970
14481TIP3    H164934   0.699   2.163   4.139 -0.5570 -1.1416  0.3419
14481TIP3    H264935   0.844   2.163   4.182 -0.3750 -0.2893 -0.2395
14482TIP3   OH264936   6.845   3.975  16.885 -0.1647  0.1129 -0.2175
14482TIP3    H164937   6.924   3.922  16.879 -0.7084 -0.9344  1.3115
14482TIP3    H264938   6.876   4.065  16.876  1.2940 -0.2255  1.0303
14483TIP3   OH264939   3.543   6.432  14.368  0.3453  0.1104  0.1863
14483TIP3    H164940   3.550   6.511  14.314  1.4695 -1.4219 -2.0522
14483TIP3    H264941   3.574   6.460  14.454 -1.4791  2.6439  0.1626
14484TIP3   OH264942   2.326   2.048  14.332 -0.3818  0.1638 -0.2491
14484TIP3    H164943   2.421   2.033  14.329 -0.1273  1.7439 -2.0976
14484TIP3    H264944   2.301   2.025  14.422  1.6459 -0.7620  0.1398
14485TIP3   OH264945   0.305   3.858   3.437 -0.4773  0.6645 -0.1022
14485TIP3    H164946   0.291   3.905   3.520  0.3946  1.5652 -0.4410
14485TIP3    H264947   0.333   3.926   3.376  0.1674 -0.1996 -0.7940
14486TIP3   OH264948   4.379   3.320   1.468 -0.1410  0.6840 -0.3454
14486TIP3    H164949   4.469   3.349   1.464  0.9736 -1.7208  2.7586
14486TIP3    H264950   4.342   3.364   1.545 -0.2246 -1.3720  0.8770
14487TIP3   OH264951   0.900   5.098  16.666 -0.0324 -0.3709 -0.2140
14487TIP3    H164952   0.867   5.079  16.578  0.2477  1.1672 -0.6924
14487TIP3    H264953   0.891   5.193  16.674  1.3255 -0.3070  0.8521
14488TIP3   OH264954   2.912   3.205  15.521  0.4486  0.1917  0.1360
14488TIP3    H164955   2.989   3.213  15.576 -0.1121  2.3158  0.7143
14488TIP3    H264956   2.931   3.259  15.444 -0.5132  0.9485  0.4013
14489TIP3   OH264957   6.388   1.925  11.925  0.2259  0.1851 -0.1448
14489TIP3    H164958   6.300   1.958  11.942 -0.6278 -1.9966  0.0067
14489TIP3    H264959   6.446   1.999  11.943 -1.4396  1.1640  1.4663
14490TIP3   OH264960   1.822   6.793  15.927 -0.1698  0.7582 -0.8560
14490TIP3    H164961   1.821   6.748  16.011  0.2780 -0.1818 -1.3385
14490TIP3    H264962   1.729   6.804  15.905 -0.3059  1.8176  0.1624
14491TIP3   OH264963   6.591   3.184  11.325 -0.3299 -0.5865  0.1075
14491TIP3    H164964   6.573   3.097  11.360 -0.2108 -0.6442  0.0288
14491TIP3    H264965   6.653   3.168  11.253 -0.5855 -0.4739 -0.1402
14492TIP3   OH264966   4.139   5.257  12.012 -0.2536  0.6190 -0.2934
14492TIP3    H164967   4.178   5.184  12.059  1.8865  1.4373 -0.7239
14492TIP3    H264968   4.049   5.262  12.047  0.0936 -1.0903  0.9814
14493TIP3   OH264969   3.132   5.982  14.461 -0.1558  0.2079  0.2191
14493TIP3    H164970   3.040   5.993  14.439 -0.3145 -0.8001  0.3496
14493TIP3    H264971   3.137   6.000  14.555 -0.0736  1.0804  0.0518
14494TIP3   OH264972   0.838   2.342  14.188  0.8807 -0.1087  0.5410
14494TIP3    H164973   0.864   2.427  14.225 -0.7891  0.9546 -0.6109
14494TIP3    H264974   0.764   2.314  14.242  0.2063  0.1118 -0.2522
14495TIP3   OH264975   5.772   4.878  15.565 -0.3073 -0.1906 -0.4508
14495TIP3    H164976   5.711   4.917  15.628  1.8933  1.7565  0.6223
14495TIP3    H264977   5.798   4.795  15.604  0.6873  0.7842  1.0411
14496TIP3   OH264978   4.941   0.876  16.887 -0.0444  0.0975 -0.1268
14496TIP3    H164979   4.865   0.928  16.860 -0.7957  0.0881  1.8437
14496TIP3    H264980   4.999   0.940  16.928 -1.0796 -0.5481  2.5323
14497TIP3   OH264981   5.312   2.973   4.078  0.7515 -0.7007 -0.2021
14497TIP3    H164982   5.362   2.984   4.159 -0.4945  1.8282  0.3228
14497TIP3    H264983   5.245   2.908   4.100  2.1995 -2.2762 -0.1838
14498TIP3   OH264984   1.074   1.629  16.508  0.3141 -0.2368  0.4699
14498TIP3    H164985   1.133   1.704  16.515  0.2320 -0.0327 -0.8431
14498TIP3    H264986   1.122   1.566  16.455 -0.1418 -0.5820  0.4651
14499TIP3   OH264987   2.014   3.152  13.432  0.2591 -0.6225  0.1099
14499TIP3    H164988   2.093   3.159  13.486  0.6125  0.5328 -0.5104
14499TIP3    H264989   1.948   3.201  13.481  0.3023 -0.4394 -0.0133
14500TIP3   OH264990   4.694   4.676   4.378 -0.4381  0.2991  0.1939
14500TIP3    H164991   4.618   4.672   4.438 -0.8990  1.6962 -0.2472
14500TIP3    H264992   4.699   4.589   4.340 -0.5909 -0.4093  1.7227
14501TIP3   OH264993   1.247   3.185  14.450  0.5739  0.0770  0.3328
14501TIP3    H164994   1.291   3.235  14.380  0.1081 -0.2069 -0.1664
14501TIP3    H264995   1.319   3.146  14.500  0.9005 -0.1888 -0.3345
14502TIP3   OH264996   0.233   2.434  15.386 -0.0870  1.1458 -0.4568
14502TIP3    H164997   0.321   2.433  15.347 -0.2763  0.6384 -0.8911
14502TIP3    H264998   0.224   2.348  15.426 -0.9843  0.5600 -1.8249
14503TIP3   OH264999   4.365   2.677  16.805  0.3847  0.5063  0.5123
14503TIP3    H165000   4.316   2.613  16.754  0.5743 -1.0231  2.1367
14503TIP3    H265001   4.302   2.713  16.866  0.7182  0.3267  0.9742
14504TIP3   OH265002   2.411   5.368  13.932 -0.2939 -0.2451  0.3224
14504TIP3    H165003   2.484   5.423  13.906 -0.6759  0.1563  0.0870
14504TIP3    H265004   2.417   5.291  13.876 -0.5748  0.1970 -0.3244
14505TIP3   OH265005   1.603   0.407  14.761 -0.3772 -0.2070  0.1685
14505TIP3    H165006   1.532   0.343  14.758 -0.2321 -0.3645  0.0804
14505TIP3    H265007   1.580   0.471  14.694  0.1171 -0.8464 -0.6320
14506TIP3   OH265008   6.054   1.851   5.138 -0.4275  0.2712 -0.4316
14506TIP3    H165009   6.041   1.775   5.194 -0.2868  1.2508  0.9672
14506TIP3    H265010   6.147   1.871   5.147 -0.6167  1.0600 -0.1905
14507TIP3   OH265011   2.932   2.374  14.487 -0.0182  0.2080  0.4836
14507TIP3    H165012   2.995   2.412  14.548 -0.0082  0.9222  0.0381
14507TIP3    H265013   2.920   2.284  14.517 -0.3947  0.6919  1.8422
14508TIP3   OH265014   1.275   5.504   0.592 -0.2789 -0.5356  0.2715
14508TIP3    H165015   1.207   5.438   0.579 -0.5337 -0.1458 -0.4869
14508TIP3    H265016   1.253   5.573   0.529 -0.5072  0.6721  1.6361
14509TIP3   OH265017   3.628   6.840   0.493  0.1496 -0.3107  0.3304
14509TIP3    H165018   3.598   6.778   0.560  1.4565  0.6926  1.8952
14509TIP3    H265019   3.709   6.803   0.460 -0.7367 -1.0588 -1.1391
14510TIP3   OH265020   4.975   1.093  15.809 -0.1280  0.1917  0.1778
14510TIP3    H165021   4.955   1.007  15.772 -1.7923  0.9115 -0.6902
14510TIP3    H265022   4.896   1.145  15.792 -0.4318  1.0047  3.4788
14511TIP3   OH265023   1.663   4.883  12.049  0.0700  0.0026  0.4251
14511TIP3    H165024   1.707   4.860  12.131 -0.6185 -1.0834  0.5067
14511TIP3    H265025   1.574   4.849  12.059 -0.1804  0.3414 -0.5547
14512TIP3   OH265026   0.421   2.480   0.625  0.6792  0.1748  0.3940
14512TIP3    H165027   0.450   2.536   0.697  0.9668  0.7447 -0.1583
14512TIP3    H265028   0.338   2.518   0.596  1.5481  1.1437 -0.8760
14513TIP3   OH265029   0.997   3.931   4.563 -0.4877 -0.2477  0.2021
14513TIP3    H165030   0.905   3.911   4.550 -0.6257  0.7758 -0.4928
14513TIP3    H265031   1.044   3.875   4.502 -0.4470 -2.4323  2.1025
14514TIP3   OH265032   2.870   2.055   1.358  0.2931  0.3047 -0.5570
14514TIP3    H165033   2.807   1.984   1.359 -1.6474  1.9287 -1.1515
14514TIP3    H265034   2.862   2.094   1.271  3.0247 -0.1314 -1.1168
14515TIP3   OH265035   5.444   3.073   2.967 -0.1867  0.3611 -0.5136
14515TIP3    H165036   5.370   3.012   2.974 -0.6606  0.7948 -1.5228
14515TIP3    H265037   5.405   3.159   2.981 -0.1393  0.7198 -2.3359
14516TIP3   OH265038   0.285   5.915  15.938  0.4063  0.0456  0.7400
14516TIP3    H165039   0.337   5.955  16.008  0.3389  1.6808 -0.0916
14516TIP3    H265040   0.349   5.869  15.884  0.6804  0.1604  0.9664
14517TIP3   OH265041   2.060   2.788  14.439  0.1458  0.2205  1.0356
14517TIP3    H165042   2.156   2.782  14.443  0.0870 -0.2939  2.7052
14517TIP3    H265043   2.043   2.882  14.438  0.6667  0.3299  1.4846
14518TIP3   OH265044   5.950   3.172  15.300  0.6697 -0.2754  0.3816
14518TIP3    H165045   5.878   3.222  15.339  1.0632  0.1106  0.6152
14518TIP3    H265046   5.944   3.086  15.342 -0.1304 -0.4980 -0.1656
14519TIP3   OH265047   6.745   4.902  14.329 -0.2155  0.0489 -0.2466
14519TIP3    H165048   6.671   4.927  14.384 -1.0928 -0.5171 -1.1397
14519TIP3    H265049   6.789   4.985  14.309  1.1323  0.1471  2.6145
14520TIP3   OH265050   1.987   5.761   5.604 -0.7111 -0.0294  0.3614
14520TIP3    H165051   2.006   5.693   5.669 -1.5061 -0.2940  0.3366
14520TIP3    H265052   1.981   5.842   5.655  2.4140  0.4517  0.1228
14521TIP3   OH265053   2.651   5.495  16.379  0.0083 -0.5349 -0.2609
14521TIP3    H165054   2.701   5.577  16.372  1.0031 -1.0142  0.7722
14521TIP3    H265055   2.565   5.516  16.343 -0.3941  1.5501  1.6821
14522TIP3   OH265056   4.287   1.007   4.926  0.4551 -0.1573  0.2841
14522TIP3    H165057   4.262   1.097   4.945  1.8562  0.8567 -2.2258
14522TIP3    H265058   4.204   0.959   4.924 -0.4100  1.2535  0.7068
14523TIP3   OH265059   0.213   5.730  10.978 -0.0154 -0.7535 -0.2198
14523TIP3    H165060   0.195   5.799  11.042  1.7328  0.3319 -0.7975
14523TIP3    H265061   0.259   5.775  10.907  2.1012 -2.6395 -0.1776
14524TIP3   OH265062   2.723   4.823  15.702 -0.3005 -0.3682 -0.8714
14524TIP3    H165063   2.741   4.901  15.755  0.5124  0.3337 -2.1201
14524TIP3    H265064   2.687   4.857  15.621 -2.8029 -1.5115 -0.3164
14525TIP3   OH265065   4.653   1.008   4.556  0.3571  0.2230  0.0148
14525TIP3    H165066   4.669   1.054   4.638  0.1653  0.6556 -0.1855
14525TIP3    H265067   4.586   0.943   4.578  0.6411  0.0286  0.3037
14526TIP3   OH265068   0.818   5.913   3.396  0.0705  0.2534 -0.5724
14526TIP3    H165069   0.795   5.867   3.477  0.5491  0.4041 -0.3482
14526TIP3    H265070   0.741   5.903   3.340 -0.9036  1.4975  0.4863
14527TIP3   OH265071   5.733   0.475  15.826 -0.0096  0.2544  0.3282
14527TIP3    H165072   5.720   0.406  15.891  1.4528 -0.7072 -0.3634
14527TIP3    H265073   5.651   0.524  15.827  0.3811  1.1817  3.9159
14528TIP3   OH265074   0.106   3.428   3.616  0.2544  0.4707  0.0797
14528TIP3    H165075   0.097   3.510   3.567  1.0577  1.1539  1.0401
14528TIP3    H265076   0.064   3.362   3.561  0.9197  1.2568 -1.4010
14529TIP3   OH265077   6.716   2.729   1.089 -0.5928  0.4999  0.0161
14529TIP3    H165078   6.791   2.699   1.038 -1.2223  1.2280 -1.4199
14529TIP3    H265079   6.729   2.823   1.098 -0.8858  0.4961  0.5344
14530TIP3   OH265080   2.328   5.232  11.150 -0.1814 -0.7819 -0.0074
14530TIP3    H165081   2.364   5.230  11.061 -0.6414 -0.1282 -0.2166
14530TIP3    H265082   2.233   5.232  11.138 -0.3160 -3.0083  0.5483
14531TIP3   OH265083   4.393   3.445   6.012  0.0430  0.2813  0.5178
14531TIP3    H165084   4.386   3.518   6.074  0.8594  1.4185 -0.6609
14531TIP3    H265085   4.487   3.429   6.003 -0.1320 -1.2571  1.0964
14532TIP3   OH265086   6.039   2.905   2.503 -0.2801 -0.5701 -0.4705
14532TIP3    H165087   6.048   2.862   2.418  0.7155 -0.6647 -0.3371
14532TIP3    H265088   6.010   2.835   2.563  0.4425 -0.8573 -0.4420
14533TIP3   OH265089   2.987   2.741  14.775  0.3906  0.3082  0.5296
14533TIP3    H165090   2.952   2.688  14.847  0.0936 -5.0723 -2.9734
14533TIP3    H265091   2.909   2.776  14.731  0.1150 -1.3177 -0.3422
14534TIP3   OH265092   3.811   0.879  13.961  0.7865 -0.5268 -0.0716
14534TIP3    H165093   3.812   0.905  14.053  1.8636 -3.1067  0.7289
14534TIP3    H265094   3.723   0.845  13.946 -0.1941  2.0658 -0.7609
14535TIP3   OH265095   6.796   3.622   3.965  0.5268 -0.0836 -0.7918
14535TIP3    H165096   6.713   3.577   3.952 -0.0568  0.8530 -0.4396
14535TIP3    H265097   6.863   3.560   3.935 -0.2957 -0.8454 -1.0773
14536TIP3   OH265098   1.190   1.321  11.513 -0.3043  0.6333  0.0393
14536TIP3    H165099   1.259   1.348  11.574 -1.8370  0.4596  1.9320
14536TIP3    H265100   1.188   1.226  11.519  0.6090  0.4782 -1.5680
14537TIP3   OH265101   1.649   3.150   4.028 -0.6790  0.0588 -0.5345
14537TIP3    H165102   1.663   3.221   3.965  0.3416 -0.1847 -0.5970
14537TIP3    H265103   1.661   3.191   4.113 -0.3390  0.0225 -0.5626
14538TIP3   OH265104   0.410   0.414  14.519 -0.2316 -0.1254 -0.2549
14538TIP3    H165105   0.464   0.380  14.448  0.6783 -0.4863  0.5809
14538TIP3    H265106   0.473   0.443  14.585 -0.9035  3.3730 -0.9639
14539TIP3   OH265107   4.831   2.786   0.323 -0.4818  0.2578 -0.3545
14539TIP3    H165108   4.909   2.837   0.341 -0.2937  0.3309 -1.3378
14539TIP3    H265109   4.771   2.809   0.394  0.0684  0.8591 -0.0721
14540TIP3   OH265110   1.656   0.419  14.095 -0.2952  0.1929  0.2297
14540TIP3    H165111   1.691   0.446  14.180 -0.0123 -0.1424  0.2236
14540TIP3    H265112   1.724   0.445  14.032 -0.6270  0.6955  0.0681
14541TIP3   OH265113   6.006   0.268  17.105 -0.4383 -0.7971 -0.2267
14541TIP3    H165114   6.063   0.305  17.172 -0.8883 -3.7488  1.9448
14541TIP3    H265115   5.942   0.338  17.086  0.3450  0.4792  1.6079
14542TIP3   OH265116   5.785   3.588  11.402 -0.2160  0.2804  0.7256
14542TIP3    H165117   5.862   3.533  11.419 -0.1225  0.8415  2.2981
14542TIP3    H265118   5.785   3.599  11.307  1.2361 -0.3281  0.6157
14543TIP3   OH265119   6.160   0.605   5.902  0.4519 -0.1839 -1.1733
14543TIP3    H165120   6.075   0.602   5.947  0.3040 -0.9757 -1.4969
14543TIP3    H265121   6.220   0.560   5.962  0.7144  0.6149 -0.8189
14544TIP3   OH265122   4.961   5.267  10.591 -0.1223 -0.4047 -0.3368
14544TIP3    H165123   4.943   5.359  10.614  1.0655 -0.2448 -0.0154
14544TIP3    H265124   5.055   5.257  10.602 -0.1856 -1.5767 -0.7322
14545TIP3   OH265125   3.048   0.088   0.241 -0.3701  0.2123 -0.3045
14545TIP3    H165126   3.018   0.136   0.164  1.0455  1.3318 -0.2125
14545TIP3    H265127   3.143   0.080   0.229 -0.5112 -2.3324 -0.1410
14546TIP3   OH265128   6.711   1.903  16.181  0.3865  0.6768  0.1562
14546TIP3    H165129   6.717   1.822  16.232 -1.9788  0.6648  0.5257
14546TIP3    H265130   6.622   1.902  16.146  0.0050  3.5120  0.8592
14547TIP3   OH265131   2.487   0.251   1.857 -0.1857 -1.2829  0.2425
14547TIP3    H165132   2.413   0.264   1.915 -0.2384  0.8534 -0.2065
14547TIP3    H265133   2.552   0.206   1.910 -0.7001 -0.4940  1.5922
14548TIP3   OH265134   0.326   4.444   1.972  0.0545  0.7643  0.1499
14548TIP3    H165135   0.386   4.372   1.956 -2.3261 -1.5110  0.7982
14548TIP3    H265136   0.274   4.450   1.892 -0.1611  1.3702  0.3328
14549TIP3   OH265137   3.623   4.930   0.123  0.2081 -0.3795  0.0957
14549TIP3    H165138   3.653   4.874   0.194  0.5784 -0.9964 -0.5281
14549TIP3    H265139   3.595   4.868   0.055  1.5645  0.1674 -1.0051
14550TIP3   OH265140   1.524   6.326   3.414  0.2571  0.3585  0.4960
14550TIP3    H165141   1.594   6.389   3.425  1.5560 -0.9868  0.2640
14550TIP3    H265142   1.539   6.288   3.327 -0.4389 -0.3325  0.6619
14551TIP3   OH265143   6.601   3.957   4.126  0.0356 -1.2742 -0.3094
14551TIP3    H165144   6.640   3.873   4.102  0.0254 -0.7224 -2.4351
14551TIP3    H265145   6.580   3.999   4.043 -1.0283  0.3568  0.7157
14552TIP3   OH265146   1.264   4.777   2.167 -0.0132  0.5999 -0.2588
14552TIP3    H165147   1.221   4.760   2.082 -0.8999 -0.5160  0.3768
14552TIP3    H265148   1.213   4.848   2.205  0.1582  0.8534 -0.4963
14553TIP3   OH265149   6.622   6.732  13.866  0.3774 -0.3817  0.2093
14553TIP3    H165150   6.576   6.708  13.946  1.2712 -0.7316  0.6328
14553TIP3    H265151   6.650   6.648  13.829  2.7864 -0.1003  1.2481
14554TIP3   OH265152   1.517   3.396  13.975  0.8280  0.2061  1.0504
14554TIP3    H165153   1.558   3.319  14.016  0.2137  0.2130  1.6920
14554TIP3    H265154   1.591   3.452  13.952  1.5004 -1.6138 -1.6876
14555TIP3   OH265155   3.083   3.724   5.179 -0.3981 -0.3626  0.2965
14555TIP3    H165156   3.103   3.698   5.269 -0.7570 -1.1176  0.1680
14555TIP3    H265157   3.095   3.819   5.178  0.0842 -0.4098  1.0144
14556TIP3   OH265158   3.977   1.778  12.529 -0.2412 -0.6784  0.3440
14556TIP3    H165159   3.927   1.733  12.598 -0.9924  2.2992  1.9118
14556TIP3    H265160   3.920   1.773  12.452 -1.0825 -0.9579  0.9605
14557TIP3   OH265161   4.037   5.789   1.682  0.0647 -0.0302  0.0554
14557TIP3    H165162   3.983   5.867   1.697  1.0483  0.5567  0.6066
14557TIP3    H265163   3.992   5.744   1.611 -0.3071  1.2468 -0.5608
14558TIP3   OH265164   0.989   2.622  11.807  0.5299  0.6071  0.5173
14558TIP3    H165165   1.028   2.656  11.888 -0.9709  2.6676  0.4376
14558TIP3    H265166   0.930   2.691  11.777 -2.0962 -1.7280 -0.1587
14559TIP3   OH265167   6.325   5.380   4.588 -0.0150 -0.0045  0.6225
14559TIP3    H165168   6.319   5.286   4.568  1.1300  0.0267  0.0444
14559TIP3    H265169   6.406   5.408   4.546  0.1841  1.0300  1.6618
14560TIP3   OH265170   3.122   4.308  10.664 -0.0214  0.1788 -0.8058
14560TIP3    H165171   3.158   4.317  10.576  0.0786 -1.8294 -1.0172
14560TIP3    H265172   3.199   4.293  10.720  0.1324  3.2632  0.0230
14561TIP3   OH265173   2.888   0.055   6.112 -0.1594 -0.1686 -0.2866
14561TIP3    H165174   2.967   0.050   6.057  1.0774 -0.4842  1.4094
14561TIP3    H265175   2.853   0.142   6.096  2.9587  1.7261  1.8824
14562TIP3   OH265176   2.236   4.793   1.877  0.7645 -0.1773  0.4565
14562TIP3    H165177   2.229   4.776   1.783  2.5245 -0.1790  0.3011
14562TIP3    H265178   2.167   4.739   1.916  2.1934 -2.9370 -0.5414
14563TIP3   OH265179   1.069   6.095  12.618  0.0529 -0.6129  0.3296
14563TIP3    H165180   1.005   6.151  12.574 -0.6627 -0.5024  1.4765
14563TIP3    H265181   1.026   6.010  12.624  0.3900 -0.7882  0.2663
14564TIP3   OH265182   1.862   2.935  11.393  0.1025 -0.0234  0.0374
14564TIP3    H165183   1.902   2.919  11.479  0.6706 -1.2665 -0.4338
14564TIP3    H265184   1.936   2.939  11.332 -0.3778 -0.9387 -0.6365
14565TIP3   OH265185   2.804   1.415   2.944 -0.0937  0.6140  0.1385
14565TIP3    H165186   2.786   1.338   2.889 -0.3929  0.8648 -0.1168
14565TIP3    H265187   2.866   1.467   2.893 -0.5129  0.9379 -0.0450
14566TIP3   OH265188   2.899   1.965   1.664 -0.4527 -0.6677 -0.0637
14566TIP3    H165189   2.962   1.903   1.629 -2.3078 -1.4886 -2.1315
14566TIP3    H265190   2.886   2.029   1.594 -1.4832 -0.1652  0.5579
14567TIP3   OH265191   2.924   5.194  12.806  0.1290  0.6044 -0.2124
14567TIP3    H165192   3.016   5.214  12.825 -0.2499  0.6036  1.8052
14567TIP3    H265193   2.905   5.117  12.859 -1.0844  0.6746 -0.5213
14568TIP3   OH265194   2.581   0.511  11.530 -0.4782  0.3402  0.4229
14568TIP3    H165195   2.597   0.417  11.530 -0.0657  0.4095  0.4302
14568TIP3    H265196   2.491   0.520  11.562 -0.5628 -0.0581  0.2952
14569TIP3   OH265197   3.944   0.313  13.920 -0.2704  0.4896  0.5870
14569TIP3    H165198   3.882   0.276  13.857  1.2941  0.2589 -0.8790
14569TIP3    H265199   3.942   0.407  13.903  1.7200  0.2547 -1.4098
14570TIP3   OH265200   1.711   6.273   0.556 -0.2900 -0.4135  0.2354
14570TIP3    H165201   1.732   6.359   0.519 -0.4699 -1.2054 -1.8284
14570TIP3    H265202   1.616   6.269   0.555 -0.3576 -0.0086  1.9445
14571TIP3   OH265203   0.632   0.911   4.224 -0.2107  0.7003 -0.5542
14571TIP3    H165204   0.714   0.926   4.177 -0.0659 -1.3560 -1.0431
14571TIP3    H265205   0.579   0.988   4.204  2.2704  3.1790  1.4743
14572TIP3   OH265206   3.813   1.844  15.584 -0.1229 -0.2180  0.3758
14572TIP3    H165207   3.866   1.825  15.507 -1.4046 -0.9580 -0.3506
14572TIP3    H265208   3.843   1.931  15.613 -1.0768  1.0873 -2.2574
14573TIP3   OH265209   1.921   1.672  16.610  0.1210  0.1866  0.1053
14573TIP3    H165210   1.969   1.721  16.677  0.0215 -1.2610  1.2919
14573TIP3    H265211   1.986   1.651  16.544  1.4836 -2.5045  2.1020
14574TIP3   OH265212   3.088   1.577  11.531  0.0470  0.7661 -0.2207
14574TIP3    H165213   3.121   1.650  11.478  0.8924  1.3695  1.0895
14574TIP3    H265214   3.020   1.616  11.585 -0.3324  0.3093 -0.3661
14575TIP3   OH265215   6.444   2.253   5.412 -0.2571  0.2172 -0.0474
14575TIP3    H165216   6.404   2.204   5.341 -0.3822  1.2359 -0.7054
14575TIP3    H265217   6.378   2.317   5.438  0.4581  1.0818 -0.2894
14576TIP3   OH265218   3.121   5.295   0.648  0.0012  0.3680  0.1205
14576TIP3    H165219   3.145   5.386   0.631  0.1011 -0.0575 -2.4205
14576TIP3    H265220   3.037   5.300   0.694 -0.5624  1.7452 -1.0073
14577TIP3   OH265221   6.812   5.996   3.820 -0.0470 -0.1619 -0.1195
14577TIP3    H165222   6.834   6.044   3.740 -1.0402 -1.3479 -1.1379
14577TIP3    H265223   6.728   6.032   3.847 -0.3671 -0.6998 -0.3878
14578TIP3   OH265224   3.072   4.872  13.683 -0.5761  0.1905 -0.3612
14578TIP3    H165225   3.097   4.893  13.773  3.0264  0.1774 -1.2118
14578TIP3    H265226   3.081   4.776  13.678 -0.9228  0.1761 -0.6828
14579TIP3   OH265227   6.258   6.321  16.582  0.2568 -0.5459 -0.4886
14579TIP3    H165228   6.341   6.352  16.619 -0.4831  1.0511 -0.0775
14579TIP3    H265229   6.273   6.319  16.487  0.5037  0.6213 -0.4846
14580TIP3   OH265230   4.538   4.511   0.694  0.0181  0.5452 -0.1514
14580TIP3    H165231   4.494   4.435   0.733  1.3343  0.0200  0.3442
14580TIP3    H265232   4.604   4.474   0.636 -0.7438  1.3294 -1.5725
14581TIP3   OH265233   6.144   5.038  14.247 -0.2304 -0.0693  0.7101
14581TIP3    H165234   6.172   5.006  14.162 -0.0958  1.0678  0.3143
14581TIP3    H265235   6.077   4.976  14.275 -1.2149  0.2416 -0.8128
14582TIP3   OH265236   5.118   5.264  16.462  0.0043 -0.2767  0.3490
14582TIP3    H165237   5.136   5.354  16.489  1.6183 -0.7814  1.0502
14582TIP3    H265238   5.054   5.232  16.526  0.2415  0.0345  0.7474
14583TIP3   OH265239   2.764   0.778   0.097 -0.0437 -0.6044 -0.5858
14583TIP3    H165240   2.751   0.702   0.154 -1.3572 -0.5186 -0.7470
14583TIP3    H265241   2.789   0.848   0.158  0.1451 -0.9021 -0.3141
14584TIP3   OH265242   2.269   4.801   0.365  0.3642 -0.2171  0.1865
14584TIP3    H165243   2.364   4.798   0.352  0.2566  0.1681 -0.7443
14584TIP3    H265244   2.235   4.844   0.286 -0.7266 -1.7446 -0.2293
14585TIP3   OH265245   1.108   3.320   3.024  0.5231 -0.4255  0.0060
14585TIP3    H165246   1.074   3.257   3.088  0.3198  0.8068  1.1519
14585TIP3    H265247   1.179   3.273   2.980  0.1850 -1.5507  0.6049
14586TIP3   OH265248   4.797   5.471  13.676  0.1580  0.1115  0.5750
14586TIP3    H165249   4.857   5.423  13.733 -0.4926 -0.6986  0.5862
14586TIP3    H265250   4.716   5.421  13.679 -0.1410  0.5225 -0.4170
14587TIP3   OH265251   1.139   3.689   1.958  0.1427 -0.0118 -0.0725
14587TIP3    H165252   1.219   3.693   2.011  1.6720  0.2397 -2.2734
14587TIP3    H265253   1.075   3.742   2.006  2.1912  2.2242  0.3357
14588TIP3   OH265254   3.791   4.543   1.625 -0.2098  0.2407 -0.1997
14588TIP3    H165255   3.803   4.566   1.717 -3.8446  0.7659  0.2734
14588TIP3    H265256   3.796   4.447   1.623  0.5110  0.2552  0.3908
14589TIP3   OH265257   5.196   2.006   0.128  0.6001 -0.1063 -0.1380
14589TIP3    H165258   5.113   2.046   0.103  1.2338  1.4112  0.0788
14589TIP3    H265259   5.178   1.912   0.130 -0.9837  0.1650 -0.5277
14590TIP3   OH265260   2.017   2.113  13.971  0.2158  0.3297  0.1780
14590TIP3    H165261   1.978   2.196  13.944  2.0059  0.4006 -2.6022
14590TIP3    H265262   2.097   2.138  14.017  0.7243  0.1748 -0.6058
14591TIP3   OH265263   2.399   3.916   3.663 -0.0273  0.4340  0.1326
14591TIP3    H165264   2.395   3.982   3.732 -0.5434  1.3425 -0.7440
14591TIP3    H265265   2.456   3.955   3.596 -0.0218 -0.1761 -0.2277
14592TIP3   OH265266   3.136   5.923  15.374 -0.8380 -0.7065  0.3047
14592TIP3    H165267   3.048   5.944  15.403 -0.1902  1.0380  1.1115
14592TIP3    H265268   3.127   5.839  15.328 -2.9781 -0.3059 -0.0787
14593TIP3   OH265269   5.239   1.352  12.130  0.1497 -0.1306  0.2654
14593TIP3    H165270   5.267   1.283  12.069  3.1668  0.6348  0.6155
14593TIP3    H265271   5.185   1.410  12.077  0.6840 -0.7807 -1.0439
14594TIP3   OH265272   2.617   2.212  12.752 -0.2998  0.2400  0.2151
14594TIP3    H165273   2.562   2.259  12.689 -0.3420  0.5743  0.4973
14594TIP3    H265274   2.692   2.270  12.765  0.0224 -0.1235 -0.0172
14595TIP3   OH265275   2.219   5.117   6.641 -0.0391 -0.2315 -0.2698
14595TIP3    H165276   2.212   5.154   6.553  1.5170 -0.3984 -0.4792
14595TIP3    H265277   2.196   5.189   6.700  0.5582  0.3666 -0.7608
14596TIP3   OH265278   2.117   2.236   2.971  0.0353 -0.0943  0.3373
14596TIP3    H165279   2.065   2.163   3.002  1.1214 -0.4308  1.4263
14596TIP3    H265280   2.062   2.313   2.986 -0.8196 -0.6022 -0.1382
14597TIP3   OH265281   1.219   0.609  10.561  0.7648 -0.0719 -0.1201
14597TIP3    H165282   1.205   0.695  10.601  2.1945 -0.8894  2.3988
14597TIP3    H265283   1.131   0.574  10.549  0.2080  1.0278  0.5177
14598TIP3   OH265284   4.058   6.407  11.957 -0.2675  0.4626 -0.0755
14598TIP3    H165285   3.988   6.355  11.997  0.2134 -0.3516 -0.2535
14598TIP3    H265286   4.027   6.425  11.869 -0.3309  0.2647 -0.0934
14599TIP3   OH265287   0.404   5.832  16.356 -0.3577  0.0273 -0.1715
14599TIP3    H165288   0.476   5.861  16.301 -1.0983  0.5281 -0.8888
14599TIP3    H265289   0.365   5.758  16.308  0.7958 -1.4809  1.0888
14600TIP3   OH265290   4.494   2.828   1.542 -0.1196 -0.7778  0.4082
14600TIP3    H165291   4.511   2.902   1.599 -0.2887 -0.7943  0.4817
14600TIP3    H265292   4.577   2.781   1.537  0.4515  0.3009 -0.9412
14601TIP3   OH265293   5.189   5.486   6.106 -0.4452  0.2033 -0.1740
14601TIP3    H165294   5.170   5.484   6.199  2.2598 -0.2701  0.4447
14601TIP3    H265295   5.199   5.579   6.085  2.8607  0.2484  1.0156
14602TIP3   OH265296   1.814   0.368   5.985 -0.3780 -0.8711 -0.1907
14602TIP3    H165297   1.764   0.287   5.996 -0.0253 -1.2977 -1.5592
14602TIP3    H265298   1.748   0.433   5.958 -0.5563 -0.8243  0.3242
14603TIP3   OH265299   3.629   6.043   1.553 -0.1353  0.8207  0.6938
14603TIP3    H165300   3.681   6.000   1.485 -0.3276  1.2151  0.2962
14603TIP3    H265301   3.677   6.025   1.634 -0.7081 -0.9411  0.6775
14604TIP3   OH265302   5.111   5.742  15.586  0.7365 -0.2366  0.0291
14604TIP3    H165303   5.140   5.685  15.657  0.3726  0.3178  0.6376
14604TIP3    H265304   5.021   5.765  15.609  0.8818  0.5968 -0.1827
14605TIP3   OH265305   6.329   4.413  12.597 -0.3940  0.1440 -0.1206
14605TIP3    H165306   6.424   4.408  12.612 -0.4038 -1.5238 -0.3876
14605TIP3    H265307   6.321   4.452  12.510 -0.0941  3.0309  1.0503
14606TIP3   OH265308   5.216   6.554   0.246 -0.0805  0.3083 -0.0191
14606TIP3    H165309   5.142   6.498   0.223 -0.2339  0.2347  0.6361
14606TIP3    H265310   5.239   6.528   0.335  0.8741  0.1850 -0.2895
14607TIP3   OH265311   4.177   3.261   4.610 -0.3546 -0.5041  0.5277
14607TIP3    H165312   4.118   3.242   4.537  0.9449 -1.4765 -0.3215
14607TIP3    H265313   4.121   3.260   4.687 -1.4695 -1.3373 -0.2599
14608TIP3   OH265314   0.366   4.328   1.167  0.0127 -0.0324 -0.7479
14608TIP3    H165315   0.356   4.416   1.204 -0.5919 -0.1139 -0.6980
14608TIP3    H265316   0.276   4.300   1.149  0.2681 -0.2092 -1.7798
14609TIP3   OH265317   0.816   4.988   2.746  0.0387 -0.1026  0.1202
14609TIP3    H165318   0.720   4.984   2.740 -0.0006 -2.5971  1.1153
14609TIP3    H265319   0.844   5.022   2.661 -1.6591 -1.6111 -1.1165
14610TIP3   OH265320   5.944   1.639   1.516  0.2740 -0.2214 -0.4049
14610TIP3    H165321   5.957   1.732   1.500  0.4917 -0.2230 -0.2403
14610TIP3    H265322   5.935   1.631   1.611  0.6013 -0.4082 -0.3856
14611TIP3   OH265323   6.011   0.677  11.226  0.3770  0.3061 -0.3250
14611TIP3    H165324   5.976   0.701  11.140  0.6770  1.1349 -0.2254
14611TIP3    H265325   5.957   0.603  11.254 -1.8096  1.9525  0.1317
14612TIP3   OH265326   4.609   1.477   1.934 -0.0999  0.0658 -0.4189
14612TIP3    H165327   4.667   1.533   1.987  1.7053 -1.8943 -0.1863
14612TIP3    H265328   4.653   1.472   1.850  0.4438 -1.9540 -0.0507
14613TIP3   OH265329   4.978   4.420   0.202  0.1017  0.0476 -0.6356
14613TIP3    H165330   4.971   4.325   0.197 -1.2113 -0.0082  1.0900
14613TIP3    H265331   4.913   4.453   0.140 -0.1248 -0.2035 -0.5324
14614TIP3   OH265332   6.138   2.507  11.333  0.1823  0.1525  0.1855
14614TIP3    H165333   6.061   2.481  11.283 -0.2784  0.3604  0.7648
14614TIP3    H265334   6.211   2.462  11.291 -0.4326 -1.1428  0.4484
14615TIP3   OH265335   2.749   1.528   0.970  0.1330  0.4117 -0.6477
14615TIP3    H165336   2.837   1.533   0.932  1.0531  1.3972  1.4125
14615TIP3    H265337   2.718   1.618   0.969 -0.5912  0.1640 -0.7480
14616TIP3   OH265338   6.179   2.751   5.662  0.1214 -0.4422  0.1524
14616TIP3    H165339   6.248   2.763   5.728 -1.3516 -1.4337  1.9572
14616TIP3    H265340   6.180   2.832   5.612  2.3109 -0.2565  0.3670
14617TIP3   OH265341   2.687   5.266   2.405 -0.8501  0.7292 -0.4654
14617TIP3    H165342   2.700   5.171   2.404 -2.4094  0.4650  0.6436
14617TIP3    H265343   2.715   5.293   2.492 -1.9632  0.9991 -0.1683
14618TIP3   OH265344   0.707   2.274   0.457  0.1154  0.0529 -0.1497
14618TIP3    H165345   0.681   2.362   0.484  1.8545 -0.2601  3.1057
14618TIP3    H265346   0.800   2.282   0.435  0.0601 -0.8094 -0.7687
14619TIP3   OH265347   0.247   5.057   2.673 -0.6519  0.2228  0.0380
14619TIP3    H165348   0.324   5.025   2.625  0.7864  0.4040  2.0953
14619TIP3    H265349   0.257   5.152   2.671 -0.3596  0.2229  0.9665
14620TIP3   OH265350   3.604   1.381  16.486  0.7923  0.1997  0.2053
14620TIP3    H165351   3.638   1.463  16.522  2.4383 -0.2914 -0.1430
14620TIP3    H265352   3.517   1.403  16.453  1.5176  2.0326 -0.6335
14621TIP3   OH265353   4.272   6.400  10.838 -0.7054 -0.1253 -0.2328
14621TIP3    H165354   4.313   6.320  10.805 -0.7719 -0.7993  1.2331
14621TIP3    H265355   4.178   6.380  10.840 -0.7350  0.0391  0.0212
14622TIP3   OH265356   0.620   3.302   0.109 -0.4023  0.3691 -0.0513
14622TIP3    H165357   0.632   3.236   0.177  1.5501  1.7773  1.0831
14622TIP3    H265358   0.688   3.282   0.044 -2.0883 -0.8086 -1.5289
14623TIP3   OH265359   6.712   5.812   6.616 -0.0516 -0.1378  0.0731
14623TIP3    H165360   6.790   5.761   6.641  0.9102  0.5687 -1.3513
14623TIP3    H265361   6.744   5.875   6.551 -2.1564 -1.2007 -2.1760
14624TIP3   OH265362   2.548   4.462  14.993 -0.4500 -0.3578  0.0267
14624TIP3    H165363   2.501   4.388  15.030  0.7890 -0.2568  1.9382
14624TIP3    H265364   2.506   4.539  15.032  1.3308 -0.2724  1.9899
14625TIP3   OH265365   1.470   1.078  11.014 -0.1175 -0.0212  0.0493
14625TIP3    H165366   1.523   1.098  10.938  0.4761 -0.0495  0.4501
14625TIP3    H265367   1.403   1.017  10.982  0.1805 -0.0969 -0.4273
14626TIP3   OH265368   3.976   1.586  14.852  0.0728 -0.1936 -0.0143
14626TIP3    H165369   4.046   1.553  14.907  0.2018 -0.1219 -0.1350
14626TIP3    H265370   4.020   1.621  14.775  0.0676  1.5830  0.7406
14627TIP3   OH265371   4.699   2.410   1.485  0.1497  0.1144 -0.1648
14627TIP3    H165372   4.637   2.462   1.435  1.3306  1.1348 -0.6215
14627TIP3    H265373   4.655   2.392   1.568 -0.1127  2.3482  0.2448
14628TIP3   OH265374   5.405   5.904  11.488 -0.0526  0.4047  0.0784
14628TIP3    H165375   5.388   5.810  11.480 -1.9436  0.7352 -0.3860
14628TIP3    H265376   5.424   5.918  11.580 -0.2463 -0.3744  0.2420
14629TIP3   OH265377   5.626   0.834  10.476  0.1452  0.0779  0.2521
14629TIP3    H165378   5.675   0.839  10.394 -0.8822 -2.2396 -0.6040
14629TIP3    H265379   5.630   0.922  10.513  0.3367  1.2874 -2.4652
14630TIP3   OH265380   0.214   1.894  14.074 -0.1660 -0.2415 -0.2085
14630TIP3    H165381   0.305   1.900  14.045 -0.4005 -0.0068 -0.9385
14630TIP3    H265382   0.188   1.804  14.052 -0.4126  0.0056 -0.9721
14631TIP3   OH265383   5.373   1.118   6.809  0.0754 -0.2549  0.2650
14631TIP3    H165384   5.448   1.068   6.775 -0.2821 -0.2204 -0.5829
14631TIP3    H265385   5.327   1.056   6.865  1.0333 -0.1192  1.2436
14632TIP3   OH265386   1.366   6.471  17.102 -0.0919  0.3510  0.3039
14632TIP3    H165387   1.283   6.425  17.117  0.2697  0.3534  2.6569
14632TIP3    H265388   1.341   6.563  17.093 -0.2743  0.6011  2.7575
14633TIP3   OH265389   4.833   3.223   5.541  0.0643  0.1014  0.2139
14633TIP3    H165390   4.747   3.262   5.528 -0.2407 -0.8236 -0.7279
14633TIP3    H265391   4.849   3.174   5.460  1.7901  0.8373  0.0773
14634TIP3   OH265392   1.679   4.052  10.534 -0.2131 -0.2615  0.0378
14634TIP3    H165393   1.624   4.040  10.611  1.4263  1.6711  1.6261
14634TIP3    H265394   1.715   3.965  10.516 -0.6965 -0.7713  1.4117
14635TIP3   OH265395   3.937   5.830   3.747  0.1773  0.0449 -0.6306
14635TIP3    H165396   3.877   5.893   3.706  1.2133  1.9566  0.6304
14635TIP3    H265397   3.879   5.767   3.790 -1.0582  2.4389  1.4707
14636TIP3   OH265398   4.017   2.614   2.218  0.5660  0.3186 -0.1770
14636TIP3    H165399   4.016   2.587   2.126 -0.4133  1.2821 -0.4659
14636TIP3    H265400   3.963   2.548   2.262 -1.0732  1.2272 -0.7328
14637TIP3   OH265401   4.449   1.426  11.885  0.1134 -0.3226  0.5668
14637TIP3    H165402   4.508   1.366  11.931  0.5604  0.2587  0.7666
14637TIP3    H265403   4.462   1.511  11.928 -1.9592 -0.4628  1.5893
14638TIP3   OH265404   4.955   4.608   4.031  0.5018 -0.6108 -0.4702
14638TIP3    H165405   4.918   4.671   4.093  2.2222  1.1491 -1.1345
14638TIP3    H265406   5.028   4.654   3.990  1.2457 -2.7316 -1.7080
14639TIP3   OH265407   6.245   4.876  15.058  0.2948 -0.6432 -0.9932
14639TIP3    H165408   6.192   4.949  15.090 -0.9724 -2.5971  1.7737
14639TIP3    H265409   6.204   4.852  14.974 -1.1066  0.0059 -0.5248
14640TIP3   OH265410   5.463   4.878  10.411  0.2791 -0.0001 -0.4124
14640TIP3    H165411   5.520   4.918  10.477  0.2197  0.6619 -0.7544
14640TIP3    H265412   5.386   4.849  10.459  0.4823 -0.0275 -0.1026
14641TIP3   OH265413   6.833   2.567   6.712 -0.2095  0.0012 -0.5524
14641TIP3    H165414   6.820   2.541   6.621 -0.4959  0.5505 -0.6761
14641TIP3    H265415   6.865   2.657   6.707  0.1026 -0.0832 -0.1176
14642TIP3   OH265416   3.469   6.312  15.656  0.1921  0.1938  0.3023
14642TIP3    H165417   3.400   6.378  15.650  0.4400  0.3795 -0.6368
14642TIP3    H265418   3.427   6.231  15.629  0.0800  0.0996  0.7437
14643TIP3   OH265419   5.287   6.561   1.292  0.2785 -0.1032 -0.2233
14643TIP3    H165420   5.343   6.487   1.313  2.1918  1.4025  0.3264
14643TIP3    H265421   5.266   6.550   1.199  3.1102  0.2001 -1.0068
14644TIP3   OH265422   1.870   0.754   3.707 -0.1505 -0.3031  0.5037
14644TIP3    H165423   1.960   0.767   3.736  0.5112 -1.3098 -0.9506
14644TIP3    H265424   1.818   0.755   3.787  1.1359  0.3801  1.3563
14645TIP3   OH265425   5.457   3.359   6.633  0.1592  0.2765 -0.2748
14645TIP3    H165426   5.483   3.312   6.712  0.7219 -0.4112 -0.8480
14645TIP3    H265427   5.468   3.452   6.655 -2.0784  0.2392  1.2461
14646TIP3   OH265428   0.669   3.229   0.424  0.2544  0.0866 -0.4857
14646TIP3    H165429   0.729   3.204   0.494  0.6184  2.5244  0.1725
14646TIP3    H265430   0.717   3.295   0.373 -1.0294  0.4022 -1.3429
14647TIP3   OH265431   6.163   4.403  13.713 -0.5765  0.1532 -0.2425
14647TIP3    H165432   6.127   4.482  13.673 -0.0532  0.5444  0.0508
14647TIP3    H265433   6.172   4.341  13.640 -0.3688  0.5932 -0.5942
14648TIP3   OH265434   2.133   1.770  16.174  0.4460 -0.3758 -0.5512
14648TIP3    H165435   2.215   1.808  16.143  0.3636  0.4050  0.1832
14648TIP3    H265436   2.114   1.814  16.256 -0.5859 -0.7216 -0.5802
14649TIP3   OH265437   4.755   4.280   5.207  0.3149 -0.7052 -0.6100
14649TIP3    H165438   4.737   4.192   5.239 -1.9023 -0.2141 -0.3099
14649TIP3    H265439   4.715   4.282   5.120 -1.3825  0.5015  0.1307
14650TIP3   OH265440   2.701   6.547  14.658  0.3122 -0.5035 -0.6366
14650TIP3    H165441   2.775   6.602  14.686  0.3583  0.0610 -1.8099
14650TIP3    H265442   2.632   6.610  14.636 -1.3558 -1.0304  2.4371
14651TIP3   OH265443   5.738   5.957  15.763  0.1501  0.6244  0.3374
14651TIP3    H165444   5.763   6.000  15.681  2.3213  0.0191  0.6047
14651TIP3    H265445   5.734   6.028  15.827  0.2699  0.8656  0.0801
14652TIP3   OH265446   3.181   5.118   1.904  0.4274 -0.1020 -0.2228
14652TIP3    H165447   3.251   5.127   1.840 -0.3865  0.1429 -1.1049
14652TIP3    H265448   3.140   5.205   1.905 -0.5543 -0.5558 -0.5455
14653TIP3   OH265449   1.300   3.164   2.028  0.3051 -0.0625 -0.2430
14653TIP3    H165450   1.315   3.257   2.047  1.0404  0.3553 -2.5857
14653TIP3    H265451   1.383   3.134   1.991  0.2945 -1.8646  1.0902
14654TIP3   OH265452   0.288   3.170   5.876  0.3189  0.7088  0.2559
14654TIP3    H165453   0.275   3.081   5.910  0.7859  1.0719  1.4577
14654TIP3    H265454   0.258   3.227   5.946  0.9775  1.5007 -0.0876
14655TIP3   OH265455   2.266   1.768   2.757  0.1713 -0.1749  0.8490
14655TIP3    H165456   2.214   1.689   2.738  0.0701  0.0835 -0.0023
14655TIP3    H265457   2.216   1.839   2.718  2.6415 -0.2592 -3.0029
14656TIP3   OH265458   3.999   3.535  16.193  0.1144 -0.4226  0.7761
14656TIP3    H165459   4.006   3.625  16.225 -3.4269  0.0115  0.6627
14656TIP3    H265460   3.972   3.543  16.102 -0.8438 -1.5931  0.9337
14657TIP3   OH265461   4.306   4.257   4.624 -0.4579  0.0415 -0.7639
14657TIP3    H165462   4.367   4.323   4.590 -0.3284  0.6540  0.6209
14657TIP3    H265463   4.244   4.245   4.552  1.4184 -0.8314 -2.3496
14658TIP3   OH265464   2.902   3.843  14.903 -0.7346 -0.6284 -1.0652
14658TIP3    H165465   2.895   3.750  14.928 -0.8922 -0.8588 -1.9409
14658TIP3    H265466   2.825   3.859  14.849 -1.3237  0.3298  0.0024
14659TIP3   OH265467   4.363   5.065  10.385 -0.5416  0.1902  0.6257
14659TIP3    H165468   4.295   5.117  10.342  0.6789 -0.0785 -1.8017
14659TIP3    H265469   4.330   4.975  10.381 -1.0773  0.3204  1.6547
14660TIP3   OH265470   4.626   1.203  13.550 -0.5047  0.4443  0.1377
14660TIP3    H165471   4.650   1.160  13.632 -1.4858 -2.4714 -0.9640
14660TIP3    H265472   4.709   1.217  13.505 -0.0672  0.8342  1.0307
14661TIP3   OH265473   1.190   1.467  14.286 -0.0843  0.2684  0.4449
14661TIP3    H165474   1.262   1.404  14.277 -0.7111 -0.5158  0.7224
14661TIP3    H265475   1.120   1.417  14.328 -0.7803  1.0248  0.2165
14662TIP3   OH265476   0.889   2.072   1.900  0.1816 -0.1595  0.4000
14662TIP3    H165477   0.865   1.987   1.865 -2.7738  0.3104  1.0840
14662TIP3    H265478   0.983   2.064   1.919  0.5851 -2.3392 -1.9692
14663TIP3   OH265479   0.114   0.633   1.718  0.1000  0.5652  0.1738
14663TIP3    H165480   0.209   0.637   1.721  0.2630  0.4684 -2.6606
14663TIP3    H265481   0.091   0.650   1.627 -2.4768 -1.8751  0.2172
14664TIP3   OH265482   5.427   5.095   1.072 -0.0755 -0.5112  0.1491
14664TIP3    H165483   5.384   5.082   0.988  0.0805  1.3707 -0.2576
14664TIP3    H265484   5.519   5.108   1.051 -0.1309  0.5947  0.5339
14665TIP3   OH265485   4.790   1.662  16.619 -0.3176  0.2893  0.3265
14665TIP3    H165486   4.712   1.717  16.625 -1.1673 -0.8794  0.3214
14665TIP3    H265487   4.842   1.686  16.696  0.0473  2.1223 -0.4485
14666TIP3   OH265488   5.623   6.476  11.975  0.2150 -0.6840 -0.4093
14666TIP3    H165489   5.570   6.543  11.929 -0.3310 -1.5216 -1.0358
14666TIP3    H265490   5.559   6.411  12.003  0.8972 -1.6457 -1.0466
14667TIP3   OH265491   5.735   1.698  14.277  0.4726 -0.0058 -0.8049
14667TIP3    H165492   5.789   1.711  14.355  1.1633 -1.2404 -1.0576
14667TIP3    H265493   5.690   1.782  14.265  1.6140  0.7401 -0.0416
14668TIP3   OH265494   2.155   0.968  11.645 -0.0742 -0.0202 -0.7976
14668TIP3    H165495   2.173   1.060  11.624 -1.2931  0.6595  0.9031
14668TIP3    H265496   2.119   0.970  11.734  2.4581 -2.4255  0.4188
14669TIP3   OH265497   3.872   3.243   1.151 -0.3013 -0.0195 -0.6059
14669TIP3    H165498   3.884   3.152   1.179  0.3632  0.4002  0.5627
14669TIP3    H265499   3.885   3.294   1.231 -1.5564  1.0577 -1.0649
14670TIP3   OH265500   1.141   6.772  16.310 -0.4632 -0.2323 -0.5171
14670TIP3    H165501   1.179   6.841  16.364 -0.2891 -1.2283  0.6753
14670TIP3    H265502   1.056   6.806  16.283 -0.1486  0.6616 -0.4150
14671TIP3   OH265503   3.132   3.486  11.851 -0.0349 -0.3342 -0.4888
14671TIP3    H165504   3.085   3.552  11.800 -1.6510 -0.4973  0.6883
14671TIP3    H265505   3.064   3.422  11.874  0.5895 -0.2305  1.8975
14672TIP3   OH265506   4.767   6.769   1.644 -0.3470 -0.1307  0.6864
14672TIP3    H165507   4.770   6.729   1.557 -0.1697 -1.3063  1.2161
14672TIP3    H265508   4.745   6.697   1.703  0.3634  0.4746  1.7266
14673TIP3   OH265509   5.005   6.499   2.746  0.6743 -0.6097 -0.0069
14673TIP3    H165510   4.950   6.459   2.678  0.1033  2.0777 -1.2636
14673TIP3    H265511   5.073   6.546   2.697  1.0247  0.3293  1.3201
14674TIP3   OH265512   6.683   3.955   5.570 -0.9113 -0.7931  0.1320
14674TIP3    H165513   6.742   4.005   5.514 -1.8263  1.0384  0.6910
14674TIP3    H265514   6.728   3.872   5.585  0.2032 -0.5995 -1.7356
14675TIP3   OH265515   5.160   4.411   3.051  0.1214  0.1404 -0.3086
14675TIP3    H165516   5.146   4.316   3.053 -2.8221  0.4906  0.2594
14675TIP3    H265517   5.179   4.434   3.142 -2.8490  0.4295  0.3506
14676TIP3   OH265518   0.577   0.645  15.045 -0.3064  0.2065 -0.0286
14676TIP3    H165519   0.492   0.689  15.049  0.2551  1.3564 -0.3296
14676TIP3    H265520   0.556   0.554  15.025 -1.4378  0.6062 -0.7481
14677TIP3   OH265521   1.464   1.546  15.060  0.2715 -0.9324  0.0156
14677TIP3    H165522   1.404   1.568  15.132  0.5779 -2.6997  0.8676
14677TIP3    H265523   1.406   1.516  14.990 -0.0585  1.1942 -0.6945
14678TIP3   OH265524   1.784   3.538  11.688  0.7884 -0.1827 -0.1985
14678TIP3    H165525   1.791   3.466  11.751  0.9664  0.1316  0.1452
14678TIP3    H265526   1.779   3.617  11.742 -0.1201  0.0178 -0.5563
14679TIP3   OH265527   6.584   0.719   4.113 -0.1962  0.0891  0.4788
14679TIP3    H165528   6.514   0.660   4.085  0.0187  0.2759 -0.4997
14679TIP3    H265529   6.550   0.807   4.094  1.0224  0.1378 -1.8866
14680TIP3   OH265530   4.691   4.732   1.278 -0.0151  0.0081  0.4279
14680TIP3    H165531   4.641   4.695   1.351 -1.1662  0.2883 -0.1885
14680TIP3    H265532   4.678   4.671   1.206 -1.5423  1.2812 -0.4578
14681TIP3   OH265533   2.785   2.603   1.314 -0.3475 -0.1323 -0.0848
14681TIP3    H165534   2.856   2.623   1.253  0.5763 -0.8270  0.7198
14681TIP3    H265535   2.720   2.556   1.261 -1.3412  2.5001 -1.3737
14682TIP3   OH265536   0.973   4.983   4.036  0.0632  0.0575 -0.4720
14682TIP3    H165537   1.030   5.020   4.103  0.5656  0.5373 -1.1573
14682TIP3    H265538   0.959   4.892   4.064 -0.7813  0.5968  0.9602
14683TIP3   OH265539   6.020   4.721  16.054  0.0813 -0.5100 -0.5489
14683TIP3    H165540   6.083   4.684  15.992  1.0745  0.4617 -0.1444
14683TIP3    H265541   5.980   4.644  16.095 -0.5233 -1.1747 -2.2818
14684TIP3   OH265542   4.801   0.268   0.299  0.0684 -0.4215  0.0625
14684TIP3    H165543   4.782   0.272   0.392 -0.0548 -2.4925  0.1816
14684TIP3    H265544   4.745   0.335   0.259  2.1493  2.5260  1.6704
14685TIP3   OH265545   3.283   6.558  15.391  0.2242 -0.5534 -0.1437
14685TIP3    H165546   3.273   6.533  15.299 -0.1685 -0.4574 -0.1316
14685TIP3    H265547   3.322   6.645  15.389  0.3616 -0.6182 -0.2181
14686TIP3   OH265548   2.903   3.508   5.984 -0.0967  0.2029 -0.4146
14686TIP3    H165549   2.896   3.419   6.020  0.0014 -0.5458 -2.1281
14686TIP3    H265550   2.972   3.550   6.035  1.8831 -1.6851 -1.3890
14687TIP3   OH265551   2.342   1.778  10.854  0.4087  0.0957  0.3471
14687TIP3    H165552   2.279   1.735  10.913 -0.0024 -1.6337 -1.2476
14687TIP3    H265553   2.425   1.734  10.871  0.4337  0.0472  0.1054
14688TIP3   OH265554   4.477   5.165  13.264 -0.2107 -0.3911 -0.4339
14688TIP3    H165555   4.447   5.139  13.177  0.4779 -0.7722 -0.5628
14688TIP3    H265556   4.549   5.226  13.248  1.3031 -2.0155 -0.1803
14689TIP3   OH265557   1.677   4.282  14.431 -0.1586 -0.2564 -0.7818
14689TIP3    H165558   1.772   4.293  14.435  0.0477 -1.9045 -0.4700
14689TIP3    H265559   1.650   4.335  14.356  0.9258  0.6462 -0.5649
14690TIP3   OH265560   2.912   5.266   5.629  0.3047 -0.0272 -0.1618
14690TIP3    H165561   2.923   5.280   5.535 -0.4457 -2.5090 -0.6949
14690TIP3    H265562   3.001   5.259   5.663  0.6128  1.9438 -0.4465
14691TIP3   OH265563   5.379   4.995   2.531  0.4093  0.0392 -0.6112
14691TIP3    H165564   5.308   4.931   2.541  1.6499 -1.2001  0.7706
14691TIP3    H265565   5.364   5.034   2.445 -2.3576  0.3731 -0.0711
14692TIP3   OH265566   2.293   0.467   5.289 -0.2644 -0.1752  0.0779
14692TIP3    H165567   2.203   0.496   5.271  0.2727  0.8919 -1.0795
14692TIP3    H265568   2.332   0.456   5.203  0.9325  0.1102  0.5623
14693TIP3   OH265569   5.166   0.033   0.171  0.2161  0.0569  0.2640
14693TIP3    H165570   5.071   0.041   0.182  0.1316  1.4095 -1.1406
14693TIP3    H265571   5.202   0.067   0.253 -0.4718 -1.8448  1.4406
14694TIP3   OH265572   0.897   2.274  11.473  0.2871  0.1590 -0.0184
14694TIP3    H165573   0.915   2.257  11.381  2.9157 -0.3687  0.5123
14694TIP3    H265574   0.819   2.223  11.492  0.0772 -0.2505 -1.7795
14695TIP3   OH265575   1.805   5.651   4.997 -0.0669 -0.0074 -0.0646
14695TIP3    H165576   1.760   5.567   5.011 -0.9467  0.4836  0.1209
14695TIP3    H265577   1.879   5.649   5.059  0.5595 -1.0909 -0.8221
14696TIP3   OH265578   2.913   6.316   6.064 -0.1852 -0.3157 -0.2784
14696TIP3    H165579   2.838   6.305   6.122  0.5260 -0.7055  0.5868
14696TIP3    H265580   2.979   6.257   6.099  0.8701  0.7328 -0.4512
14697TIP3   OH265581   4.115   3.262  14.495  0.0233  0.4568 -0.0397
14697TIP3    H165582   4.174   3.306  14.435  0.6387  0.1747  0.3426
14697TIP3    H265583   4.166   3.252  14.576  0.0372 -1.2408 -0.2178
14698TIP3   OH265584   3.465   4.066   2.574  0.5417  0.1681 -0.1893
14698TIP3    H165585   3.398   4.114   2.622  0.8814  0.9274 -0.4543
14698TIP3    H265586   3.517   4.134   2.531  0.4593 -0.4796 -1.3496
14699TIP3   OH265587   3.381   5.979  13.153  0.1842 -0.2139  1.1690
14699TIP3    H165588   3.381   5.931  13.236 -1.7671 -1.9918  0.2094
14699TIP3    H265589   3.298   6.026  13.153  0.5923  0.5286  0.5937
14700TIP3   OH265590   4.819   3.253  15.370 -0.1833 -0.2474 -0.4671
14700TIP3    H165591   4.725   3.256  15.350 -0.4517  2.0416  0.7584
14700TIP3    H265592   4.829   3.180  15.431 -1.3109 -0.0863 -0.0713
14701TIP3   OH265593   5.852   2.336  11.995 -0.1248  0.3468  0.3499
14701TIP3    H165594   5.765   2.298  12.011 -0.3014  0.9990  1.0001
14701TIP3    H265595   5.864   2.329  11.900 -0.2784 -1.0398  0.4214
14702TIP3   OH265596   1.050   4.979  12.122  0.0384 -0.4253  0.1062
14702TIP3    H165597   1.021   4.892  12.149  1.1948 -1.3011 -1.3652
14702TIP3    H265598   0.969   5.023  12.093 -0.6735 -0.6850  1.6145
14703TIP3   OH265599   3.960   1.201   0.723  0.4559 -0.1112  0.2980
14703TIP3    H165600   3.894   1.214   0.655  2.7620 -1.3077 -2.3803
14703TIP3    H265601   3.984   1.109   0.716  1.1672 -0.1602  2.4616
14704TIP3   OH265602   3.661   5.277  13.986 -0.0443  0.5499  0.0295
14704TIP3    H165603   3.696   5.328  13.913  1.6556  0.8403  0.9941
14704TIP3    H265604   3.568   5.268  13.967 -0.4486  4.0402 -0.1667
14705TIP3   OH265605   4.932   5.067   1.641  0.1956  0.3664 -0.1973
14705TIP3    H165606   4.979   5.136   1.687 -0.9034  0.5458  0.6756
14705TIP3    H265607   4.885   5.112   1.571  0.1197  0.3859 -0.1332
14706TIP3   OH265608   2.453   4.675  15.520  0.5341 -0.2472  0.0733
14706TIP3    H165609   2.387   4.616  15.481 -0.0423  0.3068  0.1992
14706TIP3    H265610   2.427   4.762  15.491  0.6606  0.0751  0.9205
14707TIP3   OH265611   1.914   3.021   2.792 -0.4327  0.7290  0.7179
14707TIP3    H165612   1.880   3.069   2.867 -1.2102  1.2026  0.0761
14707TIP3    H265613   1.837   2.999   2.740 -0.1523 -1.6347  1.2148
14708TIP3   OH265614   3.546   5.758  13.974 -0.8789 -0.2899  0.2970
14708TIP3    H165615   3.474   5.697  13.958 -1.8775  0.7891  0.4883
14708TIP3    H265616   3.546   5.816  13.898  0.3924 -0.8205 -0.1350
14709TIP3   OH265617   2.076   0.876  15.324  0.0423 -0.1495 -0.2447
14709TIP3    H165618   2.061   0.788  15.359  0.5678 -0.5147 -0.9211
14709TIP3    H265619   1.998   0.894  15.272 -0.3981  0.0862  0.4913
14710TIP3   OH265620   6.491   1.757   3.044  0.7514 -0.0273  0.6855
14710TIP3    H165621   6.557   1.798   3.099 -0.2362  1.1393  1.0282
14710TIP3    H265622   6.472   1.821   2.976  0.2667 -0.5193  0.3400
14711TIP3   OH265623   3.489   2.674   4.818 -0.0504  0.6129  0.1248
14711TIP3    H165624   3.558   2.645   4.878  0.2598 -0.5291 -0.7339
14711TIP3    H265625   3.506   2.624   4.738 -0.0754  2.5401 -1.1444
14712TIP3   OH265626   2.774   5.838   2.225  0.0040  0.1912  0.2884
14712TIP3    H165627   2.803   5.840   2.134 -2.7897  0.5550 -0.6832
14712TIP3    H265628   2.838   5.783   2.269  0.5768 -1.3221 -2.2332
14713TIP3   OH265629   0.150   2.532   2.965 -0.0141 -0.3720  0.1744
14713TIP3    H165630   0.103   2.508   2.884 -1.2990 -0.1956  0.8416
14713TIP3    H265631   0.109   2.614   2.993  2.5533  1.3076 -0.6580
14714TIP3   OH265632   5.084   2.890   0.330 -0.0619 -0.5774  0.1371
14714TIP3    H165633   5.081   2.985   0.320 -3.5351 -0.5898 -0.0970
14714TIP3    H265634   5.120   2.858   0.247 -0.0068  0.4953 -0.2651
14715TIP3   OH265635   4.094   4.825   2.793 -0.8797 -0.1287 -0.0430
14715TIP3    H165636   4.004   4.802   2.820 -1.0968 -0.4811 -1.0452
14715TIP3    H265637   4.119   4.756   2.732  0.4466 -0.5575  0.9473
14716TIP3   OH265638   0.429   1.240  14.543  0.0958  0.3816 -0.2195
14716TIP3    H165639   0.395   1.323  14.578 -0.8042 -0.2970  0.5500
14716TIP3    H265640   0.351   1.193  14.514  0.4975 -0.6289  0.2942
14717TIP3   OH265641   4.367   2.479  14.727  0.4581  0.5049 -0.1284
14717TIP3    H165642   4.347   2.558  14.777 -0.2810  0.3471 -0.1524
14717TIP3    H265643   4.375   2.410  14.793  0.9079  0.5641 -0.1216
14718TIP3   OH265644   3.960   0.202  16.759  0.1815  0.2003  0.2476
14718TIP3    H165645   3.979   0.109  16.775 -2.1076 -0.0737  1.6970
14718TIP3    H265646   4.028   0.229  16.697  2.1200 -1.9048  1.3114
14719TIP3   OH265647   4.511   6.146  17.076  0.0024  0.3737 -0.2945
14719TIP3    H165648   4.588   6.128  17.129 -1.4618 -0.2949  1.7521
14719TIP3    H265649   4.504   6.241  17.075  1.6004  0.5197 -1.7340
14720TIP3   OH265650   0.521   3.594  11.507 -0.2526 -0.1206  0.2484
14720TIP3    H165651   0.557   3.559  11.588 -0.4143  0.4633  0.5781
14720TIP3    H265652   0.581   3.663  11.481  0.3924 -1.0259 -0.7257
14721TIP3   OH265653   3.700   0.191  13.297 -0.3242  0.2504  0.9146
14721TIP3    H165654   3.637   0.261  13.318 -1.3930 -0.3533 -0.1414
14721TIP3    H265655   3.651   0.110  13.314  0.1474 -0.2297  0.0509
14722TIP3   OH265656   2.284   6.068   1.114  0.3634  0.6592  0.5545
14722TIP3    H165657   2.295   5.976   1.138  1.9748  0.5262 -0.5452
14722TIP3    H265658   2.215   6.068   1.048  0.3303  0.2576  0.5892
14723TIP3   OH265659   6.447   2.488   0.106 -0.4961  0.1500 -0.2080
14723TIP3    H165660   6.373   2.491   0.166  0.5705  0.9211  1.1091
14723TIP3    H265661   6.410   2.512   0.021 -1.3936  2.7076  0.8244
14724TIP3   OH265662   0.396   1.263   1.599 -0.0570  0.2722 -0.3978
14724TIP3    H165663   0.360   1.349   1.617 -0.1954 -0.0408  0.9249
14724TIP3    H265664   0.455   1.246   1.673  0.4442 -0.5094 -0.9585
14725TIP3   OH265665   3.308   6.278   3.255  0.0463  0.1232  0.0238
14725TIP3    H165666   3.330   6.195   3.212 -0.7936  0.0401 -0.2796
14725TIP3    H265667   3.369   6.285   3.328 -0.1569 -0.9919  0.3241
14726TIP3   OH265668   3.434   5.227  15.936 -0.2428  0.0653  0.0392
14726TIP3    H165669   3.432   5.254  16.028 -0.4288 -1.6299  0.5589
14726TIP3    H265670   3.415   5.307  15.887 -3.8131  0.3507  1.5902
14727TIP3   OH265671   0.528   2.447   4.884 -0.0690 -0.0273  0.3449
14727TIP3    H165672   0.587   2.483   4.950  0.7494 -1.0039  0.1700
14727TIP3    H265673   0.474   2.522   4.857  2.4828  1.4664 -1.0170
14728TIP3   OH265674   5.534   3.579  16.846  0.0232 -0.0630  0.5981
14728TIP3    H165675   5.561   3.550  16.758  0.7230 -1.0896  1.1242
14728TIP3    H265676   5.593   3.651  16.867 -1.0901  1.1544 -0.3372
14729TIP3   OH265677   4.109   2.590  15.482  0.4023 -0.1788 -0.3142
14729TIP3    H165678   4.030   2.536  15.494  1.0512 -1.0039  0.3707
14729TIP3    H265679   4.119   2.635  15.566  0.9842 -0.5311 -0.1914
14730TIP3   OH265680   3.053   3.987  12.758 -0.3335  0.1252  0.0153
14730TIP3    H165681   3.014   3.907  12.795 -0.4931 -1.4298 -3.1741
14730TIP3    H265682   3.144   3.985  12.788 -0.5924 -0.6685  0.8257
14731TIP3   OH265683   1.404   6.412  11.010  0.1969  0.3282  0.0292
14731TIP3    H165684   1.346   6.351  10.965  0.1704 -1.3590  2.1642
14731TIP3    H265685   1.489   6.399  10.968 -0.0802 -0.2895 -0.3508
14732TIP3   OH265686   5.101   5.759  11.752 -0.3572 -0.2656  0.0709
14732TIP3    H165687   5.070   5.842  11.715  1.2777  0.5361  0.3894
14732TIP3    H265688   5.059   5.755  11.838 -0.7565  0.0408 -0.1054
14733TIP3   OH265689   4.640   0.289   0.050  0.2375 -0.4025  0.3717
14733TIP3    H165690   4.646   0.363  -0.011 -1.8452 -0.2717  0.2349
14733TIP3    H265691   4.659   0.212  -0.003 -0.4149 -0.1874 -0.1948
14734TIP3   OH265692   0.300   1.713   2.248  0.6205  0.4226 -0.5369
14734TIP3    H165693   0.365   1.666   2.302 -0.2430 -0.4773 -0.2372
14734TIP3    H265694   0.345   1.792   2.219  0.7803  1.6266  2.5411
14735TIP3   OH265695   3.663   3.909   3.082 -0.0727  0.4437 -0.0127
14735TIP3    H165696   3.582   3.946   3.049  0.8096  1.9920 -0.5513
14735TIP3    H265697   3.677   3.951   3.167 -0.1696 -0.3161  0.3857
14736TIP3   OH265698   0.739   3.225   1.331  0.3836 -0.7624 -0.2864
14736TIP3    H165699   0.689   3.307   1.340 -0.8782 -1.5497  0.1539
14736TIP3    H265700   0.820   3.241   1.380  0.2459  0.2921 -0.3726
14737TIP3   OH265701   1.051   5.491   5.489  0.0466 -0.0220  0.0117
14737TIP3    H165702   1.102   5.465   5.566 -1.7574 -1.7387  0.6877
14737TIP3    H265703   1.115   5.489   5.417  0.6593 -3.9168  0.4829
14738TIP3   OH265704   4.138   5.847   3.534 -0.1192  0.0074 -0.6207
14738TIP3    H165705   4.055   5.856   3.580  0.4198  1.1637  0.1645
14738TIP3    H265706   4.166   5.757   3.552 -1.2044 -0.4080 -0.9285
14739TIP3   OH265707   2.944   0.464  13.630 -0.1221 -0.1738 -0.2282
14739TIP3    H165708   2.906   0.400  13.690  2.0414  1.2357  2.9238
14739TIP3    H265709   3.038   0.445  13.631  0.2010  1.1087 -1.7306
14740TIP3   OH265710   5.182   1.748   0.718  0.0065 -0.0012 -0.4109
14740TIP3    H165711   5.122   1.782   0.784 -0.0902  0.0685 -0.5350
14740TIP3    H265712   5.169   1.653   0.721  0.5991 -0.0627  0.2445
14741TIP3   OH265713   2.826   3.058   1.605  0.0148 -0.2438 -0.3538
14741TIP3    H165714   2.810   3.096   1.519  0.5730 -1.0062 -0.8127
14741TIP3    H265715   2.906   3.101   1.637 -1.2045  1.4096  0.6383
14742TIP3   OH265716   5.665   3.143   3.405  0.1986  0.0608 -0.7077
14742TIP3    H165717   5.602   3.141   3.477  2.5913  0.3482  1.5557
14742TIP3    H265718   5.627   3.203   3.341 -1.0630  1.5589  1.3280
14743TIP3   OH265719   1.631   0.896  16.133 -0.2957 -0.0047  0.5030
14743TIP3    H165720   1.577   0.975  16.129 -1.1183 -0.5811 -0.1248
14743TIP3    H265721   1.701   0.918  16.195  0.8182  1.9986 -1.3537
14744TIP3   OH265722   1.431   6.123  16.060  0.2341 -0.9076 -0.8612
14744TIP3    H165723   1.431   6.191  15.993  2.5692 -0.4797 -0.5075
14744TIP3    H265724   1.457   6.168  16.141 -0.1161 -1.8681 -0.1928
14745TIP3   OH265725   3.986   3.183  15.989  0.6264 -0.9865  0.3376
14745TIP3    H165726   3.964   3.219  16.075 -0.4758  0.2053 -0.4055
14745TIP3    H265727   4.055   3.241  15.956 -1.3999  0.7977 -1.0153
14746TIP3   OH265728   3.003   0.897   2.156  0.3098 -0.0498 -0.1910
14746TIP3    H165729   3.028   0.900   2.064  0.3710  0.3858 -0.1626
14746TIP3    H265730   2.963   0.982   2.173 -0.9041 -0.6197 -0.1442
14747TIP3   OH265731   2.245   4.195   2.900 -0.2400  0.0958  0.2079
14747TIP3    H165732   2.338   4.195   2.876  0.0946  0.7903  1.4082
14747TIP3    H265733   2.205   4.258   2.840 -0.0981 -0.7801 -0.8332
14748TIP3   OH265734   4.934   4.619  14.551 -0.0815  0.7884 -0.1221
14748TIP3    H165735   4.900   4.530  14.542  2.5928 -1.0078  4.2322
14748TIP3    H265736   4.863   4.668  14.591 -0.8808  0.0790 -0.6305
14749TIP3   OH265737   1.711   5.015  12.784  0.3715 -0.5842  0.0045
14749TIP3    H165738   1.786   4.956  12.787  1.4395  0.8037  1.4611
14749TIP3    H265739   1.719   5.070  12.861 -1.0775  0.9151 -0.8386
14750TIP3   OH265740   3.592   2.019  14.301  0.0862  0.5583  0.5692
14750TIP3    H165741   3.514   2.042  14.251  1.0074  2.3195 -0.1399
14750TIP3    H265742   3.588   1.924  14.309 -1.5646  0.5108 -0.3614
14751TIP3   OH265743   5.310   2.749  12.979 -0.2268  0.1052 -0.1679
14751TIP3    H165744   5.357   2.816  13.028 -1.1061  0.7236 -0.1561
14751TIP3    H265745   5.329   2.667  13.026  0.5615  0.3859  0.0217
14752TIP3   OH265746   0.518   1.870   5.590 -0.2879  0.1547  0.1323
14752TIP3    H165747   0.555   1.786   5.618 -0.2861  0.5450  1.3812
14752TIP3    H265748   0.544   1.879   5.498  0.8443 -0.6020  0.3549
14753TIP3   OH265749   6.829   3.327   2.856  0.4742 -0.6641  0.2223
14753TIP3    H165750   6.838   3.257   2.921  1.0409 -1.1864 -0.3957
14753TIP3    H265751   6.906   3.317   2.800  1.1575  1.1795  0.7930
14754TIP3   OH265752   6.343   4.842  15.331  0.1763 -1.0246 -0.2697
14754TIP3    H165753   6.267   4.874  15.380 -0.4719 -1.0301 -1.2620
14754TIP3    H265754   6.314   4.838  15.240  1.9601  0.9356 -1.0255
14755TIP3   OH265755   4.859   4.638   2.843  0.3476 -0.3089  0.3893
14755TIP3    H165756   4.837   4.728   2.821  0.7332  0.0198  1.3096
14755TIP3    H265757   4.900   4.603   2.764 -0.6960 -0.0019 -0.3192
14756TIP3   OH265758   0.340   0.518  15.952  0.1357  0.8067  0.4794
14756TIP3    H165759   0.264   0.476  15.910  0.2181 -0.0935  1.1952
14756TIP3    H265760   0.415   0.481  15.906  0.2612 -0.7590  1.8625
14757TIP3   OH265761   2.069   3.574  11.964  0.1269  0.2773 -0.1285
14757TIP3    H165762   2.098   3.643  12.023  2.9477  0.5000 -1.6365
14757TIP3    H265763   2.046   3.501  12.022  0.6043  1.2396  1.3053
14758TIP3   OH265764   4.805   5.074  12.009  0.1938 -0.6590  0.1531
14758TIP3    H165765   4.794   5.160  11.969  0.0925  0.1157  1.7867
14758TIP3    H265766   4.756   5.015  11.952  0.0060  0.4092 -0.8176
14759TIP3   OH265767   4.130   0.198   0.682  0.0176  0.3243  0.2518
14759TIP3    H165768   4.062   0.197   0.749  0.2317 -0.8348  0.4866
14759TIP3    H265769   4.109   0.122   0.626  1.3017 -0.2764  0.5474
14760TIP3   OH265770   4.166   2.558   4.466 -0.0465  0.0423 -0.8262
14760TIP3    H165771   4.135   2.556   4.557  0.8672  0.5379 -0.4796
14760TIP3    H265772   4.170   2.466   4.440 -2.7822 -0.0322 -1.2815
14761TIP3   OH265773   2.894   0.967   4.702  0.5200 -1.1590 -0.0694
14761TIP3    H165774   2.907   1.057   4.672 -0.3594 -0.8995  0.2761
14761TIP3    H265775   2.839   0.927   4.635 -3.2698  0.0472  2.0203
14762TIP3   OH265776   1.451   4.231   4.971  0.0525  0.2150 -0.4319
14762TIP3    H165777   1.412   4.297   5.030 -0.9347  0.9161 -1.8128
14762TIP3    H265778   1.474   4.158   5.029  0.3495  1.4064  1.0135
14763TIP3   OH265779   1.836   2.936  16.837 -0.1524 -0.8936 -0.0740
14763TIP3    H165780   1.920   2.897  16.858  1.4677  2.8866  1.3549
14763TIP3    H265781   1.846   2.970  16.748 -0.5945 -1.3626 -0.3108
14764TIP3   OH265782   5.296   2.600   6.093 -0.3836 -0.1400  0.8625
14764TIP3    H165783   5.355   2.525   6.086 -1.3987 -0.8959  0.1509
14764TIP3    H265784   5.235   2.577   6.163 -1.2385 -0.3856  0.0602
14765TIP3   OH265785   3.611   4.415  16.826 -0.0480  0.2521 -0.1357
14765TIP3    H165786   3.651   4.405  16.740 -1.1640  0.3459 -0.6799
14765TIP3    H265787   3.649   4.495  16.861 -0.9664  1.2449 -1.3319
14766TIP3   OH265788   4.931   3.057  15.802  0.2370 -0.0982  0.1147
14766TIP3    H165789   4.942   2.982  15.861 -0.3234  1.1719  1.9333
14766TIP3    H265790   4.874   3.024  15.732  1.1898 -1.7504  0.0768
14767TIP3   OH265791   4.389   6.112  13.162 -0.2453 -0.1605  0.9878
14767TIP3    H165792   4.425   6.153  13.240  1.8157  0.8968 -0.4313
14767TIP3    H265793   4.359   6.185  13.108 -0.5880 -0.8123  0.2729
14768TIP3   OH265794   4.653   5.899   1.872  0.1816  0.0886  0.2706
14768TIP3    H165795   4.622   5.955   1.801 -0.4335  0.7220  1.0261
14768TIP3    H265796   4.730   5.943   1.906  0.8202 -0.5099 -0.3581
14769TIP3   OH265797   1.719   4.736  17.021  0.3024  0.3821 -0.2335
14769TIP3    H165798   1.691   4.646  17.040  1.0927  0.4542  1.3617
14769TIP3    H265799   1.670   4.790  17.082  0.7637  0.9265 -0.3432
14770TIP3   OH265800   2.280   4.019   0.554  0.0561  0.1047 -0.4009
14770TIP3    H165801   2.260   4.071   0.476 -0.8027  0.5494  0.1026
14770TIP3    H265802   2.375   4.013   0.555  0.0715 -0.2334 -1.6906
14771TIP3   OH265803   4.956   2.814   1.321  0.1238  0.3303  0.1725
14771TIP3    H165804   5.022   2.883   1.331  0.9660 -0.3464 -0.4907
14771TIP3    H265805   5.005   2.740   1.283 -1.1746  0.0358 -0.9747
14772TIP3   OH265806   6.826   2.923  14.829  0.1347 -0.5509  0.0382
14772TIP3    H165807   6.837   2.880  14.744  1.5051  2.1072 -1.2220
14772TIP3    H265808   6.815   3.015  14.808  0.0388  0.1229  2.7673
14773TIP3   OH265809   3.375   5.777  16.824  0.2028  0.4396  0.0322
14773TIP3    H165810   3.385   5.708  16.759  1.7643  0.5772  0.1060
14773TIP3    H265811   3.461   5.787  16.863 -0.2600  1.6604  0.8101
14774TIP3   OH265812   0.678   3.002  15.413 -0.1158 -0.3299  0.2181
14774TIP3    H165813   0.767   2.973  15.433 -0.6535 -2.1059  0.2288
14774TIP3    H265814   0.622   2.930  15.444 -1.7547  1.6704  2.2856
14775TIP3   OH265815   3.674   0.407   0.291 -0.2017  0.1856 -0.2465
14775TIP3    H165816   3.690   0.385   0.199 -1.7473  0.4994 -0.6234
14775TIP3    H265817   3.601   0.351   0.317 -0.4657  0.8296  0.4654
14776TIP3   OH265818   0.998   3.948  13.933  0.3462 -1.0942  0.9941
14776TIP3    H165819   0.910   3.964  13.968  0.5707 -0.6810  1.3861
14776TIP3    H265820   0.987   3.951  13.838  0.1919  0.4568  1.0309
14777TIP3   OH265821   1.315   0.681  13.435 -0.3151  0.3062  0.0046
14777TIP3    H165822   1.357   0.755  13.392 -1.3469  1.3059  0.6753
14777TIP3    H265823   1.302   0.710  13.526 -1.8345 -0.2174 -0.0272
14778TIP3   OH265824   0.771   1.550  14.837 -0.1597 -0.1736 -1.0483
14778TIP3    H165825   0.816   1.593  14.765  1.0235  2.9152  1.2911
14778TIP3    H265826   0.679   1.571  14.824  0.1802  1.3967 -1.0674
14779TIP3   OH265827   5.695   4.648   2.496 -0.3495 -0.0812 -0.0464
14779TIP3    H165828   5.703   4.640   2.401  1.0063 -2.2258  0.1739
14779TIP3    H265829   5.623   4.589   2.519 -2.9140  2.8340  0.0640
14780TIP3   OH265830   2.085   4.943  10.371 -0.2158 -0.4131  0.4275
14780TIP3    H165831   1.995   4.972  10.386 -0.5880 -1.0008 -0.5737
14780TIP3    H265832   2.129   5.018  10.332 -0.3843 -0.2582  0.5340
14781TIP3   OH265833   6.728   0.318   1.698  0.7635 -0.2088 -0.6461
14781TIP3    H165834   6.741   0.411   1.716  0.5274 -0.2571 -0.2346
14781TIP3    H265835   6.815   0.279   1.712  0.7370 -0.1384 -0.2773
14782TIP3   OH265836   2.870   0.002   2.602 -0.6711 -0.3233  0.3846
14782TIP3    H165837   2.877  -0.035   2.514 -1.5925 -1.2017  0.6647
14782TIP3    H265838   2.777  -0.005   2.624 -0.3029 -0.9829  1.7892
14783TIP3   OH265839   2.070   0.645  13.331  0.5044  0.1367  0.4085
14783TIP3    H165840   2.059   0.705  13.257 -0.6009 -1.2583 -0.6257
14783TIP3    H265841   2.123   0.573  13.296 -0.0816 -0.5720  0.9478
14784TIP3   OH265842   1.749   1.411   2.312 -0.5197  0.0249 -0.3862
14784TIP3    H165843   1.719   1.374   2.395 -1.5581 -1.0096 -1.1845
14784TIP3    H265844   1.812   1.346   2.279  0.1406  0.5922 -0.2644
14785TIP3   OH265845   1.057   0.712   2.939 -0.2294 -0.5582  0.2211
14785TIP3    H165846   0.998   0.720   2.864  1.0359  1.0193 -0.6581
14785TIP3    H265847   1.076   0.619   2.945  1.2782 -0.5421 -2.7595
14786TIP3   OH265848   2.570   3.617   1.998 -0.2132 -0.4973 -0.2669
14786TIP3    H165849   2.626   3.563   1.943  0.4094  1.1470 -1.3359
14786TIP3    H265850   2.630   3.667   2.052 -0.4502  1.9644 -2.0603
14787TIP3   OH265851   3.008   1.565   2.807  1.0815  0.3630 -0.6164
14787TIP3    H165852   3.027   1.647   2.852 -0.8390  0.1575  0.6897
14787TIP3    H265853   2.953   1.591   2.732  0.7528  0.3140 -0.3950
14788TIP3   OH265854   3.963   0.509   2.701  0.3523  0.1360  0.4244
14788TIP3    H165855   3.885   0.553   2.668 -0.8569 -0.5089  2.2549
14788TIP3    H265856   3.971   0.540   2.792  0.3120 -2.2034  1.3098
14789TIP3   OH265857   6.059   3.062   0.266 -0.2010  0.4194  0.8086
14789TIP3    H165858   6.124   3.021   0.208 -0.6450  0.4372  0.2929
14789TIP3    H265859   6.016   3.128   0.211  0.4735  1.5702  1.6145
14790TIP3   OH265860   2.526   4.231   3.183 -0.2677  0.0970  0.2536
14790TIP3    H165861   2.473   4.262   3.109  0.7980  2.9409  0.5528
14790TIP3    H265862   2.475   4.256   3.261 -1.5467 -3.1768  0.6333
14791TIP3   OH265863   5.539   3.718   3.909  0.1950 -0.0211  0.0997
14791TIP3    H165864   5.569   3.743   3.822  0.3723 -0.8997 -0.0916
14791TIP3    H265865   5.456   3.673   3.894 -0.0407  0.2912  0.4325
14792TIP3   OH265866   2.373   2.904   0.638 -0.0242  0.0494  0.4276
14792TIP3    H165867   2.422   2.956   0.702 -1.0991  0.5043  0.9081
14792TIP3    H265868   2.395   2.943   0.554  0.0055  0.6113  0.6886
14793TIP3   OH265869   1.309   3.946   4.173  0.0174 -0.4854  0.0053
14793TIP3    H165870   1.249   3.946   4.098  0.7398 -0.4707 -0.5789
14793TIP3    H265871   1.297   4.032   4.214 -1.0357 -0.8225  0.4574
14794TIP3   OH265872   0.909   5.045   4.594 -0.6569  0.0059  0.1513
14794TIP3    H165873   0.902   5.005   4.681 -0.1238  0.3214  0.3432
14794TIP3    H265874   0.923   4.972   4.534 -1.3827 -0.2486  0.2803
14795TIP3   OH265875   4.451   0.377  13.100  0.2611  0.0402 -0.2499
14795TIP3    H165876   4.371   0.327  13.114 -0.2211  0.7205 -0.5504
14795TIP3    H265877   4.478   0.405  13.187  0.2230 -0.2560 -0.1413
14796TIP3   OH265878   3.148   2.934   4.952 -0.3128  0.0258 -0.0186
14796TIP3    H165879   3.080   2.882   4.911 -0.1368  0.0065 -0.2851
14796TIP3    H265880   3.134   2.922   5.046 -0.1254 -0.6990 -0.0764
14797TIP3   OH265881   0.032   3.760   0.794  0.4755 -0.1761  0.1760
14797TIP3    H165882   0.040   3.854   0.781  1.4850 -0.4264 -1.3143
14797TIP3    H265883  -0.035   3.732   0.732  0.0281 -0.4178  0.7611
14798TIP3   OH265884   3.713   3.170  16.116  0.5835  0.5777 -0.0741
14798TIP3    H165885   3.726   3.236  16.049 -0.0929  0.5685 -0.2247
14798TIP3    H265886   3.774   3.194  16.186 -0.3914  1.9951  0.3431
14799TIP3   OH265887   4.633   6.813  16.404  0.2087 -0.7587  0.6224
14799TIP3    H165888   4.685   6.822  16.484 -0.2328  2.6273  0.6687
14799TIP3    H265889   4.684   6.859  16.337 -1.4754  0.3385  0.0442
14800TIP3   OH265890   3.300   5.132   4.937  0.0164  0.2886 -0.0405
14800TIP3    H165891   3.381   5.101   4.896  1.3009  1.1858  1.6905
14800TIP3    H265892   3.230   5.089   4.888  1.5694 -1.5322 -0.7580
14801TIP3   OH265893   0.364   3.105   2.020  0.2462  0.1881 -0.1375
14801TIP3    H165894   0.342   3.189   2.060 -0.0825  0.1580 -0.2516
14801TIP3    H265895   0.282   3.056   2.020  0.9094 -1.1119  2.2115
14802TIP3   OH265896   0.239   1.899   5.983  0.3320  0.2696  0.0152
14802TIP3    H165897   0.155   1.895   6.028 -0.1382 -0.0087 -0.8507
14802TIP3    H265898   0.298   1.847   6.036  0.0446  0.7378  0.8060
14803TIP3   OH265899   5.419   6.558  11.773  0.2779 -0.1173  0.2527
14803TIP3    H165900   5.333   6.600  11.777 -0.8445 -2.3596  1.7660
14803TIP3    H265901   5.469   6.612  11.712 -1.9796  1.6318 -0.1927
14804TIP3   OH265902   0.805   5.945   4.829  0.1790 -0.1429 -0.2353
14804TIP3    H165903   0.875   5.917   4.887  1.6924  2.7380 -0.5128
14804TIP3    H265904   0.849   5.970   4.748 -1.6381 -1.7559 -1.8457
14805TIP3   OH265905   1.113   4.980   0.778  0.0311  0.2471  0.6153
14805TIP3    H165906   1.166   4.928   0.717  1.1607  1.2014  0.7436
14805TIP3    H265907   1.175   5.044   0.814 -1.0658  0.9349  1.3134
14806TIP3   OH265908   1.887   6.518  13.873 -0.1970 -0.2331 -0.5997
14806TIP3    H165909   1.934   6.498  13.954  0.3507  0.5587 -0.7138
14806TIP3    H265910   1.795   6.507  13.896  0.0093 -1.2810 -0.2296
14807TIP3   OH265911   2.958   4.120  11.188 -0.0002  0.4580 -0.2093
14807TIP3    H165912   2.881   4.174  11.207 -0.2325 -0.0354  0.3001
14807TIP3    H265913   2.984   4.144  11.100 -0.2632  1.2081 -0.0844
14808TIP3   OH265914   3.001   3.340  15.294 -0.3227 -0.4908  0.2955
14808TIP3    H165915   3.049   3.366  15.216 -0.4456 -0.1088  0.3484
14808TIP3    H265916   2.921   3.392  15.292 -1.3135 -1.9730 -0.4244
14809TIP3   OH265917   4.034   4.168   3.852  0.5792  0.1497  0.0289
14809TIP3    H165918   4.054   4.100   3.788  0.4862 -0.4615  0.6448
14809TIP3    H265919   4.120   4.198   3.882  0.6259  0.4888 -0.4202
14810TIP3   OH265920   6.616   0.359   0.539 -0.5648 -0.0536 -0.2176
14810TIP3    H165921   6.595   0.434   0.595 -1.4544 -1.0888  0.9114
14810TIP3    H265922   6.536   0.307   0.540  0.1769 -1.2263 -0.6255
14811TIP3   OH265923   1.967   2.738   4.753  1.0954  1.0697  0.1349
14811TIP3    H165924   1.928   2.794   4.820  0.4888  0.5245  0.2437
14811TIP3    H265925   1.968   2.792   4.674 -0.5641  0.8646 -0.0618
14812TIP3   OH265926   4.887   5.243   4.593 -0.0657 -0.4081  0.4199
14812TIP3    H165927   4.924   5.306   4.531 -1.3132  1.0098  1.0727
14812TIP3    H265928   4.804   5.281   4.620 -1.4252 -2.8826  0.0013
14813TIP3   OH265929   0.901   2.672   2.888  0.3164 -0.0827  0.1764
14813TIP3    H165930   0.903   2.577   2.877 -3.4486 -0.2172 -0.7206
14813TIP3    H265931   0.944   2.707   2.810 -0.8831 -1.1279 -1.0005
14814TIP3   OH265932   4.172   6.267  16.235 -0.4481  0.4473  0.2947
14814TIP3    H165933   4.163   6.250  16.328 -3.4859  1.2355  0.2603
14814TIP3    H265934   4.156   6.183  16.193 -2.2096  0.6710  0.4559
14815TIP3   OH265935   0.002   0.417  10.733  0.1799 -0.7114 -0.0297
14815TIP3    H165936   0.002   0.458  10.819  1.8211  0.3165 -0.4644
14815TIP3    H265937   0.069   0.465  10.684 -0.6089 -1.3474 -1.8403
14816TIP3   OH265938   2.742   6.145  13.557 -0.4005  0.0841 -0.4709
14816TIP3    H165939   2.771   6.236  13.561 -0.9319  0.4469 -3.2287
14816TIP3    H265940   2.659   6.147  13.511 -0.1247 -1.8394 -1.1754
14817TIP3   OH265941   1.452   0.859  14.923 -0.0898  0.7265  0.5553
14817TIP3    H165942   1.480   0.800  14.854 -0.8538 -0.7416  1.4539
14817TIP3    H265943   1.456   0.946  14.884  0.3501  0.0162 -1.0369
14818TIP3   OH265944   4.457   6.278   3.138 -0.3735 -0.2505 -0.4686
14818TIP3    H165945   4.393   6.328   3.189  1.3699  1.4821  0.1357
14818TIP3    H265946   4.447   6.311   3.049 -0.8355 -0.5377 -0.5249
14819TIP3   OH265947   3.137   4.565   4.458 -0.1188 -0.2419 -0.2444
14819TIP3    H165948   3.206   4.515   4.502 -0.4697 -1.1228 -0.6588
14819TIP3    H265949   3.135   4.528   4.369 -0.4275  0.4859 -0.5469
14820TIP3   OH265950   0.667   0.506  11.674 -0.1094 -0.5933 -0.2255
14820TIP3    H165951   0.630   0.429  11.631 -1.4884 -0.4505  0.6495
14820TIP3    H265952   0.609   0.522  11.748  0.2795  1.1585 -0.2590
14821TIP3   OH265953   1.353   3.370   1.483 -0.1755  0.3459  0.0616
14821TIP3    H165954   1.345   3.283   1.522 -1.7619  1.8464  3.5496
14821TIP3    H265955   1.447   3.385   1.475  0.1219 -1.9151 -1.3614
14822TIP3   OH265956   3.781   1.458   5.371 -0.2885  0.2038 -0.2034
14822TIP3    H165957   3.774   1.402   5.448  2.1243  0.2734  0.1511
14822TIP3    H265958   3.771   1.547   5.405 -0.8850  0.1573 -0.2499
14823TIP3   OH265959   1.779   3.093  14.929  0.1006  0.3909  0.8559
14823TIP3    H165960   1.766   3.089  14.835 -0.1751 -0.3044  0.9182
14823TIP3    H265961   1.861   3.140  14.940  0.7812 -0.6041  0.2161
14824TIP3   OH265962   3.714   3.805  13.655 -0.1922 -0.0445 -0.2452
14824TIP3    H165963   3.788   3.854  13.618 -1.2790  1.9152 -0.0032
14824TIP3    H265964   3.732   3.802  13.748 -1.4477  2.5903  0.1976
14825TIP3   OH265965   5.690   0.468   4.877 -0.0816 -0.1913  0.0868
14825TIP3    H165966   5.718   0.448   4.967  0.6919  0.8739  0.1016
14825TIP3    H265967   5.622   0.534   4.887  1.5959  1.6488 -0.1608
14826TIP3   OH265968   5.290   1.134   1.036  0.1081 -0.4218  0.2705
14826TIP3    H165969   5.319   1.136   1.127  2.3478 -0.2346 -0.3887
14826TIP3    H265970   5.197   1.157   1.040  0.5498  1.3310  2.3482
14827TIP3   OH265971   6.184   4.040  14.283  0.5780 -0.4873 -0.5602
14827TIP3    H165972   6.212   3.954  14.316  0.0164 -1.5106 -2.5991
14827TIP3    H265973   6.091   4.028  14.261  0.3890  0.7650 -0.5238
14828TIP3   OH265974   6.750   0.268   5.197 -0.4707 -0.1296 -0.2886
14828TIP3    H165975   6.680   0.261   5.262 -0.3560  0.8638 -0.0381
14828TIP3    H265976   6.804   0.340   5.229  1.4797 -1.7738  0.2795
14829TIP3   OH265977   5.676   2.512  12.544 -0.0528 -0.1687  0.0064
14829TIP3    H165978   5.733   2.564  12.600 -1.3191  2.0632 -0.6371
14829TIP3    H265979   5.734   2.479  12.475  0.6277  1.3829 -0.1974
14830TIP3   OH265980   6.413   3.376  14.260 -0.2538  0.0140  0.7325
14830TIP3    H165981   6.329   3.420  14.250  0.1170  1.2436  2.4972
14830TIP3    H265982   6.430   3.376  14.355  0.6512 -2.3247  0.6567
14831TIP3   OH265983   5.880   1.047  14.158 -0.0891  0.2012  0.0109
14831TIP3    H165984   5.833   1.060  14.076  0.3874  1.1472 -0.1184
14831TIP3    H265985   5.869   0.954  14.178 -0.3937  0.0167 -1.0089
14832TIP3   OH265986   4.569   0.964  13.780  0.3981 -0.1792 -0.3099
14832TIP3    H165987   4.594   0.934  13.693  0.4369 -1.3292  0.0771
14832TIP3    H265988   4.475   0.949  13.785  0.4961 -0.6934  0.0591
14833TIP3   OH265989   4.132   3.333  16.822  0.1385  0.1525  0.5542
14833TIP3    H165990   4.172   3.309  16.905 -0.3948  0.5614  0.9356
14833TIP3    H265991   4.195   3.390  16.780  0.4009 -0.0385  0.6861
14834TIP3   OH265992   6.474   1.584  12.630  0.1716 -0.0967 -1.0109
14834TIP3    H165993   6.515   1.667  12.653  0.3502 -0.5933  0.5369
14834TIP3    H265994   6.536   1.543  12.569  0.1690  0.8006 -1.6425
14835TIP3   OH265995   0.661   5.539  16.794 -0.0349 -0.0276 -0.5459
14835TIP3    H165996   0.676   5.543  16.888 -1.0146 -1.5292 -0.2957
14835TIP3    H265997   0.619   5.622  16.773  0.7346  0.5747  0.2157
14836TIP3   OH265998   4.523   4.722   4.086  0.3393 -0.2693  0.3825
14836TIP3    H165999   4.561   4.810   4.086  0.2052 -0.2024 -0.2961
14836TIP3    H266000   4.586   4.669   4.037 -0.4907 -0.1259 -0.8819
14837TIP3   OH266001   2.830   1.748   6.457  0.0098  0.2969 -0.3437
14837TIP3    H166002   2.784   1.762   6.540  0.2861  1.6196 -0.3984
14837TIP3    H266003   2.901   1.812   6.458 -0.4842  0.9282 -1.9583
14838TIP3   OH266004   5.599   2.560   1.444  0.1537 -0.3897  0.7580
14838TIP3    H166005   5.614   2.643   1.399 -0.2957 -0.2348  0.8858
14838TIP3    H266006   5.606   2.494   1.375 -1.8480 -0.0529  0.1647
14839TIP3   OH266007   5.421   4.648  17.018 -0.3540 -0.3328  0.5213
14839TIP3    H166008   5.339   4.598  17.013  0.3256 -1.5565  1.2611
14839TIP3    H266009   5.393   4.738  17.032 -1.6643 -0.2264 -2.0587
14840TIP3   OH266010   3.377   1.657   2.707  0.0404 -0.0407 -0.1043
14840TIP3    H166011   3.334   1.665   2.622 -1.5104 -3.0155  0.2515
14840TIP3    H266012   3.448   1.594   2.692 -1.8275 -2.6551  1.1456
14841TIP3   OH266013   4.669   4.476  14.717  0.0769  0.0746  0.1911
14841TIP3    H166014   4.580   4.496  14.744 -0.1729 -0.4520 -0.2250
14841TIP3    H266015   4.661   4.447  14.627  0.4657 -1.4087  0.6055
14842TIP3   OH266016   3.302   1.523  16.008 -0.3777  0.1978  0.2571
14842TIP3    H166017   3.223   1.575  16.024 -1.1132 -0.6094 -0.6443
14842TIP3    H266018   3.323   1.539  15.916 -0.3319 -0.7062  0.1054
14843TIP3   OH266019   3.224   3.394  13.590  0.0934 -0.8630 -0.4826
14843TIP3    H166020   3.309   3.366  13.623  0.8908 -0.7645 -2.3567
14843TIP3    H266021   3.172   3.410  13.669  1.9936 -0.3044  0.7181
14844TIP3   OH266022   2.937   1.187   3.584 -0.0777  0.3443 -0.1279
14844TIP3    H166023   2.901   1.144   3.661  0.8653  1.6789  1.0988
14844TIP3    H266024   3.029   1.162   3.583  0.1823  1.2684 -0.1457
14845TIP3   OH266025   5.539   3.637   0.068  0.0426 -0.0430 -0.2905
14845TIP3    H166026   5.574   3.549   0.060 -0.2365 -0.0997 -0.9337
14845TIP3    H266027   5.615   3.694   0.064  0.2799 -0.2685  0.6564
14846TIP3   OH266028   2.532   2.507   3.949  0.1104 -0.1567 -0.2189
14846TIP3    H166029   2.457   2.531   4.003  0.0853 -0.9677  0.1156
14846TIP3    H266030   2.600   2.482   4.011  0.5570  0.2496 -0.5287
14847TIP3   OH266031   0.432   2.721  16.415 -0.5750 -0.2122 -0.3218
14847TIP3    H166032   0.444   2.660  16.489 -0.8553  2.2227  1.8553
14847TIP3    H266033   0.384   2.670  16.350 -1.3910 -2.1482  1.6575
14848TIP3   OH266034   0.664   2.940   5.888 -0.2620 -0.3505  0.0124
14848TIP3    H166035   0.709   2.873   5.940  0.6931  0.4067  0.2065
14848TIP3    H266036   0.698   3.023   5.922 -0.1808  0.1838 -1.3118
14849TIP3   OH266037   2.613   3.432  16.458  0.6916 -0.7064 -0.7563
14849TIP3    H166038   2.579   3.522  16.454 -0.4710 -1.0708  0.3332
14849TIP3    H266039   2.643   3.422  16.549 -2.9310 -2.6452  0.4265
14850TIP3   OH266040   4.856   1.267  10.902  0.1976 -0.2954  0.1071
14850TIP3    H166041   4.917   1.231  10.838 -0.0669  0.2010 -0.4389
14850TIP3    H266042   4.810   1.191  10.937  1.6130 -0.7517  1.0590
14851TIP3   OH266043   0.441   5.551  13.447  0.2163 -0.0016 -0.2860
14851TIP3    H166044   0.386   5.628  13.438 -1.2370 -0.9774 -0.0039
14851TIP3    H266045   0.411   5.491  13.379  0.4610 -0.8225  0.3139
14852TIP3   OH266046   1.695   3.930   1.199 -0.0274  0.6172  0.5562
14852TIP3    H166047   1.611   3.961   1.165  0.0154 -0.3553 -0.4851
14852TIP3    H266048   1.689   3.835   1.197  1.5575  0.4967 -0.7681
14853TIP3   OH266049   3.682   4.800  14.549  0.2731  0.4527 -0.6628
14853TIP3    H166050   3.627   4.749  14.489  0.9571  0.2317 -1.1167
14853TIP3    H266051   3.765   4.752  14.552 -0.3220 -0.5578  1.8869
14854TIP3   OH266052   4.550   1.687   0.416 -0.8645 -0.1029 -0.1787
14854TIP3    H166053   4.482   1.753   0.402 -0.5327  0.0684 -1.0607
14854TIP3    H266054   4.514   1.629   0.483  0.0685  2.7297  3.0984
14855TIP3   OH266055   0.752   1.733  16.320 -0.2422  0.1164  0.1211
14855TIP3    H166056   0.742   1.641  16.343 -0.4526  0.2793  0.6989
14855TIP3    H266057   0.753   1.779  16.404 -3.0484  0.9260 -0.2005
14856TIP3   OH266058   5.954   4.786   3.552 -0.1075  0.6109  0.4449
14856TIP3    H166059   5.913   4.820   3.472 -0.3986 -0.6379  0.0451
14856TIP3    H266060   6.019   4.853   3.576  0.9231  0.4071 -1.5765
14857TIP3   OH266061   1.287   5.670  12.998  0.9596  0.0646  0.6325
14857TIP3    H166062   1.240   5.682  13.081  2.8140 -1.4467  1.9667
14857TIP3    H266063   1.223   5.625  12.942  0.0839 -0.0319  1.6587
14858TIP3   OH266064   5.364   6.708   0.087  0.1463  0.7202  0.0663
14858TIP3    H166065   5.301   6.779   0.071  0.8305  1.3630  0.1733
14858TIP3    H266066   5.316   6.645   0.141 -0.4585  1.1180  0.0027
14859TIP3   OH266067   6.700   4.523  16.433 -0.3814  1.2128 -0.3759
14859TIP3    H166068   6.624   4.531  16.491 -1.3444  0.2697 -1.4460
14859TIP3    H266069   6.665   4.485  16.352  1.0185  1.9289 -1.3721
14860TIP3   OH266070   5.329   6.777  11.100  0.0237  0.0418  0.1356
14860TIP3    H166071   5.333   6.702  11.041 -0.0399  0.4923 -0.4408
14860TIP3    H266072   5.248   6.822  11.077  0.4234  0.6964 -0.0218
14861TIP3   OH266073   6.285   4.859  12.616 -0.1797 -0.0709 -0.4958
14861TIP3    H166074   6.288   4.904  12.700 -1.2311  0.6628 -0.8330
14861TIP3    H266075   6.338   4.914  12.558  0.3334 -0.4407 -0.3852
14862TIP3   OH266076   4.394   0.102   4.135 -0.2931 -0.0600  0.3927
14862TIP3    H166077   4.351   0.064   4.212 -1.6913  0.2230 -0.2066
14862TIP3    H266078   4.332   0.087   4.064  0.8543 -0.0777 -0.6379
14863TIP3   OH266079   4.820   4.443   1.420  0.4226 -0.4106  0.1584
14863TIP3    H166080   4.773   4.388   1.358 -0.2385  1.6081 -1.2492
14863TIP3    H266081   4.753   4.476   1.479  0.2028  1.3214 -0.9652
14864TIP3   OH266082   0.855   2.854   6.287  0.2595  0.4310  0.3668
14864TIP3    H166083   0.773   2.847   6.337 -0.1843 -0.7062 -0.4738
14864TIP3    H266084   0.900   2.929   6.326 -1.8776  2.1038 -0.1502
14865TIP3   OH266085   4.370   1.179   6.147 -0.0911  0.1615  0.2625
14865TIP3    H166086   4.389   1.233   6.224 -0.4137  1.6337 -0.6438
14865TIP3    H266087   4.397   1.091   6.173  1.2160  0.8723  1.5287
14866TIP3   OH266088   2.672   4.842   6.126  0.0572 -0.3378 -0.5512
14866TIP3    H166089   2.654   4.749   6.113 -0.1612 -0.3612 -0.1214
14866TIP3    H266090   2.690   4.850   6.220 -0.1206  0.0860 -0.5491
14867TIP3   OH266091   4.569   6.794   2.327  0.3829  0.0074 -0.3386
14867TIP3    H166092   4.612   6.754   2.403 -0.8097  1.5926  1.2748
14867TIP3    H266093   4.636   6.791   2.258  1.5567 -1.4031  0.7777
14868TIP3   OH266094   2.143   4.813  15.110 -0.2817  0.0552  0.2669
14868TIP3    H166095   2.115   4.891  15.158  3.2139  0.6757  1.5544
14868TIP3    H266096   2.136   4.838  15.018  0.5722  1.8304  0.6515
14869TIP3   OH266097   2.766   4.589  13.500  0.2681  0.0591  1.0286
14869TIP3    H166098   2.789   4.555  13.413  0.0573 -0.0154  1.0010
14869TIP3    H266099   2.675   4.616  13.491 -0.3930 -1.7396  1.7480
14870TIP3   OH266100   2.237   1.633   3.223  0.3106  0.9223  0.8751
14870TIP3    H166101   2.166   1.572   3.202 -0.3076  1.3849  1.5736
14870TIP3    H266102   2.251   1.682   3.142  1.6630 -0.9349 -0.1077
14871TIP3   OH266103   5.542   0.892   3.646  0.9513 -0.2421 -0.4390
14871TIP3    H166104   5.527   0.986   3.638  0.8733 -0.1756  0.3636
14871TIP3    H266105   5.628   0.885   3.689  1.7962 -0.5746 -2.0932
14872TIP3   OH266106   0.340   4.187  14.081  0.2555  0.2604  0.4785
14872TIP3    H166107   0.425   4.222  14.109 -0.5854  1.0129  2.2205
14872TIP3    H266108   0.277   4.255  14.102 -0.7084  0.1567 -1.7708
14873TIP3   OH266109   2.434   2.099  16.614 -0.1905  0.3887 -0.1956
14873TIP3    H166110   2.389   2.150  16.681 -0.7403 -1.2712  0.7355
14873TIP3    H266111   2.525   2.096  16.643 -0.5342 -0.8199  0.8349
14874TIP3   OH266112   5.746   6.682   3.472  0.6465 -0.2130  0.6159
14874TIP3    H166113   5.712   6.640   3.393  0.5942  0.8131  0.0771
14874TIP3    H266114   5.841   6.668   3.467  0.5195 -1.4584  1.1690
14875TIP3   OH266115   1.307   5.836  12.056 -0.5010  0.0419 -0.2026
14875TIP3    H166116   1.315   5.820  12.151 -3.6238 -0.2127  0.1100
14875TIP3    H266117   1.229   5.889  12.047  0.2214  0.8108 -2.6361
14876TIP3   OH266118   6.139   2.455   2.497 -0.7341  0.3140  0.0197
14876TIP3    H166119   6.071   2.388   2.507 -0.0390 -0.5745 -0.8667
14876TIP3    H266120   6.134   2.508   2.576 -2.5460  0.3580 -0.0993
14877TIP3   OH266121   1.340   2.399   4.035  0.4199 -0.2972 -0.0540
14877TIP3    H166122   1.278   2.341   3.990  1.4216 -0.9821 -0.5654
14877TIP3    H266123   1.419   2.347   4.045  0.8975  0.5455  0.6753
14878TIP3   OH266124   2.262   6.629   4.015 -0.2176  0.0332 -0.3985
14878TIP3    H166125   2.315   6.633   4.094  0.4375 -1.5286 -0.7296
14878TIP3    H266126   2.325   6.627   3.943 -0.6876 -1.4713 -0.8145
14879TIP3   OH266127   3.365   5.466  10.666  0.0012 -0.3255  0.3326
14879TIP3    H166128   3.455   5.440  10.647 -0.1042 -1.3724  1.1746
14879TIP3    H266129   3.318   5.383  10.679 -1.0584  0.2042  0.0276
14880TIP3   OH266130   5.717   5.514   6.582  0.0965 -0.2224 -0.4849
14880TIP3    H166131   5.736   5.420   6.584 -1.4922 -0.5429  1.0034
14880TIP3    H266132   5.780   5.553   6.642  1.5175 -0.1257 -1.9520
14881TIP3   OH266133   5.763   3.859   5.351  0.0259  0.3745  0.6733
14881TIP3    H166134   5.829   3.907   5.301 -0.8826  0.5979 -0.3718
14881TIP3    H266135   5.804   3.774   5.369  0.3266  0.2003 -0.6708
14882TIP3   OH266136   1.294   6.650  11.918 -0.2360 -0.1298  0.4320
14882TIP3    H166137   1.357   6.719  11.899 -0.8623  1.2429  2.8576
14882TIP3    H266138   1.212   6.697  11.938 -2.1410 -1.8239 -2.6346
14883TIP3   OH266139   6.632   4.440  16.079 -0.2891  1.1854 -0.6581
14883TIP3    H166140   6.603   4.367  16.135  1.1398  0.9128 -0.2406
14883TIP3    H266141   6.581   4.430  15.999  1.6242 -1.8908 -1.6942
14884TIP3   OH266142   6.678   0.852   3.477  0.2867 -0.1197  0.7427
14884TIP3    H166143   6.657   0.926   3.420 -0.4178 -0.9138 -0.0614
14884TIP3    H266144   6.593   0.815   3.501  0.6192 -0.4805  1.3937
14885TIP3   OH266145   0.845   1.260   4.201  0.0535 -0.1876 -0.0112
14885TIP3    H166146   0.756   1.265   4.236 -0.1081 -1.0703 -0.2706
14885TIP3    H266147   0.878   1.175   4.232  1.3947  0.8051  1.4334
14886TIP3   OH266148   2.200   1.627  14.568 -0.3230  0.0711 -0.6464
14886TIP3    H166149   2.200   1.714  14.528 -2.3436 -0.4031 -1.8050
14886TIP3    H266150   2.159   1.639  14.653  1.6850  0.6310  0.3121
14887TIP3   OH266151   3.790   1.455  15.502 -0.1674  0.8700 -0.2602
14887TIP3    H166152   3.768   1.384  15.441  0.4078  1.4201 -1.1317
14887TIP3    H266153   3.780   1.535  15.449 -1.3977  1.5075  0.8576
14888TIP3   OH266154   2.144   3.610   4.380  0.2658 -0.0429  0.3858
14888TIP3    H166155   2.154   3.682   4.442  1.3825  0.1972 -0.0400
14888TIP3    H266156   2.172   3.647   4.296 -1.1032 -0.3933 -0.2524
14889TIP3   OH266157   4.285   5.053  12.095  0.0043  0.0969  0.2628
14889TIP3    H166158   4.204   5.019  12.133 -0.4067 -1.4919 -1.8100
14889TIP3    H266159   4.327   4.976  12.055  1.7722  1.1600 -0.0441
14890TIP3   OH266160   1.731   5.228   3.780  0.1774  0.1239 -0.0403
14890TIP3    H166161   1.760   5.153   3.728  0.4724  0.0988  0.1619
14890TIP3    H266162   1.646   5.251   3.742 -0.6090 -1.2230  0.8175
14891TIP3   OH266163   1.400   1.993  13.998 -0.6560  0.1839 -0.3117
14891TIP3    H166164   1.484   2.039  13.996  0.3206 -1.5458 -1.2654
14891TIP3    H266165   1.389   1.966  14.089  0.6454 -0.9583 -0.4709
14892TIP3   OH266166   6.815   1.699   1.218  0.1649  0.3239  0.1055
14892TIP3    H166167   6.873   1.773   1.233 -1.1039  1.2590  0.6279
14892TIP3    H266168   6.817   1.648   1.299  1.2617 -0.4006 -0.3578
14893TIP3   OH266169   0.862   4.834  11.489 -0.2241  0.1311 -0.1927
14893TIP3    H166170   0.922   4.780  11.438  0.9014  1.1636 -0.0270
14893TIP3    H266171   0.919   4.881  11.551 -1.3929 -0.0434  1.0690
14894TIP3   OH266172   4.569   5.303   2.310  0.0466  0.2286 -0.4874
14894TIP3    H166173   4.516   5.234   2.270 -0.7544  0.5735 -0.0348
14894TIP3    H266174   4.620   5.258   2.377  0.1223 -0.0576 -0.7328
14895TIP3   OH266175   1.464   3.928  14.554 -0.4802  0.0083  0.4041
14895TIP3    H166176   1.422   3.989  14.614 -0.6991  1.2291 -0.9263
14895TIP3    H266177   1.516   3.983  14.495 -0.1118 -1.1505 -0.4094
14896TIP3   OH266178   0.145   3.775  15.925  0.4437  0.4743  0.6188
14896TIP3    H166179   0.070   3.719  15.947  0.3276  0.7552  0.9482
14896TIP3    H266180   0.143   3.844  15.991  1.2767  0.2165  0.9182
14897TIP3   OH266181   3.810   3.531   0.526 -0.2236 -0.5284 -0.2484
14897TIP3    H166182   3.893   3.501   0.490 -0.0336 -0.2314 -0.0637
14897TIP3    H266183   3.748   3.462   0.505  0.1406 -0.9080 -0.0917
14898TIP3   OH266184   4.163   6.600   5.580 -0.1664  0.0026  0.4493
14898TIP3    H166185   4.088   6.658   5.595 -0.3007 -0.6534  2.9232
14898TIP3    H266186   4.219   6.614   5.657  2.5202  0.7813 -1.5320
14899TIP3   OH266187   2.352   1.686  15.593  0.0290  0.6206  0.1348
14899TIP3    H166188   2.359   1.596  15.624 -0.5234  0.3233 -0.5851
14899TIP3    H266189   2.328   1.736  15.672 -1.1921 -0.1045  0.2491
14900TIP3   OH266190   2.657   3.189  11.738  0.2289  0.1107  0.0863
14900TIP3    H166191   2.667   3.172  11.644  0.3589  0.4306  0.0402
14900TIP3    H266192   2.678   3.106  11.779  2.3373  0.4966 -0.0535
14901TIP3   OH266193   2.717   1.706   2.770 -0.4709 -0.6742 -0.5156
14901TIP3    H166194   2.768   1.772   2.817 -0.2519 -0.1841 -1.4131
14901TIP3    H266195   2.769   1.688   2.692 -1.2928 -0.7488 -1.0524
14902TIP3   OH266196   4.744   5.772  17.004 -0.7449 -0.1157 -0.0898
14902TIP3    H166197   4.783   5.776  17.091  0.6524 -2.7958 -0.5054
14902TIP3    H266198   4.810   5.808  16.946 -1.8897  2.1957 -0.0834
14903TIP3   OH266199   0.269   0.628  14.656 -0.5159 -0.8532  0.1078
14903TIP3    H166200   0.307   0.716  14.650  0.1294 -0.8411  3.0779
14903TIP3    H266201   0.304   0.582  14.580  0.9453  0.8042 -0.3034
14904TIP3   OH266202   3.294   6.138   2.323 -0.7156  0.4580  0.0295
14904TIP3    H166203   3.266   6.172   2.238  0.4704  0.2247 -0.4748
14904TIP3    H266204   3.333   6.052   2.304 -1.2134  0.0225  0.9238
14905TIP3   OH266205   3.078   4.541  15.506  0.1164  0.4530  0.0519
14905TIP3    H166206   3.151   4.564  15.564  0.3861  1.5095 -0.6659
14905TIP3    H266207   3.001   4.539  15.564  0.8705 -2.0763  1.0786
14906TIP3   OH266208   5.621   0.663  12.600 -0.2173  0.2455  0.2861
14906TIP3    H166209   5.591   0.614  12.524  0.8780 -1.0805  0.6803
14906TIP3    H266210   5.556   0.645  12.668 -1.4305  1.7661 -0.3896
14907TIP3   OH266211   1.152   3.359   2.581 -0.0393 -0.4164 -0.1606
14907TIP3    H166212   1.090   3.428   2.604  1.3338  1.2404 -1.1257
14907TIP3    H266213   1.237   3.394   2.606  0.7088 -1.7854 -0.6491
14908TIP3   OH266214   4.776   4.967   1.093 -0.0809 -0.1363 -1.0618
14908TIP3    H166215   4.687   4.934   1.109 -0.5269  1.1789 -0.7326
14908TIP3    H266216   4.831   4.889   1.098 -0.9803 -0.7313  0.6095
14909TIP3   OH266217   6.185   0.505   4.334 -0.0604 -0.1351  0.1459
14909TIP3    H166218   6.090   0.498   4.345  0.0186 -1.0207  0.2665
14909TIP3    H266219   6.212   0.421   4.297  0.3176  1.0847 -2.5896
14910TIP3   OH266220   5.727   2.557  16.770 -0.3907 -0.1140 -0.4547
14910TIP3    H166221   5.730   2.543  16.676 -1.8409 -1.0489 -0.3713
14910TIP3    H266222   5.744   2.471  16.809  1.7954  0.5346  0.2022
14911TIP3   OH266223   1.880   3.164   3.282  0.4488  0.4025  0.7667
14911TIP3    H166224   1.906   3.095   3.343 -0.0704  0.3897  0.9740
14911TIP3    H266225   1.886   3.244   3.334  1.6993  0.6103  0.3454
14912TIP3   OH266226   3.950   4.016  14.560  0.3187 -0.1185 -0.1323
14912TIP3    H166227   3.923   4.062  14.481  0.2120 -0.4128 -0.2675
14912TIP3    H266228   4.038   3.982  14.539  0.2672 -0.2448 -0.1472
14913TIP3   OH266229   0.517   1.219   5.391 -0.5967  0.4094  0.8397
14913TIP3    H166230   0.593   1.193   5.339 -2.0624 -2.0095 -0.2339
14913TIP3    H266231   0.537   1.309   5.419  1.1798  1.1121 -2.2030
14914TIP3   OH266232   4.147   3.219   2.035 -0.2001  0.1843  0.1812
14914TIP3    H166233   4.151   3.183   2.124  1.7956 -1.1256 -0.3738
14914TIP3    H266234   4.232   3.263   2.023  0.0187 -0.6098 -1.4286
14915TIP3   OH266235   5.423   4.538   0.641  0.8173 -0.1328 -0.0072
14915TIP3    H166236   5.438   4.593   0.564 -0.3578 -0.9460 -0.8561
14915TIP3    H266237   5.487   4.467   0.632  1.0433  0.0625  0.0555
14916TIP3   OH266238   1.985   0.995   1.965 -0.0327  0.4644  0.0402
14916TIP3    H166239   1.986   0.914   1.914 -0.8977  0.3488  0.1936
14916TIP3    H266240   2.045   1.053   1.919 -1.4764  0.6878 -1.6705
14917TIP3   OH266241   4.359   5.250   4.029  0.2899  0.2654  0.0555
14917TIP3    H166242   4.434   5.292   4.071 -0.1210  1.2110 -0.1212
14917TIP3    H266243   4.323   5.192   4.096  1.7906 -1.0241 -0.1966
14918TIP3   OH266244   2.080   2.547   0.917  0.0660 -0.0832 -0.1971
14918TIP3    H166245   2.160   2.570   0.965  0.1977 -0.5840 -0.1645
14918TIP3    H266246   2.061   2.457   0.945 -0.3979 -0.0347 -0.3562
14919TIP3   OH266247   4.204   4.555   2.012 -0.5486  0.3313  0.1497
14919TIP3    H166248   4.296   4.532   2.024 -0.6066  0.4710  0.8959
14919TIP3    H266249   4.156   4.494   2.068 -0.8821  0.4976  0.0485
14920TIP3   OH266250   0.377   5.344  13.187  0.4488 -0.3084 -0.5274
14920TIP3    H166251   0.302   5.333  13.129 -0.2026  1.6077 -0.1233
14920TIP3    H266252   0.427   5.263  13.178 -0.3697 -0.6352 -2.6606
14921TIP3   OH266253   0.859   4.583  14.922 -0.7690 -0.1204 -0.1536
14921TIP3    H166254   0.896   4.648  14.862 -1.0975  1.5530  1.3756
14921TIP3    H266255   0.766   4.580  14.899 -1.0725  1.1694  0.7681
14922TIP3   OH266256   1.205   0.986  13.323  0.2245  0.0895  0.1434
14922TIP3    H166257   1.293   0.948  13.312 -0.6108 -1.7639 -0.5118
14922TIP3    H266258   1.218   1.058  13.384  2.3667  0.4656 -0.6614
14923TIP3   OH266259   4.891   4.350   3.459  0.5533 -0.0449 -0.7909
14923TIP3    H166260   4.868   4.343   3.366  0.8596 -1.0675 -0.8030
14923TIP3    H266261   4.837   4.284   3.502 -1.6828  2.2797  0.2038
14924TIP3   OH266262   4.973   1.712   6.992 -0.3076 -0.2850 -0.6201
14924TIP3    H166263   4.958   1.691   6.899 -0.7276 -0.8073 -0.4384
14924TIP3    H266264   4.904   1.666   7.038  0.5355 -0.9111  0.0522
14925TIP3   OH266265   1.783   6.586  11.505  0.3528  0.1699  0.0047
14925TIP3    H166266   1.728   6.518  11.466 -0.3718  1.0211 -0.4792
14925TIP3    H266267   1.735   6.614  11.583 -0.7137  1.9884 -1.2335
14926TIP3   OH266268   4.738   6.122   4.225 -0.2238  0.2810 -0.2138
14926TIP3    H166269   4.735   6.198   4.283  0.4889  0.1807 -0.0324
14926TIP3    H266270   4.704   6.050   4.277 -0.8737  0.4625 -0.3762
14927TIP3   OH266271   1.008   3.708   0.531  0.3353  0.2724 -0.6735
14927TIP3    H166272   1.103   3.717   0.540  0.5161 -2.5362  1.3159
14927TIP3    H266273   0.972   3.787   0.571  1.8145  0.2199  0.8238
14928TIP3   OH266274   2.020   2.454  15.236 -0.5872  0.2574  0.6408
14928TIP3    H166275   1.926   2.451  15.254 -0.4029  0.4900  1.7529
14928TIP3    H266276   2.027   2.490  15.148 -1.4677  3.4453  1.7504
14929TIP3   OH266277   4.394   6.826   5.811  0.1206 -0.1225  0.3078
14929TIP3    H166278   4.336   6.759   5.775  0.5538 -1.4522  1.9525
14929TIP3    H266279   4.415   6.794   5.899  3.4832  0.1944 -0.2658
14930TIP3   OH266280   0.047   0.222   2.909 -0.3202 -0.1072 -0.0153
14930TIP3    H166281  -0.031   0.245   2.859 -0.4489 -3.1504 -1.4047
14930TIP3    H266282   0.032   0.261   2.995 -3.2533 -0.3668 -0.3109
14931TIP3   OH266283   0.550   0.006  16.800  0.7082  0.1035  0.1926
14931TIP3    H166284   0.596  -0.077  16.796  1.6335  0.6271 -0.4736
14931TIP3    H266285   0.512   0.009  16.888  1.9737 -0.3312  0.7731
14932TIP3   OH266286   5.970   4.649   5.047  0.4755 -0.2037 -0.0245
14932TIP3    H166287   5.947   4.741   5.056 -1.6914 -0.7763  1.1862
14932TIP3    H266288   6.052   4.649   4.998  0.1365  2.3074 -0.7392
14933TIP3   OH266289   5.594   4.460   5.004 -0.6369  0.1812  0.1267
14933TIP3    H166290   5.563   4.391   5.062  0.1351  0.6636  1.1408
14933TIP3    H266291   5.551   4.540   5.036 -0.1810  0.4592  0.0548
14934TIP3   OH266292   3.069   6.399  11.683  0.0620  0.0888  0.1882
14934TIP3    H166293   3.033   6.397  11.772 -0.2216 -1.1783  0.0679
14934TIP3    H266294   3.159   6.368  11.693  0.0719  0.0760  0.0504
14935TIP3   OH266295   2.860   1.753  13.414  0.0884 -0.3222  0.0632
14935TIP3    H166296   2.946   1.748  13.454 -1.0167 -0.1859  2.6912
14935TIP3    H266297   2.867   1.823  13.349  1.4641  1.1353  1.6805
14936TIP3   OH266298   2.436   6.754   0.534 -0.1725  0.1002 -0.3510
14936TIP3    H166299   2.342   6.773   0.534 -0.3196 -0.4860  1.0049
14936TIP3    H266300   2.454   6.723   0.623  1.8052  2.6379  0.2528
14937TIP3   OH266301   2.998   0.460   4.198  0.0034 -0.3142  0.4668
14937TIP3    H166302   3.075   0.458   4.255  0.1776  0.1719  0.2524
14937TIP3    H266303   2.987   0.369   4.170  0.1786 -0.4787  0.9231
14938TIP3   OH266304   2.631   5.746   3.946 -0.1844 -0.3587  0.0360
14938TIP3    H166305   2.577   5.697   4.008 -0.0592 -1.8931 -0.9907
14938TIP3    H266306   2.648   5.683   3.875  1.2010  0.7453 -0.6604
14939TIP3   OH266307   1.949   5.647  14.151  0.6039  0.5279  0.0922
14939TIP3    H166308   1.953   5.740  14.129  0.3335  0.3288 -0.8463
14939TIP3    H266309   1.868   5.638  14.201 -0.5441  0.4597 -1.6697
14940TIP3   OH266310   2.997   5.362  14.376  0.3703 -0.3829  0.4110
14940TIP3    H166311   2.981   5.454  14.397  0.6985 -0.2642  0.1415
14940TIP3    H266312   2.920   5.316  14.411 -0.4781  0.1575 -0.6775
14941TIP3   OH266313   1.465   2.343   0.745  0.3748 -0.6834 -0.0427
14941TIP3    H166314   1.547   2.328   0.698 -0.2997 -2.6164 -0.7039
14941TIP3    H266315   1.465   2.277   0.815 -0.7379 -0.8878 -0.2227
14942TIP3   OH266316   1.094   5.592   4.509 -0.2542  0.1877 -0.7294
14942TIP3    H166317   1.091   5.619   4.601  0.5339  0.4340 -0.7669
14942TIP3    H266318   1.124   5.670   4.462 -3.3559  0.9871 -1.6162
14943TIP3   OH266319   0.170   5.806   1.214 -0.7902 -0.4958 -0.1612
14943TIP3    H166320   0.106   5.876   1.207 -0.4110  0.0239  1.2183
14943TIP3    H266321   0.132   5.744   1.276 -0.5896 -0.9167 -0.4508
14944TIP3   OH266322   4.248   5.886   1.809 -0.1230  0.2576 -0.1179
14944TIP3    H166323   4.175   5.845   1.762  0.1824 -0.1522 -0.2452
14944TIP3    H266324   4.264   5.968   1.761 -1.4780  1.1142  0.8206
14945TIP3   OH266325   1.653   5.161  16.329  0.0050 -0.2502  0.2650
14945TIP3    H166326   1.564   5.145  16.359  0.4796 -1.6401  0.9967
14945TIP3    H266327   1.691   5.219  16.395 -0.3501  0.3449 -0.0485
14946TIP3   OH266328   4.380   4.832   2.099  0.5524 -0.2863 -0.5715
14946TIP3    H166329   4.452   4.770   2.116  1.5796  0.2047 -2.7765
14946TIP3    H266330   4.364   4.824   2.005  0.5672  2.6023 -0.8927
14947TIP3   OH266331   0.385   1.348   0.027  0.1483  0.4387 -0.2938
14947TIP3    H166332   0.464   1.402   0.026  0.3903  0.0989  0.2094
14947TIP3    H266333   0.417   1.258   0.032 -0.2775  0.3231  0.4200
14948TIP3   OH266334   1.403   5.478   0.228  0.4131 -0.0573  0.5077
14948TIP3    H166335   1.445   5.461   0.313  1.0546  1.6250  0.5717
14948TIP3    H266336   1.474   5.468   0.164  0.2647  0.0915  0.3203
14949TIP3   OH266337   0.692   2.816   3.062  0.4722  0.4966 -0.0751
14949TIP3    H166338   0.726   2.906   3.068  1.7317 -0.0356  1.6588
14949TIP3    H266339   0.732   2.780   2.983  1.5826  0.8513  0.3075
14950TIP3   OH266340   4.136   1.882   1.162 -0.2711  0.3315  0.3386
14950TIP3    H166341   4.092   1.962   1.191  0.9042  0.5293  1.6347
14950TIP3    H266342   4.228   1.905   1.157  0.0792 -0.9340  0.6608
14951TIP3   OH266343   4.036   4.459   1.442  0.5556 -0.3641  0.2692
14951TIP3    H166344   3.966   4.496   1.495  1.0541 -2.3914  2.5244
14951TIP3    H266345   4.112   4.458   1.501  1.4439 -1.6567 -0.8426
14952TIP3   OH266346   0.017   3.093  16.244  0.0577 -0.8706  0.1120
14952TIP3    H166347   0.097   3.073  16.293  0.6240 -0.6167 -0.6876
14952TIP3    H266348   0.042   3.163  16.184 -0.9644 -0.2798  0.3566
14953TIP3   OH266349   3.437   0.397  16.995 -0.5425 -0.0620 -0.3471
14953TIP3    H166350   3.354   0.394  17.043 -0.5550 -0.6820 -0.4042
14953TIP3    H266351   3.438   0.317  16.943 -0.8181  0.8866 -1.8745
14954TIP3   OH266352   4.036   2.851  15.275 -0.1813 -0.5115 -0.4300
14954TIP3    H166353   4.092   2.873  15.349 -0.4011 -1.8265  0.1416
14954TIP3    H266354   3.949   2.839  15.313 -0.4490 -0.4696 -1.0113
14955TIP3   OH266355   4.184   5.611  10.738  0.3377  0.0043  0.1363
14955TIP3    H166356   4.238   5.620  10.660  0.0096  4.0203  0.1148
14955TIP3    H266357   4.094   5.613  10.706  0.2069  0.2903  0.4984
14956TIP3   OH266358   6.358   0.899  14.053 -0.6424 -0.0160  0.3659
14956TIP3    H166359   6.304   0.945  14.118  1.4354  1.2419  1.3177
14956TIP3    H266360   6.413   0.968  14.015 -0.6857 -1.0093 -1.6142
14957TIP3   OH266361   4.532   3.664   2.767  0.0243 -0.4809 -0.1926
14957TIP3    H166362   4.527   3.720   2.845  0.9070  0.7339 -0.9758
14957TIP3    H266363   4.593   3.594   2.791 -1.6364 -1.5710  1.0440
14958TIP3   OH266364   3.475   1.569  15.404 -0.5422  0.5337 -0.5840
14958TIP3    H166365   3.452   1.533  15.318 -1.5379 -0.8156  0.2029
14958TIP3    H266366   3.391   1.593  15.443 -0.0273  2.1558 -0.3760
14959TIP3   OH266367   6.550   3.374  13.635 -0.3104  0.2636  0.1311
14959TIP3    H166368   6.582   3.285  13.620  0.1842  0.7971 -2.4597
14959TIP3    H266369   6.455   3.364  13.640 -0.2302 -0.4701  0.3443
14960TIP3   OH266370   2.323   5.317   4.119 -0.4831  0.0051  0.3725
14960TIP3    H166371   2.271   5.337   4.041 -1.8473 -0.9897  0.9882
14960TIP3    H266372   2.266   5.262   4.172  1.7566 -2.5671  0.3437
14961TIP3   OH266373   5.845   6.676   0.646  0.1586 -0.8514 -0.4066
14961TIP3    H166374   5.837   6.590   0.687 -0.1665 -1.6437 -2.0756
14961TIP3    H266375   5.778   6.677   0.577 -2.8131  2.3178  2.1136
14962TIP3   OH266376   0.009   5.582   1.057 -0.1034  0.8062 -0.0575
14962TIP3    H166377  -0.023   5.493   1.072  1.0670  0.1239 -1.3456
14962TIP3    H266378   0.019   5.619   1.144 -0.7284 -0.2792  0.5029
14963TIP3   OH266379   6.346   2.402  11.194 -0.4871  0.4734 -0.2969
14963TIP3    H166380   6.359   2.479  11.138 -1.5534  0.6935 -0.2510
14963TIP3    H266381   6.435   2.368  11.207  0.2689  2.7815  1.2455
14964TIP3   OH266382   3.358   1.088  13.648 -0.2261 -0.0041 -0.0511
14964TIP3    H166383   3.420   1.134  13.704  0.8508 -0.8533 -0.5139
14964TIP3    H266384   3.294   1.051  13.709  0.3558 -0.0736  0.5277
14965TIP3   OH266385   5.171   6.313  12.389  0.3614 -0.0990  0.2205
14965TIP3    H166386   5.174   6.271  12.475  0.1562 -0.3629  0.0967
14965TIP3    H266387   5.094   6.369  12.392 -0.5411 -1.2903 -0.3430
14966TIP3   OH266388   2.447   0.484  10.627 -0.1662 -0.1637  0.4492
14966TIP3    H166389   2.376   0.430  10.593  1.9919 -0.5254 -4.3437
14966TIP3    H266390   2.436   0.569  10.584  1.9088 -0.0521  0.0178
14967TIP3   OH266391   3.246   4.578   1.496  0.2236  0.1412 -0.1127
14967TIP3    H166392   3.293   4.495   1.510 -2.0137 -1.2309 -0.2553
14967TIP3    H266393   3.251   4.592   1.401 -3.5504 -2.6422 -0.9654
14968TIP3   OH266394   1.976   2.611  16.380 -0.5181  0.0448  0.1009
14968TIP3    H166395   1.981   2.698  16.341  0.5499  1.0944  2.3991
14968TIP3    H266396   1.885   2.603  16.409 -0.6881  0.2822 -0.3568
14969TIP3   OH266397   2.359   4.659  15.144 -0.5719 -0.1725  0.5480
14969TIP3    H166398   2.280   4.713  15.150 -0.3650  0.0931  0.9116
14969TIP3    H266399   2.427   4.711  15.188  0.1259  0.1819 -0.9055
14970TIP3   OH266400   0.496   2.167  12.232  0.3618 -0.5898 -0.5978
14970TIP3    H166401   0.508   2.133  12.321 -0.9305 -0.7240 -0.4586
14970TIP3    H266402   0.529   2.257  12.237  2.0078 -1.1580 -0.4764
14971TIP3   OH266403   5.526   0.896   4.922 -0.1412 -0.3925 -0.3854
14971TIP3    H166404   5.453   0.836   4.905  0.0921 -0.6036 -0.6567
14971TIP3    H266405   5.567   0.862   5.002 -0.0590 -0.5514 -0.4936
14972TIP3   OH266406   3.016   0.799   2.960 -0.6433 -0.3443 -0.3992
14972TIP3    H166407   3.085   0.815   2.896  0.4169 -0.0890  0.7716
14972TIP3    H266408   2.979   0.886   2.978  0.1518 -0.1762  0.5054
14973TIP3   OH266409   5.347   6.430   5.822  0.5987  0.4042 -0.0470
14973TIP3    H166410   5.302   6.357   5.864 -0.9116  1.5874  0.5028
14973TIP3    H266411   5.430   6.439   5.869  0.9934 -1.1883 -0.4056
14974TIP3   OH266412   3.485   4.901   2.796 -0.2053 -0.1751 -0.7985
14974TIP3    H166413   3.420   4.967   2.773 -0.0848  0.1830 -0.1420
14974TIP3    H266414   3.434   4.819   2.802 -1.1271  0.4876  2.1114
14975TIP3   OH266415   4.762   0.877   3.469 -0.8872 -0.2463  0.4694
14975TIP3    H166416   4.760   0.782   3.454 -0.5849 -0.1531 -0.2217
14975TIP3    H266417   4.832   0.908   3.411 -0.7484  0.3565  0.9517
14976TIP3   OH266418   2.341   0.756   0.436  0.2889 -0.3232 -0.3447
14976TIP3    H166419   2.328   0.683   0.375 -0.7674 -0.8059  0.4145
14976TIP3    H266420   2.306   0.723   0.519  1.3483  0.4525  0.4306
14977TIP3   OH266421   0.373   0.443  12.124  0.1475  0.5450  0.5658
14977TIP3    H166422   0.310   0.511  12.148 -1.1129 -1.5296  3.7719
14977TIP3    H266423   0.319   0.367  12.102  1.4701 -0.6110  1.1291
14978TIP3   OH266424   4.406   0.224   6.590 -0.2456  0.0093 -0.5052
14978TIP3    H166425   4.422   0.318   6.597 -0.1673 -0.0481  0.0778
14978TIP3    H266426   4.321   0.218   6.545 -0.6667  0.3735  0.2151
14979TIP3   OH266427   0.296   1.161  11.072  0.3322 -0.4525 -0.3745
14979TIP3    H166428   0.325   1.134  11.160  0.0358 -0.3579 -0.2495
14979TIP3    H266429   0.214   1.115  11.058  1.5306 -2.3767 -1.5730
14980TIP3   OH266430   0.755   2.565  16.020  0.1991 -0.0657  0.2504
14980TIP3    H166431   0.732   2.487  15.970  0.2677  0.6688 -0.9480
14980TIP3    H266432   0.785   2.628  15.955  1.0085  0.6621  1.2885
14981TIP3   OH266433   1.163   1.662   3.540  0.0765 -0.4412  0.1675
14981TIP3    H166434   1.087   1.614   3.508 -0.7357  0.4789  0.6765
14981TIP3    H266435   1.138   1.691   3.627  0.8163  0.3115  0.1380
14982TIP3   OH266436   6.545   5.926  11.793 -0.4713  0.5631  0.2801
14982TIP3    H166437   6.477   5.925  11.725 -0.4782 -1.0876  0.2745
14982TIP3    H266438   6.496   5.918  11.875 -0.3563  0.6200  0.3529
14983TIP3   OH266439   4.633   6.182  10.316  0.2944 -0.3164  0.2296
14983TIP3    H166440   4.602   6.271  10.333 -1.8359 -0.6410 -1.4462
14983TIP3    H266441   4.707   6.170  10.375  1.1869  2.8426 -0.0844
14984TIP3   OH266442   0.772   6.165  12.722  0.5905 -0.5464  0.7103
14984TIP3    H166443   0.795   6.152  12.814  0.2813 -1.8168  0.6191
14984TIP3    H266444   0.686   6.206  12.724  0.9065  0.1367  0.9789
14985TIP3   OH266445   1.675   1.378   2.871  0.3462  0.0616 -0.0708
14985TIP3    H166446   1.660   1.285   2.855 -1.1409  0.3532 -0.4739
14985TIP3    H266447   1.656   1.389   2.964 -2.4785  0.4644 -0.6066
14986TIP3   OH266448   3.054   3.633  13.555 -0.2670  0.4837 -0.1911
14986TIP3    H166449   3.128   3.588  13.595 -0.5144  1.0285  0.9078
14986TIP3    H266450   2.997   3.562  13.525 -0.3324  0.0478  0.9161
14987TIP3   OH266451   4.937   2.291   2.966  0.1336  0.0095 -0.0116
14987TIP3    H166452   4.886   2.213   2.988  0.7438 -0.3572  0.1278
14987TIP3    H266453   5.028   2.262   2.971  0.4225  1.0501  1.2682
14988TIP3   OH266454   5.889   0.036   3.934 -0.7667 -0.2721  0.2552
14988TIP3    H166455   5.813   0.006   3.984 -0.6368 -1.4124 -0.1920
14988TIP3    H266456   5.964  -0.002   3.980 -0.5009  0.3846  0.3721
14989TIP3   OH266457   3.180   1.214  15.058  0.4104 -0.0537  0.3209
14989TIP3    H166458   3.128   1.171  15.126  3.0179  1.9776  3.9543
14989TIP3    H266459   3.131   1.295  15.039  0.0953 -0.2108  0.4529
14990TIP3   OH266460   1.712   6.741  14.563 -0.3282  0.0597 -0.1252
14990TIP3    H166461   1.755   6.818  14.527  0.2414 -0.2217 -0.0580
14990TIP3    H266462   1.673   6.771  14.645  0.4436  0.1303  0.2255
14991TIP3   OH266463   6.107   0.593   2.492 -0.3736 -0.1398  0.2965
14991TIP3    H166464   6.049   0.555   2.558 -1.5702 -0.6713 -0.9863
14991TIP3    H266465   6.175   0.638   2.542 -0.6692 -1.3567  1.8678
14992TIP3   OH266466   5.578   2.935   5.105  0.3207 -0.4059 -0.2729
14992TIP3    H166467   5.505   2.875   5.087 -0.5189  0.8970 -1.4890
14992TIP3    H266468   5.634   2.928   5.028 -0.6046  1.4424 -1.1985
14993TIP3   OH266469   5.171   5.918   1.069  0.1115  0.3987  0.4509
14993TIP3    H166470   5.203   5.876   1.149 -0.4199  0.0747  0.4981
14993TIP3    H266471   5.195   6.010   1.079 -0.4741  0.4744  1.2591
14994TIP3   OH266472   5.071   4.835  12.458 -0.2079 -0.1955 -0.2474
14994TIP3    H166473   5.133   4.825  12.530  0.1342  3.2533  0.1037
14994TIP3    H266474   5.118   4.889  12.394 -1.0542 -1.9016 -2.4477
14995TIP3   OH266475   2.126   3.677   2.985  0.3339  0.3211  0.1692
14995TIP3    H166476   2.165   3.688   2.899 -2.4551 -2.6267 -1.6996
14995TIP3    H266477   2.082   3.760   3.003 -0.4458  0.4693 -2.0909
14996TIP3   OH266478   4.650   1.611   5.569 -0.0209 -0.3323 -0.5606
14996TIP3    H166479   4.720   1.667   5.601  0.0259 -0.1089 -1.0489
14996TIP3    H266480   4.576   1.670   5.554  0.1985 -0.3093 -1.5892
14997TIP3   OH266481   6.132   0.150  13.130 -0.3459  0.2873 -0.2983
14997TIP3    H166482   6.158   0.215  13.195 -0.7926  2.1360 -1.8842
14997TIP3    H266483   6.201   0.153  13.064 -2.1762  1.9886 -2.2826
14998TIP3   OH266484   5.752   2.012   5.642 -0.7633 -0.2386  0.3850
14998TIP3    H166485   5.761   1.932   5.591  0.0533  0.3060 -0.3496
14998TIP3    H266486   5.839   2.026   5.680 -0.9232  0.2586  0.5778
14999TIP3   OH266487   4.858   1.739  16.871 -0.0222  0.2370 -0.2106
14999TIP3    H166488   4.775   1.733  16.919 -0.2275 -0.6131 -0.6496
14999TIP3    H266489   4.908   1.804  16.919 -1.3017  1.4898 -0.5018
15000TIP3   OH266490   4.207   0.450  12.691 -0.0886 -0.2244 -0.4248
15000TIP3    H166491   4.278   0.401  12.732 -0.3346 -1.9468 -1.9316
15000TIP3    H266492   4.134   0.442  12.753  0.0525 -1.3375 -0.3737
15001TIP3   OH266493   2.178   5.023   5.131  0.3263 -0.1700  0.1376
15001TIP3    H166494   2.097   5.057   5.093  0.6525  1.0315  0.4713
15001TIP3    H266495   2.150   4.955   5.191 -0.4364  0.1790  0.1824
15002TIP3   OH266496   1.392   5.126   1.195 -0.3364 -0.0350 -0.2744
15002TIP3    H166497   1.373   5.129   1.101 -0.1772 -1.6490 -0.3803
15002TIP3    H266498   1.435   5.042   1.208 -0.3118  0.1926  1.2445
15003TIP3   OH266499   1.161   3.072   1.345  0.2592  0.0254 -0.2059
15003TIP3    H166500   1.109   3.137   1.296  1.1832  0.8122 -0.1936
15003TIP3    H266501   1.180   3.115   1.428  1.7014  0.1652 -0.5727
15004TIP3   OH266502   5.526   4.241  15.398 -0.6453  0.6301  0.1768
15004TIP3    H166503   5.458   4.302  15.370 -1.1439  0.2880  0.6350
15004TIP3    H266504   5.490   4.154  15.378 -1.2526  0.3270  2.3362
15005TIP3   OH266505   4.919   2.746   5.266 -0.3477  0.1123  0.7421
15005TIP3    H166506   4.996   2.752   5.209 -0.8702  0.0754  0.0102
15005TIP3    H266507   4.947   2.689   5.338  0.5560  0.7554  0.9232
15006TIP3   OH266508   4.059   5.353  13.617 -0.1381 -0.2117 -0.3994
15006TIP3    H166509   4.049   5.261  13.593 -3.1701  0.4362 -2.1083
15006TIP3    H266510   4.045   5.401  13.536 -2.3678  1.8597  1.0643
15007TIP3   OH266511   1.332   3.173  16.987 -0.0784 -0.1955  0.2815
15007TIP3    H166512   1.408   3.148  16.935  0.2655  0.0571  0.6530
15007TIP3    H266513   1.327   3.268  16.978 -0.8161 -0.2835 -0.3636
15008TIP3   OH266514   5.064   5.583   0.740 -0.3952 -0.9967 -0.3478
15008TIP3    H166515   5.053   5.676   0.718  0.3779 -0.7913  0.0815
15008TIP3    H266516   5.070   5.540   0.655 -0.3549 -0.5964 -0.5535
15009TIP3   OH266517   4.881   0.089  13.630  0.7353 -0.2330 -0.5137
15009TIP3    H166518   4.936   0.167  13.644  0.6018 -0.3603  0.8840
15009TIP3    H266519   4.818   0.091  13.702 -1.9881  0.5871 -2.7633
15010TIP3   OH266520   3.317   5.919  11.321  0.1333  0.1726 -0.4367
15010TIP3    H166521   3.223   5.903  11.314 -0.2796  2.0226  0.2287
15010TIP3    H266522   3.351   5.840  11.363 -1.6158  0.6377  2.1194
15011TIP3   OH266523   5.212   5.363  15.099  0.0244  0.2247 -0.0116
15011TIP3    H166524   5.163   5.357  15.017  0.2902  0.7836 -0.2197
15011TIP3    H266525   5.192   5.451  15.132 -1.1003 -0.4301  1.1876
15012TIP3   OH266526   6.333   5.561  13.358 -0.2376 -0.6923 -0.8737
15012TIP3    H166527   6.330   5.467  13.375 -0.6343 -0.3439  1.2933
15012TIP3    H266528   6.278   5.599  13.427  0.9734  1.2291 -0.9047
15013TIP3   OH266529   0.619   4.266  11.403  0.2433  0.0056 -0.0713
15013TIP3    H166530   0.689   4.237  11.461 -1.1284 -1.9291  0.7175
15013TIP3    H266531   0.541   4.266  11.458 -0.4052  2.2004 -0.9000
15014TIP3   OH266532   5.681   0.358   1.138  0.3626 -0.4312  0.1151
15014TIP3    H166533   5.637   0.332   1.057  0.0693 -2.0324  0.7680
15014TIP3    H266534   5.698   0.276   1.184  1.3557  0.3831  1.2666
15015TIP3   OH266535   4.078   2.582   4.731  0.0512  0.6847  0.9519
15015TIP3    H166536   4.009   2.524   4.701 -0.3026  0.8595  1.4202
15015TIP3    H266537   4.039   2.669   4.732  0.2829  0.7896  1.1869
15016TIP3   OH266538   1.522   1.830   2.586  0.1489 -0.5333  0.2165
15016TIP3    H166539   1.520   1.735   2.596  1.3212 -0.6897 -0.7568
15016TIP3    H266540   1.575   1.861   2.659  0.7562 -0.7520 -0.1259
15017TIP3   OH266541   5.645   2.912   5.710  0.0171  0.3189  0.1395
15017TIP3    H166542   5.584   2.880   5.776 -1.0922  1.5840 -0.2434
15017TIP3    H266543   5.677   2.995   5.744  0.6045  0.2588 -0.2379
15018TIP3   OH266544   2.195   5.178  16.778  0.1332  0.2618 -0.3505
15018TIP3    H166545   2.160   5.115  16.715 -4.1063  0.3825  1.5248
15018TIP3    H266546   2.223   5.252  16.725 -2.8034  0.1734 -2.2914
15019TIP3   OH266547   0.535   0.332   0.759  0.0969 -0.1960  0.1100
15019TIP3    H166548   0.455   0.370   0.725 -0.7204  0.2340  2.3441
15019TIP3    H266549   0.603   0.397   0.740  0.0739 -0.7326 -2.1354
15020TIP3   OH266550   2.117   6.227  12.146 -0.1747 -0.1060 -0.7284
15020TIP3    H166551   2.100   6.221  12.240  0.5430  0.3474 -0.5566
15020TIP3    H266552   2.033   6.209  12.104 -0.5620 -0.0255  0.0081
15021TIP3   OH266553   5.431   4.315  16.922  0.5829  0.3942  0.3301
15021TIP3    H166554   5.419   4.396  16.873 -0.8828  0.9158  1.4640
15021TIP3    H266555   5.425   4.342  17.014 -1.1899 -1.1521  0.7210
15022TIP3   OH266556   5.138   5.677  11.230  0.2678 -0.0126 -0.3731
15022TIP3    H166557   5.072   5.722  11.283  1.4962  1.0782  0.2745
15022TIP3    H266558   5.107   5.586  11.227 -1.9782  0.6979 -1.2535
15023TIP3   OH266559   1.533   0.892  12.981  0.0701 -0.1310 -0.7806
15023TIP3    H166560   1.548   0.984  13.002 -0.3455  0.3861 -2.5524
15023TIP3    H266561   1.454   0.892  12.926  0.4416 -1.4619 -1.3635
15024TIP3   OH266562   0.748   0.096  10.919  0.5019 -0.4813 -0.3096
15024TIP3    H166563   0.743   0.190  10.937 -0.4387 -0.2255 -1.6919
15024TIP3    H266564   0.839   0.082  10.892  0.7575 -0.0464  0.3099
15025TIP3   OH266565   6.734   5.095  15.060 -0.5026  0.2150  0.1930
15025TIP3    H166566   6.715   5.170  15.004 -0.0309  1.7733  2.0065
15025TIP3    H266567   6.706   5.019  15.009 -0.4430  1.5518 -1.9661
15026TIP3   OH266568   0.452   5.506  11.814  0.2449  0.0525 -0.4011
15026TIP3    H166569   0.376   5.448  11.818 -0.2166  0.5448 -1.5706
15026TIP3    H266570   0.423   5.588  11.855 -0.0932  0.4709 -1.4465
15027TIP3   OH266571   1.878   1.652   4.364 -0.1657 -0.3059 -1.0394
15027TIP3    H166572   1.970   1.627   4.370 -0.3007 -0.8708 -1.3464
15027TIP3    H266573   1.870   1.727   4.424  0.8199  0.6874 -2.0923
15028TIP3   OH266574   1.344   6.138   1.839 -0.6320  0.2350  0.3386
15028TIP3    H166575   1.249   6.140   1.828 -0.5910 -1.2389 -0.4858
15028TIP3    H266576   1.371   6.053   1.804  1.1045  1.0195 -0.3698
15029TIP3   OH266577   3.566   4.698   5.170  0.0562 -0.2601  0.1296
15029TIP3    H166578   3.489   4.739   5.132 -0.0418  0.7276  1.3355
15029TIP3    H266579   3.547   4.692   5.263  0.7315 -1.6356  0.2134
15030TIP3   OH266580   5.344   2.905   6.098 -0.3087 -0.9652  0.3504
15030TIP3    H166581   5.419   2.905   6.158 -0.2534 -0.7762  0.2817
15030TIP3    H266582   5.299   2.822   6.116 -0.3206 -0.8877  0.6874
15031TIP3   OH266583   1.100   1.085   0.389 -0.6163  0.0696  0.2717
15031TIP3    H166584   1.029   1.145   0.366 -0.9925 -0.1266  0.8996
15031TIP3    H266585   1.056   1.001   0.402 -0.2466 -0.0863  0.5044
15032TIP3   OH266586   0.735   0.350  14.504 -0.3955  0.4297 -0.1049
15032TIP3    H166587   0.780   0.284  14.452 -1.0473 -0.1860  0.0790
15032TIP3    H266588   0.790   0.428  14.500  1.5324 -0.7614  1.4454
15033TIP3   OH266589   2.224   3.005  15.811  0.2231 -0.6927  0.3734
15033TIP3    H166590   2.246   2.945  15.739  2.2664  0.7724 -0.3035
15033TIP3    H266591   2.196   3.085  15.768  3.0473  0.7857  1.0735
15034TIP3   OH266592   3.185   1.210   4.860  0.3502 -0.4708  0.0044
15034TIP3    H166593   3.259   1.197   4.800  0.9479 -0.0201  0.6346
15034TIP3    H266594   3.218   1.181   4.945 -0.8197 -2.0491 -0.0459
15035TIP3   OH266595   5.360   1.627   2.510  0.1778  0.2609  0.2946
15035TIP3    H166596   5.415   1.693   2.553 -0.3701 -0.0975  1.5822
15035TIP3    H266597   5.272   1.644   2.542 -0.4200  0.5221 -1.3827
15036TIP3   OH266598   1.568   6.200  14.843 -0.3133 -0.2638 -0.3188
15036TIP3    H166599   1.627   6.152  14.900  0.5972  0.9577 -0.1996
15036TIP3    H266600   1.480   6.176  14.873  0.1459 -0.6383  0.7418
15037TIP3   OH266601   0.603   2.626  11.358 -0.4481 -0.4136 -0.2730
15037TIP3    H166602   0.615   2.719  11.339 -0.8804  0.2674  2.4002
15037TIP3    H266603   0.676   2.604  11.416 -1.2016 -1.3118  0.3708
15038TIP3   OH266604   3.144   2.056  15.283 -0.0251  0.4186  0.2472
15038TIP3    H166605   3.167   1.965  15.305 -2.5837 -0.2684  0.4311
15038TIP3    H266606   3.226   2.096  15.256  1.0791 -2.1369 -0.4697
15039TIP3   OH266607   2.606   4.002   4.585 -0.2380 -0.2119  0.2548
15039TIP3    H166608   2.625   4.030   4.495 -0.9556  2.0642  0.7453
15039TIP3    H266609   2.512   4.015   4.595 -0.4532 -1.9329  0.8999
15040TIP3   OH266610   6.260   3.780  14.368  0.0909 -0.3251  0.0939
15040TIP3    H166611   6.355   3.775  14.364  0.1542  0.1211  0.8930
15040TIP3    H266612   6.236   3.733  14.448 -0.3409 -0.2403  0.0169
15041TIP3   OH266613   5.109   1.978   0.576  0.5814 -0.0101  0.0539
15041TIP3    H166614   5.045   1.960   0.508  1.4365 -1.2137 -0.4669
15041TIP3    H266615   5.106   1.902   0.633  0.6474  0.5000  0.7591
15042TIP3   OH266616   4.440   2.937  12.702  0.6220  0.4759  0.0938
15042TIP3    H166617   4.490   3.015  12.679  0.7554  0.3142 -0.1663
15042TIP3    H266618   4.361   2.970  12.745  1.2633  0.7085  1.1124
15043TIP3   OH266619   5.318   4.459  10.338 -0.1877 -0.8122 -0.3513
15043TIP3    H166620   5.280   4.537  10.377  1.6347 -0.1581  0.1702
15043TIP3    H266621   5.297   4.389  10.400 -2.1230 -0.8724 -0.9827
15044TIP3   OH266622   6.158   1.078   3.235 -0.0165  0.4591  0.5286
15044TIP3    H166623   6.106   1.059   3.157  0.9590 -1.3049  0.2550
15044TIP3    H266624   6.222   1.143   3.206 -0.5137  0.8162  0.2210
15045TIP3   OH266625   4.252   4.340  12.021 -0.4892  0.6238  0.3380
15045TIP3    H166626   4.165   4.380  12.018 -0.5661  0.4445  0.1499
15045TIP3    H266627   4.265   4.304  11.933 -0.8437 -0.6489  0.7787
15046TIP3   OH266628   3.212   5.039   1.548  0.3885  0.1867  0.2888
15046TIP3    H166629   3.119   5.041   1.528  0.0175 -3.7865  0.9231
15046TIP3    H266630   3.249   4.974   1.488  2.2943  0.0243  1.5518
15047TIP3   OH266631   0.314   6.036   0.781  0.3997  0.1904  0.1553
15047TIP3    H166632   0.361   5.978   0.841 -0.7785 -0.2805  0.6537
15047TIP3    H266633   0.337   6.124   0.810  2.7016  0.0388 -0.9870
15048TIP3   OH266634   2.632   0.609  13.029 -0.2437  0.3149 -1.0088
15048TIP3    H166635   2.563   0.649  12.976 -0.1008  0.6499 -0.9472
15048TIP3    H266636   2.695   0.680  13.044  0.2208 -0.0368 -1.2376
15049TIP3   OH266637   2.771   4.529  14.811  0.0463 -0.2695  0.1205
15049TIP3    H166638   2.790   4.438  14.835 -0.0755  0.0855  1.6298
15049TIP3    H266639   2.682   4.526  14.775 -0.5483 -0.5311  1.5666
15050TIP3   OH266640   5.492   1.925  14.273 -0.0255  0.6884  0.3135
15050TIP3    H166641   5.437   1.849  14.254  1.0050  0.1291 -0.4823
15050TIP3    H266642   5.429   1.994  14.296 -1.0962  0.1817 -0.9637
15051TIP3   OH266643   0.976   0.856   0.416  0.0841 -0.5648 -0.1420
15051TIP3    H166644   0.883   0.848   0.437 -0.0920 -1.2327 -1.1251
15051TIP3    H266645   1.011   0.767   0.425  0.8245 -0.1877  1.0172
15052TIP3   OH266646   2.384   6.492   1.782  0.1625 -0.2985  0.4414
15052TIP3    H166647   2.384   6.417   1.723 -0.2494 -1.9975  2.4497
15052TIP3    H266648   2.469   6.534   1.769 -0.7260  0.7300 -2.8176
15053TIP3   OH266649   1.402   0.102  13.462 -0.3398  0.5751 -0.3961
15053TIP3    H166650   1.447   0.091  13.378 -1.9952  1.5746 -1.4733
15053TIP3    H266651   1.333   0.035  13.461  0.5424 -0.4064  0.8719
15054TIP3   OH266652   1.156   4.564   4.415  0.6588 -0.0425  0.0689
15054TIP3    H166653   1.240   4.603   4.393  1.3238 -2.0010 -1.1376
15054TIP3    H266654   1.173   4.513   4.494 -0.1517  1.8384  1.5179
15055TIP3   OH266655   3.082   0.719  16.185  0.1489  0.5728 -0.2592
15055TIP3    H166656   3.035   0.642  16.216  0.4492  0.3491 -0.3499
15055TIP3    H266657   3.015   0.788  16.179 -0.0055  0.4770  0.3797
15056TIP3   OH266658   4.533   3.880  14.703 -0.2591  0.6474 -0.1327
15056TIP3    H166659   4.476   3.802  14.709  0.7435 -0.2260 -1.3425
15056TIP3    H266660   4.620   3.847  14.726  0.4249  1.0754 -1.9761
15057TIP3   OH266661   2.935   0.846   0.535 -0.4565 -0.0586 -0.0864
15057TIP3    H166662   2.946   0.753   0.555 -1.1948  0.0430  0.8761
15057TIP3    H266663   2.853   0.870   0.577 -0.9143  0.7479 -1.3767
15058TIP3   OH266664   0.102   1.743   3.990 -0.1150 -0.2443 -0.1099
15058TIP3    H166665   0.026   1.798   4.011  0.5195  1.4015 -1.8786
15058TIP3    H266666   0.177   1.803   3.995  0.7057 -1.1406 -1.2517
15059TIP3   OH266667   0.092   6.670   3.506  0.2243  0.7117 -0.5435
15059TIP3    H166668   0.014   6.726   3.512 -0.4876 -0.1759 -1.3359
15059TIP3    H266669   0.077   6.601   3.571  1.5970  1.9630  1.2173
15060TIP3   OH266670   3.195   1.603   4.859  0.1219  0.0495  0.1303
15060TIP3    H166671   3.269   1.650   4.898 -0.8874  2.5499 -0.7910
15060TIP3    H266672   3.126   1.668   4.851 -2.8719 -2.5058  2.4436
15061TIP3   OH266673   5.362   3.488  15.714  0.2225  0.1995 -0.5251
15061TIP3    H166674   5.301   3.418  15.738 -0.1588  0.2966 -1.1747
15061TIP3    H266675   5.439   3.472  15.768 -0.1109 -0.3441 -0.1976
15062TIP3   OH266676   3.385   3.464   2.469  0.6015  0.1506 -0.2923
15062TIP3    H166677   3.393   3.556   2.494 -1.2939 -0.2322  2.1698
15062TIP3    H266678   3.336   3.466   2.386  0.2928  1.3732 -0.0995
15063TIP3   OH266679   5.401   3.195  16.280  0.0433  0.0644 -0.8058
15063TIP3    H166680   5.435   3.147  16.204 -1.0823  0.6754 -1.7478
15063TIP3    H266681   5.313   3.159  16.294 -0.6534  1.4889 -1.2662
15064TIP3   OH266682   4.002   6.497  12.506 -0.5977  0.1514 -0.0956
15064TIP3    H166683   3.935   6.514  12.573  0.7861  1.4350  1.0289
15064TIP3    H266684   4.085   6.501  12.554  0.3405 -0.9389 -1.5433
15065TIP3   OH266685   6.391   1.140  14.646 -0.2054 -0.5214 -0.9321
15065TIP3    H166686   6.298   1.151  14.626 -0.2234  1.5698  0.0693
15065TIP3    H266687   6.395   1.140  14.742  1.0113  2.0625 -0.8965
15066TIP3   OH266688   2.783   1.000  16.558 -0.3343  0.2583  0.3661
15066TIP3    H166689   2.859   1.057  16.570 -0.3307  0.2064  0.5872
15066TIP3    H266690   2.763   1.007  16.464 -0.7069  1.1001  0.4965
15067TIP3   OH266691   2.568   6.399   3.522 -0.3023  0.3599 -0.3799
15067TIP3    H166692   2.519   6.467   3.476 -0.1046 -1.2948 -3.3091
15067TIP3    H266693   2.646   6.442   3.556 -1.6285  2.1409  0.5925
15068TIP3   OH266694   4.787   5.679   0.858 -0.5349 -0.0175  0.2790
15068TIP3    H166695   4.774   5.603   0.800 -0.4592 -0.5574  0.9595
15068TIP3    H266696   4.871   5.663   0.900 -0.9711 -0.0413  1.1508
15069TIP3   OH266697   0.918   3.609   0.778 -0.2229 -0.0123  0.0662
15069TIP3    H166698   0.949   3.578   0.693 -2.4581  2.7500 -1.9605
15069TIP3    H266699   0.940   3.702   0.779 -0.7221  0.1538  2.3235
15070TIP3   OH266700   5.917   2.025   4.626 -0.7995 -0.5025 -0.2130
15070TIP3    H166701   5.917   1.930   4.637 -0.6388 -0.6106 -1.1261
15070TIP3    H266702   5.912   2.039   4.532  1.1152  0.3776 -0.2287
15071TIP3   OH266703   5.222   3.375   4.122 -0.3172  0.2303 -0.5109
15071TIP3    H166704   5.130   3.373   4.095 -0.5617  0.7140  0.2720
15071TIP3    H266705   5.223   3.331   4.207  0.3243 -0.5872 -0.9319
15072TIP3   OH266706   6.653   6.387  16.988 -0.6171 -0.3408 -0.2312
15072TIP3    H166707   6.699   6.321  17.041  0.8141  0.8151  0.0198
15072TIP3    H266708   6.561   6.376  17.011 -0.5821 -2.9577 -1.0022
15073TIP3   OH266709   0.868   5.214   5.367  0.2126  0.3133  0.4688
15073TIP3    H166710   0.901   5.279   5.304  1.8299 -0.9141 -0.0033
15073TIP3    H266711   0.779   5.245   5.388 -1.5990 -0.5798 -4.4452
15074TIP3   OH266712   0.676   1.007   0.685  0.3865  0.0672  0.3078
15074TIP3    H166713   0.581   1.024   0.680  0.3798 -0.1864 -0.4592
15074TIP3    H266714   0.696   0.958   0.606  1.2922  0.7082  0.1298
15075TIP3   OH266715   3.411   1.927  11.455  0.0086 -0.2471  0.0752
15075TIP3    H166716   3.424   1.965  11.368  1.7778 -0.7192  0.0993
15075TIP3    H266717   3.458   1.843  11.453 -0.1677 -0.4111  1.3885
15076TIP3   OH266718   4.356   3.508   0.395 -0.1937  0.3438  0.5135
15076TIP3    H166719   4.372   3.570   0.324  0.7547  1.9229  2.0400
15076TIP3    H266720   4.267   3.477   0.379  0.1516  0.2673 -1.6143
15077TIP3   OH266721   1.664   6.200  11.450  0.5790 -0.4752  0.5712
15077TIP3    H166722   1.643   6.282  11.406  1.0889 -0.8644 -0.4229
15077TIP3    H266723   1.747   6.219  11.495  0.7003 -0.4435  0.3377
15078TIP3   OH266724   5.200   0.641   3.016 -0.3193 -0.5484 -0.0390
15078TIP3    H166725   5.254   0.660   2.939 -3.8944  1.4683 -2.3391
15078TIP3    H266726   5.253   0.668   3.091  2.1742  0.3474 -2.0064
15079TIP3   OH266727   6.425   1.572  14.927  0.2142  0.1461 -0.0865
15079TIP3    H166728   6.519   1.562  14.913  0.5323  1.0155  1.1468
15079TIP3    H266729   6.389   1.595  14.841  0.9412 -1.2674 -0.7953
15080TIP3   OH266730   4.368   2.874   1.315 -0.2454 -0.4856  1.2105
15080TIP3    H166731   4.396   2.834   1.398  0.9224 -0.0680  1.0412
15080TIP3    H266732   4.444   2.925   1.287 -1.1880  0.6582  0.6787
15081TIP3   OH266733   1.495   5.950  11.847  0.4819  0.2546  0.0379
15081TIP3    H166734   1.524   5.882  11.787  0.4610  0.2817 -0.0030
15081TIP3    H266735   1.414   5.916  11.885  1.2864 -0.4288  1.1895
15082TIP3   OH266736   2.837   2.856   4.025 -0.3415  0.0031  0.2034
15082TIP3    H166737   2.875   2.806   4.097 -2.4064  2.8797  3.6284
15082TIP3    H266738   2.913   2.887   3.975  1.2217 -1.7573  1.3418
15083TIP3   OH266739   1.778   3.464  16.352 -0.5297  0.1061 -0.7652
15083TIP3    H166740   1.755   3.398  16.286  0.3103  0.4028 -1.3826
15083TIP3    H266741   1.761   3.421  16.436 -0.7663 -0.6117 -1.1665
15084TIP3   OH266742   5.319   0.558  15.749 -0.4938 -0.0489 -0.1618
15084TIP3    H166743   5.249   0.606  15.704  0.9269  1.3757 -0.9387
15084TIP3    H266744   5.394   0.564  15.690  0.4828 -0.9894  0.9410
15085TIP3   OH266745   2.377   3.196  16.643  0.1437 -0.5438 -0.2248
15085TIP3    H166746   2.294   3.238  16.663  1.2917  2.0610 -0.3944
15085TIP3    H266747   2.384   3.200  16.548  0.4702 -0.7108 -0.2102
15086TIP3   OH266748   4.027   3.856   2.223 -0.0543 -0.6976 -0.1667
15086TIP3    H166749   4.113   3.826   2.253  0.8732 -0.2445 -2.1865
15086TIP3    H266750   4.004   3.794   2.153 -1.3552 -0.7616  0.2943
15087TIP3   OH266751   6.847   3.744   2.801 -0.0369 -0.2501  0.1311
15087TIP3    H166752   6.809   3.656   2.796  1.2353 -0.9097  1.1994
15087TIP3    H266753   6.872   3.764   2.711  1.0807 -1.6903  0.0676
15088TIP3   OH266754   5.072   1.484   1.624 -0.3572 -0.2881 -0.1205
15088TIP3    H166755   5.101   1.432   1.549  2.2748  1.3453 -0.3479
15088TIP3    H266756   4.992   1.527   1.593  0.8951  0.7048 -2.2303
15089TIP3   OH266757   1.837   5.080  16.154  0.2819  0.1153 -0.1006
15089TIP3    H166758   1.819   5.134  16.077 -0.2938 -1.6132 -1.2401
15089TIP3    H266759   1.763   5.096  16.212 -1.6742 -1.7840 -1.8375
15090TIP3   OH266760   6.775   2.520   4.372  0.3218 -0.1495  0.4237
15090TIP3    H166761   6.738   2.524   4.460 -1.1917 -0.2266 -0.1709
15090TIP3    H266762   6.802   2.429   4.361  1.2172  0.0260  1.0600
15091TIP3   OH266763   2.761   6.167   1.350 -0.3955  0.4095  0.4557
15091TIP3    H166764   2.679   6.148   1.305 -0.3982  1.5233 -0.0337
15091TIP3    H266765   2.786   6.084   1.390 -2.4098  0.3166  1.6976
15092TIP3   OH266766   6.154   2.092   0.480 -0.6048  0.0060 -0.2727
15092TIP3    H166767   6.105   2.011   0.490 -1.7027  0.5642 -0.9849
15092TIP3    H266768   6.186   2.090   0.390 -0.2374  0.1509 -0.1473
15093TIP3   OH266769   1.976   3.902  13.410 -0.1002 -0.2837 -0.0380
15093TIP3    H166770   1.886   3.885  13.383 -0.9112  0.4964  2.0549
15093TIP3    H266771   2.010   3.816  13.434 -0.2261 -0.5899 -0.8960
15094TIP3   OH266772   2.383   0.981   3.732 -0.3762  0.4815 -0.6905
15094TIP3    H166773   2.456   0.918   3.731 -0.6278  0.1901 -1.2084
15094TIP3    H266774   2.424   1.064   3.756  0.0965  0.2841 -0.7912
15095TIP3   OH266775   6.825   0.207  11.044 -0.2550 -0.1761 -0.1138
15095TIP3    H166776   6.733   0.185  11.031 -0.5236 -1.4652  3.1626
15095TIP3    H266777   6.823   0.285  11.100  0.5592 -1.2987  1.5431
15096TIP3   OH266778   1.414   1.214   2.391  0.3089 -0.0532 -0.1451
15096TIP3    H166779   1.356   1.157   2.341  1.6988 -0.3149 -1.5325
15096TIP3    H266780   1.426   1.291   2.335  2.9894 -0.9431 -0.9491
15097TIP3   OH266781   0.519   0.754   0.115  0.2015 -0.3143 -0.3067
15097TIP3    H166782   0.474   0.671   0.132 -1.0175  0.3725 -0.0546
15097TIP3    H266783   0.567   0.773   0.195  0.2870 -0.6577 -0.2763
15098TIP3   OH266784   1.869   2.113  12.556 -0.3183  0.1717 -0.3415
15098TIP3    H166785   1.946   2.138  12.504 -0.7561  0.2883 -0.9414
15098TIP3    H266786   1.870   2.017  12.554 -0.3575  0.1759 -0.6037
15099TIP3   OH266787   5.689   5.847  11.329  0.1426  0.1400 -0.0676
15099TIP3    H166788   5.631   5.856  11.405  0.4192  0.1901  0.1402
15099TIP3    H266789   5.777   5.858  11.365  0.2636  0.4026 -0.4378
15100TIP3   OH266790   4.868   1.631   4.469  0.4604 -0.3138 -0.5365
15100TIP3    H166791   4.869   1.618   4.564 -1.1232 -1.3754 -0.6330
15100TIP3    H266792   4.919   1.558   4.434  3.9149  1.8095 -0.4410
15101TIP3   OH266793   4.584   2.374  14.510 -0.0794 -0.4094 -0.3025
15101TIP3    H166794   4.649   2.413  14.569  0.8401 -0.9263 -0.9667
15101TIP3    H266795   4.501   2.383  14.557  0.4971  0.0697  0.6443
15102TIP3   OH266796   2.372   2.329   0.894 -0.1425 -0.1044  0.0047
15102TIP3    H166797   2.463   2.303   0.879 -0.3162 -0.5360 -0.3202
15102TIP3    H266798   2.377   2.420   0.923  0.4061 -0.1887  0.1797
15103TIP3   OH266799   1.271   4.415  13.209 -0.3232 -0.0560  0.4079
15103TIP3    H166800   1.229   4.330  13.223 -2.8936  1.0453  0.0666
15103TIP3    H266801   1.317   4.406  13.126 -3.0158 -0.3547 -1.1680
15104TIP3   OH266802   3.190   0.592  13.197 -0.2781  0.6823 -0.1126
15104TIP3    H166803   3.138   0.518  13.168 -0.1934  0.3587  0.5451
15104TIP3    H266804   3.185   0.655  13.125 -1.1956  0.4665 -0.2477
15105TIP3   OH266805   5.518   1.490  13.783 -0.0170 -0.1706 -0.1074
15105TIP3    H166806   5.565   1.562  13.741  1.5842  0.3462  2.3603
15105TIP3    H266807   5.498   1.523  13.871 -1.1927 -1.9908  0.3604
15106TIP3   OH266808   5.973   3.741   2.523 -0.1892 -0.5324 -0.3005
15106TIP3    H166809   6.058   3.701   2.502  0.2946  0.4135 -0.2215
15106TIP3    H266810   5.925   3.673   2.569  1.1097 -0.6242  0.9953
15107TIP3   OH266811   1.887   0.365  11.770  0.5047 -0.4829  0.2554
15107TIP3    H166812   1.945   0.298  11.807  2.4541  1.1509  0.3358
15107TIP3    H266813   1.879   0.430  11.840 -1.6141 -0.7414  0.2962
15108TIP3   OH266814   6.751   1.991   1.454  0.6216  0.1960 -0.0834
15108TIP3    H166815   6.702   2.043   1.518 -2.1368  0.2086 -2.0497
15108TIP3    H266816   6.842   1.997   1.483 -0.1846  2.2148  2.4001
15109TIP3   OH266817   1.599   5.131   5.061 -0.4257  0.3568  0.1530
15109TIP3    H166818   1.596   5.225   5.077  0.2881  0.0817  2.1531
15109TIP3    H266819   1.691   5.107   5.073 -0.9240 -0.9086  1.8493
15110TIP3   OH266820   6.365   2.204  12.440  0.0336  0.3097 -0.2428
15110TIP3    H166821   6.322   2.192  12.525  0.3310 -0.9831 -0.2698
15110TIP3    H266822   6.423   2.129  12.431  0.0872  0.4874 -1.5449
15111TIP3   OH266823   1.713   1.575   1.408 -0.8601 -0.0305  0.2169
15111TIP3    H166824   1.648   1.509   1.431 -1.3039  0.0075 -0.9038
15111TIP3    H266825   1.662   1.653   1.384 -0.4062 -0.0398 -0.7882
15112TIP3   OH266826   0.331   6.581  11.001  0.5830 -0.5195 -0.0054
15112TIP3    H166827   0.364   6.630  10.926  1.5910 -1.4221 -0.1777
15112TIP3    H266828   0.326   6.490  10.970 -0.9703 -0.6047  0.3903
15113TIP3   OH266829   2.340   1.540   4.236  0.3409  0.2792 -0.1931
15113TIP3    H166830   2.366   1.617   4.185 -1.2238 -0.6281 -2.5658
15113TIP3    H266831   2.327   1.472   4.171  0.2167 -1.5967  1.6908
15114TIP3   OH266832   2.515   0.329   0.494 -0.1807 -0.4951  0.3826
15114TIP3    H166833   2.421   0.329   0.510 -0.2448 -0.5417  0.0088
15114TIP3    H266834   2.524   0.313   0.400  0.1379  1.0840  0.1128
15115TIP3   OH266835   1.023   1.446  16.788 -0.7664 -0.6107 -0.3300
15115TIP3    H166836   0.931   1.441  16.762 -1.0863 -1.6554  0.9405
15115TIP3    H266837   1.070   1.403  16.716 -0.6400  3.9990 -3.4424
15116TIP3   OH266838   0.034   4.998  10.983  0.3199  0.7957 -0.3626
15116TIP3    H166839  -0.028   5.071  10.984 -1.1191 -0.3663  1.1583
15116TIP3    H266840   0.048   4.979  10.890 -0.0605  2.3451 -0.7568
15117TIP3   OH266841   3.609   1.897   1.288  0.3854 -0.1651 -0.7264
15117TIP3    H166842   3.687   1.843   1.299  0.0234 -0.2570  2.8591
15117TIP3    H266843   3.643   1.987   1.288  0.5770 -0.2240  0.2343
15118TIP3   OH266844   6.434   3.886  15.472 -0.1117 -0.2602 -0.2413
15118TIP3    H166845   6.413   3.911  15.562 -1.4713  0.2924 -0.6751
15118TIP3    H266846   6.349   3.873  15.430  0.5023 -1.5932 -1.1722
15119TIP3   OH266847   5.538   3.092  13.370  0.1633 -0.1098  0.3441
15119TIP3    H166848   5.530   3.060  13.460  0.4908  0.5863  0.6318
15119TIP3    H266849   5.621   3.140  13.370  0.5419 -0.7468 -0.5339
15120TIP3   OH266850   4.456   5.720   3.306  0.2209 -0.2567  0.4235
15120TIP3    H166851   4.525   5.750   3.365  3.9224  0.3637 -3.7029
15120TIP3    H266852   4.474   5.626   3.295  1.3777  0.1207 -1.5328
15121TIP3   OH266853   1.364   4.520  14.976  0.1207  0.0852 -0.6869
15121TIP3    H166854   1.365   4.438  15.026 -2.5955  0.2373 -0.2247
15121TIP3    H266855   1.447   4.520  14.929  1.0266 -2.0105  0.7332
15122TIP3   OH266856   6.572   2.604   6.509 -0.1652  0.0312  0.0942
15122TIP3    H166857   6.589   2.518   6.547 -0.1843  1.2712  3.1992
15122TIP3    H266858   6.651   2.655   6.528 -1.3930  1.5823  1.2929
15123TIP3   OH266859   1.462   1.879  15.368  0.4516 -0.6025 -0.0772
15123TIP3    H166860   1.511   1.813  15.418 -0.0098 -0.6867  0.2677
15123TIP3    H266861   1.516   1.957  15.372  0.6987 -0.7780  0.0518
15124TIP3   OH266862   3.947   6.528  16.184  0.8052  0.1472 -0.6317
15124TIP3    H166863   3.953   6.442  16.143 -0.5188 -0.3327  0.1129
15124TIP3    H266864   4.030   6.539  16.230  0.1833 -1.6866  1.0456
15125TIP3   OH266865   3.527   4.112  13.630  0.4035  0.9713  0.4945
15125TIP3    H166866   3.556   4.057  13.556  0.4907 -0.5636  1.6249
15125TIP3    H266867   3.608   4.136  13.675  0.1942 -0.8103  1.9226
15126TIP3   OH266868   0.040   4.040  16.597  0.6490  0.1727 -0.1453
15126TIP3    H166869   0.043   4.011  16.688 -0.0801 -1.0596 -0.4875
15126TIP3    H266870   0.101   3.983  16.551  0.0375 -0.1071 -0.6368
15127TIP3   OH266871   1.508   5.242  13.470 -0.5134 -0.1322 -0.4240
15127TIP3    H166872   1.566   5.315  13.449  0.8194 -1.2439 -0.7732
15127TIP3    H266873   1.425   5.283  13.496 -0.1715  1.4607 -1.6975
15128TIP3   OH266874   0.439   3.633   3.431  0.3089  0.5983 -0.5123
15128TIP3    H166875   0.394   3.716   3.447  0.9841  1.0257 -0.8141
15128TIP3    H266876   0.468   3.639   3.340 -0.9368 -0.5949 -1.0297
15129TIP3   OH266877   6.463   0.670   2.069 -0.1517 -0.0618 -0.0506
15129TIP3    H166878   6.401   0.632   2.131 -0.8505  1.1099 -0.0214
15129TIP3    H266879   6.409   0.717   2.006  0.6622  0.3438 -0.4618
15130TIP3   OH266880   0.022   2.776   3.736 -0.4607  0.2536  0.5602
15130TIP3    H166881   0.093   2.839   3.750  0.2098  0.6931 -3.5880
15130TIP3    H266882   0.054   2.695   3.775  2.7511  0.2683 -1.6300
15131TIP3   OH266883   3.766   0.011  14.718 -0.4208  0.2124  0.0156
15131TIP3    H166884   3.812  -0.042  14.653 -0.3508  0.4439 -0.1236
15131TIP3    H266885   3.709  -0.052  14.764  1.7722 -0.5874  1.8498
15132TIP3   OH266886   0.158   1.480  12.389 -0.3646  0.1649 -0.2101
15132TIP3    H166887   0.155   1.541  12.463  0.6457 -2.3104  2.0450
15132TIP3    H266888   0.233   1.510  12.337  0.9252  0.1858  1.5395
15133TIP3   OH266889   6.166   2.582   3.508  0.0223 -0.0476  0.1372
15133TIP3    H166890   6.161   2.510   3.446  1.2602 -1.1189  1.2443
15133TIP3    H266891   6.156   2.541   3.594 -2.5361  1.4929  0.6914
15134TIP3   OH266892   5.385   4.951   5.238 -0.3920 -0.1950 -0.1407
15134TIP3    H166893   5.346   5.008   5.304 -2.8588 -1.4765 -0.3728
15134TIP3    H266894   5.313   4.895   5.210  1.0757 -1.0172 -2.5038
15135TIP3   OH266895   6.711   4.809   0.483  0.0005 -0.3557 -0.0482
15135TIP3    H166896   6.620   4.817   0.455  0.0354 -0.6444 -0.2488
15135TIP3    H266897   6.715   4.723   0.526  0.3171 -0.6218 -0.5907
15136TIP3   OH266898   0.473   5.600   1.989  0.4126 -0.7213 -0.1176
15136TIP3    H166899   0.429   5.684   2.005  1.0174 -0.8462  2.7935
15136TIP3    H266900   0.402   5.536   1.984 -0.0191 -0.1536 -1.7610
15137TIP3   OH266901   0.116   6.194  14.868 -0.4720  0.6823  0.3666
15137TIP3    H166902   0.094   6.236  14.785 -0.0617 -0.4134 -0.3265
15137TIP3    H266903   0.055   6.121  14.875 -0.1081  0.4048  0.7311
15138TIP3   OH266904   5.743   6.480  15.269  0.0335  0.4430  0.3615
15138TIP3    H166905   5.775   6.399  15.309 -1.6867  0.4898  1.9299
15138TIP3    H266906   5.734   6.542  15.341 -1.7456  1.0085 -0.2911
15139TIP3   OH266907   5.660   6.254  14.543 -0.0942  0.0147 -0.1282
15139TIP3    H166908   5.655   6.197  14.619  0.3094 -0.0407 -0.1452
15139TIP3    H266909   5.592   6.321  14.559  0.3049  0.2744  0.5020
15140TIP3   OH266910   5.625   2.649  11.432  0.3075  0.0884 -0.0453
15140TIP3    H166911   5.636   2.554  11.428  0.3199  0.1254 -1.5979
15140TIP3    H266912   5.709   2.682  11.462  0.6164 -0.3375 -0.4310
15141TIP3   OH266913   1.649   2.205  16.256  0.0614  0.3608 -0.7067
15141TIP3    H166914   1.608   2.292  16.262  0.3925  0.4951 -0.3632
15141TIP3    H266915   1.631   2.177  16.166  0.1364  0.8775 -0.8911
15142TIP3   OH266916   0.179   1.610  14.060  0.3702  0.4653 -0.0655
15142TIP3    H166917   0.171   1.582  13.969 -1.1175  0.4755  0.0295
15142TIP3    H266918   0.221   1.537  14.105 -2.9334 -1.5360  0.0844
15143TIP3   OH266919   5.367   1.679  16.010  0.0641  0.1083  0.3648
15143TIP3    H166920   5.352   1.603  15.954 -1.0749 -0.2761  1.1558
15143TIP3    H266921   5.281   1.698  16.047  0.6453  0.8417  1.3669
15144TIP3   OH266922   6.100   5.890  13.658 -0.1795  0.6227 -0.5837
15144TIP3    H166923   6.101   5.938  13.576  1.8721  1.3738 -0.2043
15144TIP3    H266924   6.192   5.891  13.687 -0.5342 -1.2062  0.7941
15145TIP3   OH266925   4.375   6.554  15.616 -0.2644 -0.4495  0.3986
15145TIP3    H166926   4.383   6.539  15.711  0.6207 -1.2248  0.2136
15145TIP3    H266927   4.293   6.602  15.607  0.0822  0.4482  1.6523
15146TIP3   OH266928   2.421   4.781   3.122  0.3065  0.7715  0.0130
15146TIP3    H166929   2.383   4.694   3.137  1.9685 -0.0074 -0.0801
15146TIP3    H266930   2.352   4.830   3.078 -0.4303 -0.7169 -0.5622
15147TIP3   OH266931   6.205   3.610  12.141 -0.3043 -0.2844  0.7505
15147TIP3    H166932   6.205   3.667  12.064 -1.5837 -2.2537 -0.8041
15147TIP3    H266933   6.114   3.608  12.170 -0.3388 -1.7548  0.5909
15148TIP3   OH266934   6.577   5.541  14.086 -0.8535  0.1892 -0.3305
15148TIP3    H166935   6.523   5.576  14.015 -0.4278  2.8926  0.5797
15148TIP3    H266936   6.552   5.592  14.163  0.9626 -0.4788  0.7714
15149TIP3   OH266937   2.138   0.642  11.865 -0.0375  0.1379 -0.3918
15149TIP3    H166938   2.062   0.591  11.893 -0.2592  1.0736  0.7743
15149TIP3    H266939   2.139   0.717  11.923  1.3542  0.5324 -0.8937
15150TIP3   OH266940   1.430   4.309  10.303 -0.2550 -0.2529  0.0513
15150TIP3    H166941   1.505   4.293  10.360 -1.0472 -0.2401  1.1300
15150TIP3    H266942   1.465   4.362  10.232  0.7475 -0.2192  0.5516
15151TIP3   OH266943   3.021   1.096  13.222  0.5202 -0.4468  0.5763
15151TIP3    H166944   2.980   1.011  13.240  0.1437 -0.5543 -0.6450
15151TIP3    H266945   3.090   1.104  13.287 -0.7615 -0.7530  2.0277
15152TIP3   OH266946   2.906   5.733   0.827  0.5341  0.3386  0.3002
15152TIP3    H166947   2.816   5.729   0.794  0.2872 -1.4100  1.1122
15152TIP3    H266948   2.945   5.807   0.780 -1.2588  1.0036 -0.2088
15153TIP3   OH266949   5.495   5.445   5.717 -0.4333  0.6562  0.6399
15153TIP3    H166950   5.546   5.387   5.773  0.9594  0.8461 -0.3705
15153TIP3    H266951   5.487   5.399   5.634  1.9661  2.3826 -0.6894
15154TIP3   OH266952   1.379   2.754   5.630 -0.3365 -0.1511  0.1765
15154TIP3    H166953   1.347   2.710   5.709 -1.5919  0.6625  0.1480
15154TIP3    H266954   1.301   2.764   5.575  0.5901 -1.1460 -1.4044
15155TIP3   OH266955   2.695   6.573  12.160  0.1915 -0.5279 -0.4148
15155TIP3    H166956   2.749   6.639  12.118 -2.9945  2.2567 -0.6128
15155TIP3    H266957   2.686   6.504  12.095  1.0673  0.3420 -1.5102
15156TIP3   OH266958   5.358   6.311   3.933  0.0729  0.3358  0.3038
15156TIP3    H166959   5.273   6.353   3.926 -0.8675 -1.4774  0.3951
15156TIP3    H266960   5.340   6.225   3.970  2.0021  0.0711  0.7378
15157TIP3   OH266961   0.486   5.129   2.229 -0.4921  0.6500  0.3925
15157TIP3    H166962   0.537   5.070   2.173 -0.0588 -0.5039  1.9364
15157TIP3    H266963   0.545   5.202   2.247 -0.6281  1.0280 -0.5909
15158TIP3   OH266964   5.798   0.832  13.120 -0.1822  0.6344  0.2506
15158TIP3    H166965   5.730   0.899  13.125  0.2391  1.0955 -0.1254
15158TIP3    H266966   5.756   0.760  13.072  0.1515  1.6511 -1.6892
15159TIP3   OH266967   5.546   3.341  14.362 -0.1044 -0.1760 -0.1593
15159TIP3    H166968   5.515   3.371  14.277  0.3051  1.2087  0.1607
15159TIP3    H266969   5.478   3.367  14.424 -0.0661 -0.5380  0.0443
15160TIP3   OH266970   6.531   1.950   1.273 -0.1938 -0.2435  0.1154
15160TIP3    H166971   6.466   1.883   1.293  1.9171 -2.2237  0.6650
15160TIP3    H266972   6.598   1.942   1.341  1.7521  0.1776 -1.6264
15161TIP3   OH266973   6.640   5.259  12.253  0.4317  0.6582  0.1353
15161TIP3    H166974   6.606   5.258  12.164  1.8431  0.1326 -0.4207
15161TIP3    H266975   6.719   5.313  12.249 -0.2751  1.8573  1.3888
15162TIP3   OH266976   4.221   3.485   1.637 -0.2150  0.1427  0.4805
15162TIP3    H166977   4.185   3.570   1.611 -0.8970 -0.1558  0.4328
15162TIP3    H266978   4.157   3.449   1.698  0.5034  0.0505  1.1967
15163TIP3   OH266979   0.771   1.317  15.887 -0.0410  0.0492 -0.2235
15163TIP3    H166980   0.854   1.340  15.846  0.2512 -1.3145 -0.4510
15163TIP3    H266981   0.776   1.354  15.976  0.7422  0.0899 -0.2841
15164TIP3   OH266982   5.960   5.364  16.543  0.5843  0.2113 -0.0767
15164TIP3    H166983   5.952   5.458  16.530 -0.8435 -0.0582 -1.3359
15164TIP3    H266984   6.039   5.340  16.495  0.3801  0.6122 -0.6128
15165TIP3   OH266985   6.029   3.258  14.572  0.2264 -0.7169  0.4955
15165TIP3    H166986   6.109   3.210  14.551  1.0629  0.8772 -0.1676
15165TIP3    H266987   6.043   3.345  14.533 -1.5986 -0.2306  0.8536
15166TIP3   OH266988   2.111   6.309   3.013 -0.1573 -0.0044  0.0526
15166TIP3    H166989   2.065   6.273   2.937 -0.4133  2.5383 -1.0743
15166TIP3    H266990   2.042   6.328   3.076 -0.6878  2.8084 -1.2231
15167TIP3   OH266991   0.348   6.403   3.400 -0.0878 -0.1511 -0.6241
15167TIP3    H166992   0.443   6.399   3.409 -0.2524 -0.5271  1.2732
15167TIP3    H266993   0.319   6.313   3.414 -0.7924  0.1092 -0.3667
15168TIP3   OH266994   5.702   3.395   0.100 -0.4424  0.0286  0.1837
15168TIP3    H166995   5.643   3.370   0.029 -2.0525  1.1651  1.0529
15168TIP3    H266996   5.783   3.421   0.057 -1.5129  1.0836 -1.2895
15169TIP3   OH266997   0.555   6.769  15.220  0.0038 -0.1481 -0.0961
15169TIP3    H166998   0.608   6.778  15.141  0.0302  0.2243 -0.0371
15169TIP3    H266999   0.530   6.858  15.243 -0.5637 -0.3094 -0.0645
15170TIP3   OH267000   1.887   0.190  12.341 -0.3695  0.1523 -0.5988
15170TIP3    H167001   1.904   0.157  12.430  0.2799  0.1127 -0.7280
15170TIP3    H267002   1.945   0.137  12.285 -2.5484 -1.5499 -1.3853
15171TIP3   OH267003   6.509   5.949   6.130  0.4211 -0.0363 -0.6666
15171TIP3    H167004   6.515   6.010   6.204  0.5334 -1.2870  0.4083
15171TIP3    H267005   6.423   5.908   6.140  1.4075 -2.0353  0.3240
15172TIP3   OH267006   6.177   5.267   5.713  0.1610  0.4479  0.7766
15172TIP3    H167007   6.111   5.199   5.718  2.3109 -1.7410  0.9920
15172TIP3    H267008   6.157   5.314   5.632 -0.4267 -1.4865 -0.2479
15173TIP3   OH267009   5.205   1.636   1.808  0.0194  0.0516  0.6042
15173TIP3    H167010   5.169   1.593   1.731 -1.0574 -0.1295  1.1966
15173TIP3    H267011   5.293   1.599   1.817 -0.5328 -1.3386  0.5567
15174TIP3   OH267012   2.846   1.512  13.234 -0.0715 -0.2991 -0.0922
15174TIP3    H167013   2.840   1.433  13.287 -2.1389 -0.4693 -0.5026
15174TIP3    H267014   2.825   1.583  13.295 -3.2161 -0.5546 -0.6844
15175TIP3   OH267015   2.806   0.508   2.702 -0.2350  0.3736  0.5732
15175TIP3    H167016   2.862   0.532   2.775 -0.5220 -1.3349  1.4114
15175TIP3    H267017   2.816   0.413   2.695 -2.1195  0.1754 -0.0122
15176TIP3   OH267018   4.773   1.837   5.653  0.3625 -0.1343  0.4432
15176TIP3    H167019   4.859   1.843   5.612  0.0941  1.1973  0.0273
15176TIP3    H267020   4.791   1.843   5.747  0.9203 -2.5457  0.5696
15177TIP3   OH267021   5.180   6.154  16.972 -0.8591  0.6482  0.0587
15177TIP3    H167022   5.220   6.240  16.987  1.8720 -0.3861 -0.6414
15177TIP3    H267023   5.110   6.170  16.910  0.3971  2.2286 -1.0249
15178TIP3   OH267024   1.992   2.502  13.376  0.3497  0.0293 -0.0302
15178TIP3    H167025   1.965   2.410  13.379  0.5852 -0.0151  0.9186
15178TIP3    H267026   1.977   2.534  13.465 -1.6270  1.4518 -0.8083
15179TIP3   OH267027   0.271   3.703  14.163 -0.0356  0.0378 -0.1197
15179TIP3    H167028   0.225   3.638  14.111  1.0758  0.2638 -1.4364
15179TIP3    H267029   0.341   3.655  14.206 -0.4301  0.0121  0.5096
15180TIP3   OH267030   3.836   0.322   2.001 -0.9584 -0.3121 -0.2994
15180TIP3    H167031   3.912   0.370   2.033 -0.3800 -0.9503 -0.6975
15180TIP3    H267032   3.830   0.345   1.908 -0.0105 -1.8175 -0.7781
15181TIP3   OH267033   2.649   5.459  13.827  0.3202  0.1669 -0.1344
15181TIP3    H167034   2.692   5.455  13.742  1.4415 -0.4506  0.4384
15181TIP3    H267035   2.667   5.547  13.859  0.1010  0.3195 -0.4336
15182TIP3   OH267036   1.578   2.779  12.371 -0.2102  0.1486 -0.0337
15182TIP3    H167037   1.572   2.684  12.379 -0.2124  0.1236 -0.3292
15182TIP3    H267038   1.584   2.810  12.461  2.0431 -0.2829  0.0200
15183TIP3   OH267039   6.373   6.602  10.989  0.0842  0.0900  0.5285
15183TIP3    H167040   6.306   6.666  11.014  1.5250  2.7689 -1.9483
15183TIP3    H267041   6.324   6.523  10.970 -2.1164  1.2563  0.9942
15184TIP3   OH267042   2.792   3.754   3.218  0.3651  0.2559  0.0294
15184TIP3    H167043   2.705   3.720   3.237  0.3720  0.0846 -0.2368
15184TIP3    H267044   2.828   3.693   3.153  0.9665 -0.0970  0.6744
15185TIP3   OH267045   2.632   3.317   4.276 -0.1424  0.0827  0.8610
15185TIP3    H167046   2.558   3.360   4.320 -0.8985  0.6825 -0.9017
15185TIP3    H267047   2.645   3.368   4.196 -0.8884 -2.7154 -1.2130
15186TIP3   OH267048   5.385   4.188   6.206  0.3414 -0.4821  1.5128
15186TIP3    H167049   5.398   4.251   6.136 -0.3619 -1.7500  0.1975
15186TIP3    H267050   5.387   4.240   6.286 -3.1055  1.6808  0.3707
15187TIP3   OH267051   5.795   6.337   3.111 -0.1400  0.2112 -0.1243
15187TIP3    H167052   5.740   6.283   3.054  0.0937  0.3257 -0.4658
15187TIP3    H267053   5.800   6.289   3.193  2.1834 -1.6261 -1.2217
15188TIP3   OH267054   1.751   0.432   4.501 -0.0573  0.2863  0.6326
15188TIP3    H167055   1.786   0.516   4.471 -0.8919  0.6207  0.5463
15188TIP3    H267056   1.659   0.451   4.521 -0.4904 -0.7830 -0.2115
15189TIP3   OH267057   3.212   0.569   2.573 -0.2489 -0.4812  0.1043
15189TIP3    H167058   3.196   0.561   2.479 -0.0532  1.0247 -0.0819
15189TIP3    H267059   3.160   0.499   2.612 -1.7482 -0.0482 -1.0032
15190TIP3   OH267060   1.735   4.527   2.888  0.1267  0.0564 -0.5425
15190TIP3    H167061   1.700   4.451   2.841  2.2639 -1.7638  0.6527
15190TIP3    H267062   1.695   4.522   2.975  1.7909 -0.9499  0.2092
15191TIP3   OH267063   1.276   4.022  16.742 -0.4880 -0.0742  0.0389
15191TIP3    H167064   1.256   3.987  16.828  3.2015 -0.4525  0.8989
15191TIP3    H267065   1.227   4.105  16.738  1.5432  1.5676  3.8827
15192TIP3   OH267066   4.999   3.041  15.086 -0.1445 -0.3114 -0.1994
15192TIP3    H167067   5.087   3.011  15.067 -0.0077 -0.8222  1.1327
15192TIP3    H267068   4.995   3.046  15.181 -1.4806 -0.0836 -0.2419
15193TIP3   OH267069   6.130   2.851  14.576 -0.4176 -0.0397 -0.5234
15193TIP3    H167070   6.216   2.840  14.617 -0.6691 -0.6862 -0.1637
15193TIP3    H267071   6.080   2.903  14.638 -0.0665  0.9482 -1.0513
15194TIP3   OH267072   5.998   0.966  13.042  0.2969 -0.5411 -0.1952
15194TIP3    H167073   6.079   0.916  13.035 -0.8161 -2.3328 -0.8969
15194TIP3    H267074   5.935   0.906  13.081 -1.6674 -0.5104 -2.9719
15195TIP3   OH267075   1.297   4.072   2.042  0.4430 -0.2793 -0.2847
15195TIP3    H167076   1.258   4.090   2.127  0.0220  0.0372 -0.5439
15195TIP3    H267077   1.374   4.129   2.039  0.5881 -0.4610 -0.0204
15196TIP3   OH267078   0.937   5.125  12.424 -0.4153  0.8725 -0.4451
15196TIP3    H167079   0.965   5.215  12.438 -0.5816  0.9419 -0.5436
15196TIP3    H267080   0.981   5.099  12.342  0.7599  0.3793  0.3212
15197TIP3   OH267081   3.895   0.581  11.025 -0.0894  0.1244 -0.0215
15197TIP3    H167082   3.877   0.650  10.962 -1.7285 -0.2504  0.0012
15197TIP3    H267083   3.822   0.584  11.087  0.5824 -0.6537  0.8526
15198TIP3   OH267084   2.094   4.197   3.402 -0.1541  0.8073 -0.0633
15198TIP3    H167085   2.048   4.204   3.486  0.5661  0.8605  0.3295
15198TIP3    H267086   2.069   4.110   3.369 -0.3843  0.7542  0.2413
15199TIP3   OH267087   1.048   3.335   0.272 -0.1208  0.2043 -0.5323
15199TIP3    H167088   1.065   3.370   0.185  0.9423  1.5784  0.1896
15199TIP3    H267089   1.127   3.285   0.294 -0.0304  0.5591 -0.0331
15200TIP3   OH267090   5.575   1.217  13.882 -0.7378  0.2583  0.2832
15200TIP3    H167091   5.501   1.213  13.942  0.3494  2.5971  1.9544
15200TIP3    H267092   5.582   1.310  13.860  1.7787  0.1470  0.3650
15201TIP3   OH267093   2.982   2.753  13.663 -0.1639  0.4097 -0.1448
15201TIP3    H167094   2.936   2.826  13.623  0.3088 -0.2697 -2.0731
15201TIP3    H267095   3.027   2.711  13.590 -1.3305 -2.4911  0.6591
15202TIP3   OH267096   6.086   5.784  16.780  0.0732 -0.3999 -0.8320
15202TIP3    H167097   5.998   5.778  16.743 -0.3295  2.4453 -0.5728
15202TIP3    H267098   6.114   5.874  16.761  1.9384 -0.4548  1.2266
15203TIP3   OH267099   1.711   2.206   4.461  0.1800 -0.0719 -0.0883
15203TIP3    H167100   1.738   2.115   4.476  1.9464  0.3645 -0.4340
15203TIP3    H267101   1.704   2.243   4.549  1.6530  0.0355  0.0088
15204TIP3   OH267102   6.224   1.846  14.783 -0.3242  0.3082  0.0947
15204TIP3    H167103   6.186   1.885  14.705  0.1107  1.6686  0.5297
15204TIP3    H267104   6.317   1.836  14.762  0.0929  2.0595  0.9086
15205TIP3   OH267105   5.729   6.575   4.505 -0.3369  0.1538 -0.1608
15205TIP3    H167106   5.730   6.484   4.535 -2.8450 -0.1086 -0.6479
15205TIP3    H267107   5.732   6.626   4.586  0.5505 -0.3353  0.1381
15206TIP3   OH267108   2.536   2.431   4.990  0.5291  0.7423  0.4071
15206TIP3    H167109   2.469   2.471   5.046  0.4885  0.2247  0.7375
15206TIP3    H267110   2.602   2.399   5.052  1.1827  1.4155  0.0748
15207TIP3   OH267111   3.359   3.032  15.359 -1.0750 -0.1923  0.8303
15207TIP3    H167112   3.341   2.938  15.351 -2.7644 -0.0266  2.0540
15207TIP3    H267113   3.357   3.065  15.269 -2.0684 -1.0723  0.5133
15208TIP3   OH267114   0.608   4.720   3.758  0.1475 -0.4423 -0.1927
15208TIP3    H167115   0.612   4.813   3.779  0.7721 -0.8223  1.5502
15208TIP3    H267116   0.516   4.696   3.770 -0.3976  0.2933 -2.4602
15209TIP3   OH267117   4.747   1.968  11.518 -0.2396  0.3134 -1.0123
15209TIP3    H167118   4.735   2.009  11.603 -0.9012  1.1431 -1.4848
15209TIP3    H267119   4.778   2.039  11.462  0.5023 -0.2958 -1.3915
15210TIP3   OH267120   1.853   4.822   1.494 -0.3183  0.2767 -0.4872
15210TIP3    H167121   1.858   4.902   1.547 -2.1428  1.0929 -1.4566
15210TIP3    H267122   1.936   4.776   1.512  0.0289  1.5265  1.4128
15211TIP3   OH267123   1.310   0.812   4.390 -0.0803 -0.2807  0.0270
15211TIP3    H167124   1.237   0.766   4.430  0.5707 -0.7307  0.7318
15211TIP3    H267125   1.288   0.817   4.297  0.0239 -2.4348 -0.1573
15212TIP3   OH267126   6.389   5.206   2.609  0.0871 -0.3387  0.3694
15212TIP3    H167127   6.438   5.161   2.540 -0.0618  2.1745 -1.5045
15212TIP3    H267128   6.456   5.253   2.659 -0.0078 -0.5656  0.7175
15213TIP3   OH267129   0.506   3.449  15.142  0.1618  0.4842 -0.4051
15213TIP3    H167130   0.602   3.450  15.134  0.1059 -0.5079 -1.4439
15213TIP3    H267131   0.489   3.385  15.211  0.1994 -1.1546 -1.8432
15214TIP3   OH267132   1.488   2.752   3.122  0.3387  0.1012 -0.7892
15214TIP3    H167133   1.464   2.692   3.194  1.1868 -0.2087 -0.7553
15214TIP3    H267134   1.456   2.837   3.151  0.8475  0.0203  0.0601
15215TIP3   OH267135   6.680   0.524   3.375  0.7698  0.0979 -0.2374
15215TIP3    H167136   6.613   0.578   3.332 -0.8914 -0.7663  1.1392
15215TIP3    H267137   6.701   0.458   3.309  0.4558  0.5213 -0.7840
15216TIP3   OH267138   0.409   2.508  13.741 -0.1353 -0.0157 -0.0318
15216TIP3    H167139   0.377   2.421  13.763 -0.7106  0.3710  0.7369
15216TIP3    H267140   0.338   2.547  13.689 -0.5181  0.4909  0.8399
15217TIP3   OH267141   3.871   2.154  16.059 -0.2590  0.0371  0.5330
15217TIP3    H167142   3.789   2.150  16.009  0.4867  2.1231 -1.0227
15217TIP3    H267143   3.876   2.245  16.089  1.7928  0.1494 -0.0171
15218TIP3   OH267144   2.955   4.635   4.931  0.1894 -0.1962  0.3580
15218TIP3    H167145   2.919   4.659   5.016 -0.0047 -0.2247  0.2857
15218TIP3    H267146   2.938   4.711   4.875 -0.7590 -0.6329  0.0317
15219TIP3   OH267147   0.011   1.402  14.704 -0.4081 -0.6463  0.3536
15219TIP3    H167148  -0.017   1.408  14.613 -1.4760 -0.7217  0.6595
15219TIP3    H267149  -0.022   1.316  14.734  1.3507 -1.3528  0.3571
15220TIP3   OH267150   1.048   1.325  16.524  0.7101 -0.5823  0.4958
15220TIP3    H167151   1.008   1.399  16.478  1.3860 -0.6903 -0.2900
15220TIP3    H267152   0.984   1.255  16.517  0.5828 -0.4365  0.1704
15221TIP3   OH267153   5.369   4.814  16.292 -0.0485  0.0058 -0.4880
15221TIP3    H167154   5.343   4.882  16.354  0.6189 -1.5393  1.6107
15221TIP3    H267155   5.464   4.807  16.304 -0.1433 -1.4730 -0.4150
15222TIP3   OH267156   0.575   1.947   6.228  0.0720 -0.4245 -0.6903
15222TIP3    H167157   0.531   2.017   6.276 -0.7137 -2.1627  1.2679
15222TIP3    H267158   0.505   1.898   6.186  0.5654 -0.3432 -1.6223
15223TIP3   OH267159   0.938   2.621   4.116 -0.7327  0.0288  0.3293
15223TIP3    H167160   0.862   2.564   4.120 -1.9645  1.5823  0.1612
15223TIP3    H267161   0.974   2.619   4.205 -0.9393 -0.7630  0.3989
15224TIP3   OH267162   0.836   5.051   3.045 -0.4443  0.4350 -0.0315
15224TIP3    H167163   0.862   5.075   2.956  0.4868  1.4360  0.4811
15224TIP3    H267164   0.799   5.131   3.081  1.3341  0.7479  1.2269
15225TIP3   OH267165   2.661   1.509   1.698  0.2813  0.4598  0.0198
15225TIP3    H167166   2.665   1.487   1.604  0.3335  0.4257  0.0300
15225TIP3    H267167   2.589   1.456   1.731 -0.8101  1.6884 -0.3295
15226TIP3   OH267168   1.541   4.068  16.762  0.1496  0.1093  0.2661
15226TIP3    H167169   1.526   4.050  16.854 -0.2859  1.2304  0.4272
15226TIP3    H267170   1.461   4.040  16.718 -0.4215  1.3377  0.4841
15227TIP3   OH267171   3.924   0.173   2.240  0.3729  0.0193 -0.2861
15227TIP3    H167172   3.857   0.163   2.308  2.5238  0.9353  2.1883
15227TIP3    H267173   3.903   0.257   2.199  0.4863  0.8077  1.1624
15228TIP3   OH267174   1.430   3.078  13.523 -0.6266  0.6131  0.0621
15228TIP3    H167175   1.473   3.163  13.522 -1.3234  0.9756  0.2983
15228TIP3    H267176   1.415   3.060  13.616 -0.4808  0.2250  0.0149
15229TIP3   OH267177   3.378   2.104   1.181 -0.3672  0.0073 -0.0214
15229TIP3    H167178   3.292   2.095   1.220 -0.0617 -2.5828  0.2443
15229TIP3    H267179   3.410   2.014   1.172  2.5238  0.8792  0.3695
15230TIP3   OH267180   6.501   1.486   5.788 -0.5089 -0.5223  0.2881
15230TIP3    H167181   6.433   1.520   5.729 -0.2065 -0.5960 -0.1050
15230TIP3    H267182   6.485   1.391   5.792 -0.2074 -0.5895 -0.0910
15231TIP3   OH267183   2.313   2.711   4.632 -0.0801 -0.4942  0.0148
15231TIP3    H167184   2.228   2.666   4.626 -0.6912  0.6573 -0.4788
15231TIP3    H267185   2.351   2.701   4.545 -0.7244  0.8235 -0.4570
15232TIP3   OH267186   2.818   4.053   0.530  0.3589 -0.4943  0.0578
15232TIP3    H167187   2.820   4.082   0.439 -0.5945 -0.3991  0.0555
15232TIP3    H267188   2.887   3.987   0.536 -0.8115 -1.9106 -1.2244
15233TIP3   OH267189   5.143   3.677   0.173  0.1188 -0.1803 -0.5467
15233TIP3    H167190   5.135   3.744   0.106  0.7285 -0.0618 -0.5112
15233TIP3    H267191   5.190   3.606   0.130 -1.4156 -1.0184 -0.8857
15234TIP3   OH267192   4.872   1.686   3.632  0.4716 -0.4569  0.6000
15234TIP3    H167193   4.935   1.667   3.702  0.9377  3.8012  1.6513
15234TIP3    H267194   4.805   1.740   3.675  0.3883  1.6969 -1.9822
15235TIP3   OH267195   2.728   3.571   5.773  1.1385  0.7047 -0.3310
15235TIP3    H167196   2.809   3.564   5.825  1.0835  0.4933 -0.2727
15235TIP3    H267197   2.757   3.559   5.683  1.1384  0.3721 -0.2884
15236TIP3   OH267198   3.922   5.358  11.462 -0.2526 -0.4298  0.5020
15236TIP3    H167199   3.835   5.336  11.495 -1.4574  1.1517 -1.4352
15236TIP3    H267200   3.908   5.435  11.408  2.9350  2.2574  3.1038
15237TIP3   OH267201   3.276   4.257   5.745  0.2134 -0.6126  0.0051
15237TIP3    H167202   3.213   4.266   5.816  0.6666 -1.8352  0.6015
15237TIP3    H267203   3.265   4.167   5.715 -1.0402  0.2962 -2.5458
15238TIP3   OH267204   2.745   0.509  13.435  0.7106  0.6427 -0.2638
15238TIP3    H167205   2.815   0.503  13.500  1.2674  1.7985 -0.7249
15238TIP3    H267206   2.693   0.584  13.463  0.8929  1.0841 -1.0868
15239TIP3   OH267207   0.446   5.483   4.928  0.0653 -0.1891  0.1256
15239TIP3    H167208   0.390   5.493   5.005 -2.7308  0.5107 -1.8554
15239TIP3    H267209   0.466   5.390   4.925 -0.2499 -0.3224  1.3553
15240TIP3   OH267210   4.409   6.249   4.040  0.1572  0.0896 -0.0103
15240TIP3    H167211   4.458   6.292   4.111 -0.7066 -0.8455  1.2076
15240TIP3    H267212   4.326   6.296   4.037 -0.0507 -0.2799  0.0160
15241TIP3   OH267213   3.183   6.649   1.723 -0.0102 -0.7135  0.3109
15241TIP3    H167214   3.198   6.555   1.724  0.9918 -0.6143 -1.5780
15241TIP3    H267215   3.263   6.687   1.760 -0.1542 -0.5685  0.4775
15242TIP3   OH267216   3.750   1.177  15.647  0.4891  0.3992 -0.0562
15242TIP3    H167217   3.698   1.154  15.724 -0.1696  1.0369 -0.2976
15242TIP3    H267218   3.693   1.234  15.596  1.2283  0.6652 -0.6023
15243TIP3   OH267219   1.609   4.254  12.115  0.0516  0.0025 -0.1115
15243TIP3    H167220   1.550   4.328  12.107 -0.3896 -0.3364 -0.0297
15243TIP3    H267221   1.663   4.256  12.036 -0.5168 -0.0744 -0.5027
15244TIP3   OH267222   4.419   1.878   6.625 -0.3682  0.2834  0.3288
15244TIP3    H167223   4.389   1.791   6.650  1.0684 -0.7241 -1.2684
15244TIP3    H267224   4.395   1.887   6.533 -0.3434  1.5119  0.4221
15245TIP3   OH267225   6.650   0.069   0.018 -0.6747  0.1608  0.5391
15245TIP3    H167226   6.690   0.126  -0.048 -0.2101  0.4814  1.0863
15245TIP3    H267227   6.616  -0.005  -0.032  1.5029 -0.6417  0.1248
15246TIP3   OH267228   1.186   6.255   4.419 -0.1848  1.0155  0.6582
15246TIP3    H167229   1.182   6.180   4.360 -1.1502  2.2013 -0.8923
15246TIP3    H267230   1.276   6.288   4.410 -0.3573  1.2598 -0.2888
15247TIP3   OH267231   5.117   0.502  14.325 -0.0755 -0.1664 -0.3528
15247TIP3    H167232   5.055   0.430  14.336  2.3217 -2.2775  0.0146
15247TIP3    H267233   5.061   0.579  14.311 -2.7798 -1.7170  1.1010
15248TIP3   OH267234   4.969   2.560   3.111  0.0073 -0.0939  0.1230
15248TIP3    H167235   4.960   2.469   3.083  0.1689 -0.3664  0.9226
15248TIP3    H267236   5.016   2.555   3.194  0.8438  0.7905 -0.2788
15249TIP3   OH267237   2.348   0.270  14.063 -0.5334  0.3657  0.8365
15249TIP3    H167238   2.337   0.177  14.043 -1.4491  0.4734  0.7968
15249TIP3    H267239   2.360   0.312  13.978  3.1782 -0.0699  0.9957
15250TIP3   OH267240   1.675   3.662   2.499  0.0264  0.1021 -0.1241
15250TIP3    H167241   1.668   3.740   2.555  1.4642 -0.6350  1.1479
15250TIP3    H267242   1.765   3.633   2.509 -0.4520 -1.6925 -0.6348
15251TIP3   OH267243   3.473   3.601   4.675 -0.0281  0.0849  0.2976
15251TIP3    H167244   3.417   3.539   4.722 -0.9168  0.3749 -0.3585
15251TIP3    H267245   3.464   3.577   4.583  0.9272  0.1492  0.1691
15252TIP3   OH267246   2.862   3.190   6.088  0.1536 -0.5000 -0.5095
15252TIP3    H167247   2.943   3.146   6.112 -0.7379 -1.6579  0.5280
15252TIP3    H267248   2.794   3.124   6.101 -1.1593  0.9251  0.3144
15253TIP3   OH267249   1.577   0.602  15.062  0.4038  0.4981  0.1068
15253TIP3    H167250   1.513   0.665  15.095  0.5055  0.3685  0.5549
15253TIP3    H267251   1.622   0.649  14.992 -1.4789 -0.0508 -1.5730
15254TIP3   OH267252   2.244   6.831   2.668  0.4689 -0.5780 -0.8875
15254TIP3    H167253   2.261   6.846   2.761  0.1687 -1.2247 -0.7212
15254TIP3    H267254   2.149   6.816   2.664 -0.1426  2.7113 -1.7470
15255TIP3   OH267255   0.761   2.853   4.471 -0.1428  0.4345 -0.2202
15255TIP3    H167256   0.755   2.798   4.549 -0.5038  0.7662 -0.0076
15255TIP3    H267257   0.699   2.815   4.409  0.5184 -0.1336 -0.5420
15256TIP3   OH267258   1.263   2.191  16.279 -0.0745  0.0927 -0.4078
15256TIP3    H167259   1.329   2.227  16.338 -1.0984 -0.3401  1.0688
15256TIP3    H267260   1.295   2.103  16.258  0.0533  0.0524 -0.0532
15257TIP3   OH267261   5.368   3.588  14.195  0.0753  0.4024  0.0955
15257TIP3    H167262   5.410   3.568  14.112 -1.0019  0.0115 -0.3736
15257TIP3    H267263   5.276   3.602  14.173 -0.2025  0.4159  1.2011
15258TIP3   OH267264   4.545   4.106  11.564 -0.4179 -0.8492 -0.4417
15258TIP3    H167265   4.461   4.146  11.540  0.1079  1.3667  1.0916
15258TIP3    H267266   4.525   4.056  11.644 -0.3546 -0.5717 -0.2493
15259TIP3   OH267267   2.204   3.384   6.174  0.8590  0.1249 -0.2616
15259TIP3    H167268   2.244   3.328   6.240  2.0518 -0.7596 -1.6651
15259TIP3    H267269   2.124   3.338   6.148  0.5375  0.3333  0.3425
15260TIP3   OH267270   2.387   3.712   6.550 -0.2433 -0.0177 -0.6038
15260TIP3    H167271   2.315   3.728   6.610  0.3784 -1.3171  0.5421
15260TIP3    H267272   2.409   3.620   6.562  0.8283  0.0417 -1.8030
15261TIP3   OH267273   3.981   5.748  12.368 -0.5656 -0.2479 -0.1924
15261TIP3    H167274   3.944   5.831  12.397 -1.9287 -1.2835  1.2547
15261TIP3    H267275   3.924   5.719  12.297  0.0837  0.1611 -0.8977
15262TIP3   OH267276   6.210   5.454  11.821 -0.5758  0.2864 -0.0833
15262TIP3    H167277   6.196   5.519  11.752 -0.1857  1.6158  1.0373
15262TIP3    H267278   6.135   5.467  11.881 -0.5243 -0.3397  0.1186
15263TIP3   OH267279   0.970   5.006  13.398  0.1682 -0.0601 -0.4144
15263TIP3    H167280   1.038   5.064  13.430 -0.3822  0.2816  0.1603
15263TIP3    H267281   0.888   5.053  13.414 -0.3839 -1.4824  1.2236
15264TIP3   OH267282   6.209   5.842   2.199  0.0920  0.0619  0.7452
15264TIP3    H167283   6.286   5.786   2.191  0.0898  0.1593  0.0037
15264TIP3    H267284   6.182   5.832   2.290  1.5269  0.7431  1.2754
15265TIP3   OH267285   2.336   6.000  12.235 -0.1228 -0.4344 -0.5376
15265TIP3    H167286   2.261   6.059  12.231 -0.4857 -0.8165  0.3229
15265TIP3    H267287   2.327   5.955  12.319  2.3622  1.2456  0.7577
15266TIP3   OH267288   5.027   0.091  12.469  0.2952 -0.0007  0.2022
15266TIP3    H167289   5.120   0.101  12.491  0.5180  0.4282 -0.8700
15266TIP3    H267290   5.002   0.176  12.433 -0.5526 -0.0774  0.5995
15267TIP3   OH267291   0.514   2.881   6.741  0.2852 -0.0096  0.0292
15267TIP3    H167292   0.437   2.844   6.783  0.4904 -1.3200 -0.7146
15267TIP3    H267293   0.587   2.830   6.775  0.8347  1.1006  0.5848
15268TIP3   OH267294   2.764   0.536   0.838  0.2968 -0.1724  0.3068
15268TIP3    H167295   2.673   0.510   0.856  0.7829 -2.3269 -0.1440
15268TIP3    H267296   2.761   0.632   0.837 -2.3684 -0.1670 -1.6931
15269TIP3   OH267297   5.806   0.170  14.186  0.0121 -0.8713  0.3423
15269TIP3    H167298   5.818   0.248  14.241  1.8831 -0.0307 -1.1366
15269TIP3    H267299   5.725   0.188  14.138  0.0463 -0.1586  0.5309
15270TIP3   OH267300   6.602   2.080  11.046 -0.1126  0.0994 -0.3001
15270TIP3    H167301   6.601   2.144  11.117  0.3076  1.7747 -1.7269
15270TIP3    H267302   6.538   2.113  10.982  1.3109  0.0485 -1.8236
15271TIP3   OH267303   6.308   2.060   5.204 -0.7906  0.2698 -0.3253
15271TIP3    H167304   6.303   2.002   5.280  0.4374  1.4619  0.7258
15271TIP3    H267305   6.344   2.005   5.134  1.3165 -0.0411  0.9191
15272TIP3   OH267306   3.274   2.526  16.606  0.0822 -0.0274  0.1821
15272TIP3    H167307   3.188   2.499  16.574  0.6029  0.6281 -1.9106
15272TIP3    H267308   3.257   2.561  16.693 -1.4795 -1.5515  0.5585
15273TIP3   OH267309   1.958   4.997   5.551 -0.5025  0.3092  0.1431
15273TIP3    H167310   1.872   5.014   5.512 -0.6908 -0.4646  0.2160
15273TIP3    H267311   2.016   4.983   5.476 -0.4185  0.9103  0.0917
15274TIP3   OH267312   2.130   1.505  14.342 -0.0925 -0.0196  0.2196
15274TIP3    H167313   2.036   1.503  14.355 -0.1281 -0.9426 -0.1105
15274TIP3    H267314   2.166   1.538  14.424 -0.6766 -0.0171  0.4742
15275TIP3   OH267315   3.796   1.703  12.839  0.1596 -0.4697 -0.0422
15275TIP3    H167316   3.862   1.719  12.907 -0.1175 -1.0678  0.3765
15275TIP3    H267317   3.820   1.618  12.802 -0.0092 -0.3974 -0.3227
15276TIP3   OH267318   0.118   0.906  11.596  0.4119  0.2883  0.2659
15276TIP3    H167319   0.164   0.831  11.633 -0.0998 -0.3882 -0.4582
15276TIP3    H267320   0.032   0.905  11.638  0.6843  0.9610  0.8636
15277TIP3   OH267321   6.406   0.320  13.884 -0.0976 -0.0183 -0.2345
15277TIP3    H167322   6.450   0.318  13.799  2.7865 -0.9161  1.1445
15277TIP3    H267323   6.398   0.413  13.904 -1.5800  0.2341 -1.7922
15278TIP3   OH267324   5.332   0.055   4.923  0.1330  0.7141  0.4561
15278TIP3    H167325   5.292  -0.022   4.964  0.0024  0.5675  0.0576
15278TIP3    H267326   5.423   0.055   4.953  0.2972  0.0549 -0.0404
15279TIP3   OH267327   1.045   4.047  14.810  0.3176  0.4508  0.3677
15279TIP3    H167328   1.126   4.073  14.767  0.0417 -1.8294 -1.7935
15279TIP3    H267329   1.052   4.082  14.898  2.4670  2.5124 -0.5195
15280TIP3   OH267330   1.914   5.024  10.128  0.7551  0.5426  0.3140
15280TIP3    H167331   1.944   5.109  10.097 -1.2413  0.5754 -1.8529
15280TIP3    H267332   1.836   5.043  10.180 -1.1224  0.0527 -2.1142
15281TIP3   OH267333   1.740   2.545   5.316 -0.0027 -0.4273  0.3713
15281TIP3    H167334   1.661   2.586   5.279  0.6388  0.8052  0.3457
15281TIP3    H267335   1.706   2.479   5.376 -1.0614 -0.5723 -0.3573
15282TIP3   OH267336   0.456   5.588  13.058 -0.1341  0.2230  0.5393
15282TIP3    H167337   0.424   5.558  12.973  0.5459 -1.2216  0.7680
15282TIP3    H267338   0.444   5.513  13.117  2.1498  0.1249  0.9989
15283TIP3   OH267339   0.045   5.171  10.639  0.1692  1.0850  0.2867
15283TIP3    H167340   0.064   5.263  10.624  0.2990  1.1277  0.6849
15283TIP3    H267341   0.131   5.131  10.651  0.0941  0.9819  0.4875
15284TIP3   OH267342   6.172   3.323   1.475 -0.1169 -0.0988 -0.4413
15284TIP3    H167343   6.214   3.240   1.495  0.2179  0.6494  2.3041
15284TIP3    H267344   6.103   3.301   1.412  0.6464 -2.2540 -0.5851
15285TIP3   OH267345   1.771   6.335  16.551 -0.0911 -0.2235 -0.0226
15285TIP3    H167346   1.696   6.395  16.550  0.5319  0.5729  0.2802
15285TIP3    H267347   1.829   6.369  16.619  1.9437  0.9254 -2.1942
15286TIP3   OH267348   0.301   5.473  15.634 -0.5427  0.2148  0.0399
15286TIP3    H167349   0.373   5.410  15.632  0.6422  1.5442 -0.8495
15286TIP3    H267350   0.228   5.428  15.592 -0.2829 -1.1926  1.0293
15287TIP3   OH267351   4.102   6.780  11.352  0.5504 -0.7931  0.0338
15287TIP3    H167352   4.154   6.853  11.385 -0.1583 -0.6680  0.9256
15287TIP3    H267353   4.092   6.798  11.259 -0.8908  1.0831  0.4874
15288TIP3   OH267354   5.454   0.493  12.020  0.6550 -0.0901  0.1503
15288TIP3    H167355   5.513   0.513  11.947  0.1776  1.0564  0.0519
15288TIP3    H267356   5.453   0.573  12.072 -2.3812  0.7098 -0.9658
15289TIP3   OH267357   3.708   5.594   2.044 -1.3959 -0.8363 -0.5305
15289TIP3    H167358   3.766   5.573   1.971 -2.2097 -2.6805 -0.6884
15289TIP3    H267359   3.761   5.652   2.099 -0.2594 -0.5443 -1.8449
15290TIP3   OH267360   0.750   5.743  15.317 -0.7691  0.3183  0.2061
15290TIP3    H167361   0.771   5.813  15.379  1.7964  0.5143 -0.7458
15290TIP3    H267362   0.756   5.663  15.369  0.9261  0.5098  0.3709
15291TIP3   OH267363   1.450   4.255   0.096  0.7723  0.1852 -0.0394
15291TIP3    H167364   1.380   4.308   0.057 -0.7808 -2.0351 -0.4777
15291TIP3    H267365   1.466   4.296   0.181 -3.7057 -1.1457  1.7512
15292TIP3   OH267366   0.367   3.455  14.548  0.1334  0.3642 -0.3420
15292TIP3    H167367   0.341   3.540  14.584 -2.2878 -0.4338 -0.0628
15292TIP3    H267368   0.369   3.397  14.624 -0.4211 -0.3023 -0.8287
15293TIP3   OH267369   3.393   5.521  11.978  0.3265  0.3755 -0.1986
15293TIP3    H167370   3.421   5.442  11.932 -1.5682 -0.8346  0.6432
15293TIP3    H267371   3.300   5.528  11.960  0.0072  1.1505  1.5675
15294TIP3   OH267372   0.913   6.276  13.339 -0.3115 -0.4128  0.5047
15294TIP3    H167373   0.846   6.212  13.317  1.3379 -1.5040 -1.8421
15294TIP3    H267374   0.994   6.225  13.342  1.0937  1.4955 -1.5738
15295TIP3   OH267375   2.323   3.751   6.244  0.0757 -0.4076  0.0002
15295TIP3    H167376   2.265   3.823   6.270 -0.1467 -0.3962 -0.5099
15295TIP3    H267377   2.378   3.735   6.321 -0.0734  0.1076  0.2173
15296TIP3   OH267378   4.226   2.018  12.469  0.4793  0.5854 -0.1662
15296TIP3    H167379   4.173   2.066  12.532  1.0302 -1.3986  1.9752
15296TIP3    H267380   4.168   2.003  12.395 -1.7638 -0.6910  1.6880
15297TIP3   OH267381   4.098   4.258  11.734  0.2529 -0.1312 -0.2731
15297TIP3    H167382   4.149   4.222  11.661 -3.9420  1.5428 -4.6135
15297TIP3    H267383   4.095   4.352  11.717 -1.2651  0.2796  1.8535
15298TIP3   OH267384   0.781   3.790  15.794 -0.3912 -0.1703 -0.1277
15298TIP3    H167385   0.835   3.868  15.804 -1.0640  0.4511 -1.1423
15298TIP3    H267386   0.830   3.721  15.837 -0.0572  0.9316  1.3444
15299TIP3   OH267387   2.136   4.660   6.058  0.5501  0.1204  0.1237
15299TIP3    H167388   2.206   4.601   6.030  0.5040  0.6528 -1.1811
15299TIP3    H267389   2.165   4.746   6.029 -0.4991  0.3843 -0.1613
15300TIP3   OH267390   4.383   3.339   2.000  0.1253 -0.4865  0.2887
15300TIP3    H167391   4.377   3.422   2.047  0.0441 -0.9514  1.1225
15300TIP3    H267392   4.409   3.363   1.911  0.6563  0.3847  0.6685
15301TIP3   OH267393   4.793   6.810   3.797  0.4060  0.1904 -0.4839
15301TIP3    H167394   4.732   6.822   3.724 -2.0280  0.5232  1.4662
15301TIP3    H267395   4.757   6.865   3.867  3.7999  1.5141  0.3759
15302TIP3   OH267396   6.688   6.406  15.180  0.0553 -0.2316  1.1681
15302TIP3    H167397   6.616   6.365  15.227  1.3164 -1.5448  2.0377
15302TIP3    H267398   6.766   6.382  15.230  1.1422  0.8160  0.0390
15303TIP3   OH267399   4.734   2.251  13.821 -0.3826  0.0766 -0.1757
15303TIP3    H167400   4.798   2.180  13.819 -0.8213 -0.3803  0.8613
15303TIP3    H267401   4.711   2.259  13.914 -0.7255  1.2322 -0.3439
15304TIP3   OH267402   0.029   0.336  16.571 -0.0615 -0.4204 -0.3001
15304TIP3    H167403   0.008   0.424  16.539 -0.8107 -0.2252  0.6714
15304TIP3    H267404   0.043   0.284  16.492  2.5233  1.0355 -0.9405
15305TIP3   OH267405   3.898   1.807   5.758 -0.1229  0.8605 -0.5745
15305TIP3    H167406   3.993   1.818   5.757  0.1519 -0.7390  1.2811
15305TIP3    H267407   3.885   1.713   5.771 -1.9415  1.1174 -0.3323
15306TIP3   OH267408   1.693   1.790  15.026  0.4744 -0.0845 -0.1197
15306TIP3    H167409   1.698   1.829  14.939  1.7017 -2.1131 -1.0521
15306TIP3    H267410   1.609   1.744  15.027 -0.2335  1.1753  0.3763
15307TIP3   OH267411   3.071   1.390   1.543 -0.0351 -0.9917 -0.1329
15307TIP3    H167412   3.111   1.318   1.592 -1.5820 -2.0377 -0.3248
15307TIP3    H267413   3.056   1.458   1.609  0.2335 -1.3682  0.3237
15308TIP3   OH267414   1.832   3.150  17.110 -0.2581  0.3990 -0.0254
15308TIP3    H167415   1.773   3.182  17.178 -1.0331 -0.4487 -0.2599
15308TIP3    H267416   1.797   3.063  17.089  0.5475  0.2582 -0.8170
15309TIP3   OH267417   4.585   1.028   0.320 -0.2499  0.2556 -0.1937
15309TIP3    H167418   4.564   1.103   0.376  1.4408  0.1738  0.6090
15309TIP3    H267419   4.561   0.951   0.372  3.4603  0.0772  1.5647
15310TIP3   OH267420   2.527   2.697   0.276 -0.0462 -0.1152 -0.0751
15310TIP3    H167421   2.565   2.612   0.296  0.8223 -0.1863 -1.8458
15310TIP3    H267422   2.437   2.692   0.307  0.1612 -1.4591  0.3552
15311TIP3   OH267423   2.626   1.928  12.709  0.2007 -0.1210 -0.0548
15311TIP3    H167424   2.591   1.927  12.798  1.2641 -1.2083  0.3757
15311TIP3    H267425   2.640   2.020  12.689 -2.6323  0.3597 -0.1762
15312TIP3   OH267426   1.827   6.440   4.249  0.0562  0.3721  0.2775
15312TIP3    H167427   1.900   6.467   4.194  0.1145 -0.2526  0.0518
15312TIP3    H267428   1.852   6.355   4.284  0.3098  1.0299  1.7967
15313TIP3   OH267429   5.797   1.396   1.094  0.4002  0.2051 -0.0217
15313TIP3    H167430   5.814   1.481   1.053 -0.5582 -0.0168 -0.9326
15313TIP3    H267431   5.767   1.417   1.182 -0.8674  0.8856 -0.5952
15314TIP3   OH267432   1.459   2.893   4.948  0.2512  0.0107 -0.3877
15314TIP3    H167433   1.501   2.965   4.901  1.4708  0.1647  0.8732
15314TIP3    H267434   1.428   2.932   5.030  1.3393 -0.9492  0.5223
15315TIP3   OH267435   1.940   4.321  12.912 -0.1094 -0.3661 -0.9091
15315TIP3    H167436   2.030   4.352  12.899  0.5055 -0.3581  2.3221
15315TIP3    H267437   1.916   4.277  12.831  2.1463  1.1703 -2.5085
15316TIP3   OH267438   2.132   5.696  15.316 -0.6724 -0.1067  0.1624
15316TIP3    H167439   2.126   5.648  15.233 -0.4099  0.1273  0.0071
15316TIP3    H267440   2.225   5.692  15.339 -0.7727 -0.3404  0.5491
15317TIP3   OH267441   3.483   5.655   4.075  0.3148 -0.0517  0.5691
15317TIP3    H167442   3.531   5.737   4.084 -0.4126  0.3727  0.6905
15317TIP3    H267443   3.506   5.623   3.987 -1.7766  1.8850 -0.8040
15318TIP3   OH267444   0.041   1.816  11.521 -0.3466 -0.1951 -0.0878
15318TIP3    H167445  -0.048   1.788  11.496 -0.3929  0.1203 -0.2760
15318TIP3    H267446   0.071   1.868  11.447  0.6688 -1.7357 -0.8081
15319TIP3   OH267447   4.352   4.159  15.457  0.0966 -0.5464 -0.0482
15319TIP3    H167448   4.418   4.216  15.497  0.6184 -1.4911  0.4729
15319TIP3    H267449   4.290   4.219  15.416  1.0195  0.3746 -0.1361
15320TIP3   OH267450   6.253   2.024  12.188  0.3474  0.3817 -0.2271
15320TIP3    H167451   6.281   2.111  12.161 -1.6386  0.7776 -1.2253
15320TIP3    H267452   6.167   2.037  12.228 -0.4284 -1.1790 -1.2465
15321TIP3   OH267453   4.618   0.568   4.231  0.1882 -0.2111  0.0820
15321TIP3    H167454   4.523   0.575   4.229  0.2349  0.5967 -0.0318
15321TIP3    H267455   4.648   0.657   4.252  0.8896 -0.6260  0.9392
15322TIP3   OH267456   6.517   5.629   6.495 -0.3409  0.1384 -0.2548
15322TIP3    H167457   6.568   5.705   6.523  1.4035 -0.2958 -2.0284
15322TIP3    H267458   6.429   5.664   6.478  0.4190  1.7934 -1.0393
15323TIP3   OH267459   0.469   0.743   0.842  0.2431 -0.6633 -0.0595
15323TIP3    H167460   0.403   0.777   0.781  0.1918 -0.8665 -0.1161
15323TIP3    H267461   0.459   0.797   0.921  0.1079 -0.5996 -0.1202
15324TIP3   OH267462   5.410   5.960   2.515 -0.4710 -0.4389  0.2532
15324TIP3    H167463   5.340   5.985   2.454 -0.7405 -0.6164  0.4868
15324TIP3    H267464   5.472   5.911   2.462 -0.6557 -0.5067  0.0964
15325TIP3   OH267465   3.173   2.649  13.875 -0.2313  0.0545 -0.0072
15325TIP3    H167466   3.097   2.690  13.832  0.0501 -0.1651 -0.7321
15325TIP3    H267467   3.170   2.558  13.847  0.2664  0.0320  0.0083
15326TIP3   OH267468   0.741   0.402   2.793  0.3981  0.2843  0.6537
15326TIP3    H167469   0.681   0.404   2.719  4.1458 -2.2666 -2.8727
15326TIP3    H267470   0.708   0.330   2.848 -0.1023 -0.7171 -0.9013
15327TIP3   OH267471   0.742   1.944  13.776  0.3662  0.5023  0.4109
15327TIP3    H167472   0.724   2.007  13.707  0.8215 -0.2812 -0.4500
15327TIP3    H267473   0.817   1.893  13.744  0.3508 -0.1246  1.3104
15328TIP3   OH267474   6.101   2.613   6.520  1.0373 -0.0420 -0.7821
15328TIP3    H167475   6.008   2.609   6.542  0.6262  1.4481 -2.0361
15328TIP3    H267476   6.140   2.539   6.566 -0.6169 -0.1939  0.4604
15329TIP3   OH267477   4.394   0.342  11.356 -0.3389  0.3595 -0.3791
15329TIP3    H167478   4.476   0.300  11.328 -0.4157 -2.7091  3.1772
15329TIP3    H267479   4.417   0.434  11.368  1.7361  0.1628 -2.2535
15330TIP3   OH267480   4.923   4.222  16.908 -0.3989  0.1558  0.1191
15330TIP3    H167481   4.933   4.285  16.837  0.4819  0.3399  0.3988
15330TIP3    H267482   4.995   4.241  16.968 -1.7755  0.7503  1.6585
15331TIP3   OH267483   6.597   2.500  13.505  0.1879  0.0324 -0.2392
15331TIP3    H167484   6.539   2.430  13.475  0.4336 -0.4384  0.3617
15331TIP3    H267485   6.597   2.564  13.434  1.9140 -1.7359 -1.9709
15332TIP3   OH267486   5.650   2.470   0.229  0.5501 -0.0264  0.1740
15332TIP3    H167487   5.599   2.524   0.291  1.4727 -1.5463  2.3926
15332TIP3    H267488   5.627   2.380   0.252  2.6595 -0.6870 -0.1298
15333TIP3   OH267489   5.743   6.402  14.927 -0.3579  0.3569 -0.7269
15333TIP3    H167490   5.727   6.490  14.892  1.1307  1.5400  1.3873
15333TIP3    H267491   5.688   6.397  15.004  1.9233  0.7663  1.0331
15334TIP3   OH267492   4.866   3.835   0.259 -0.9081 -0.3356 -0.3006
15334TIP3    H167493   4.842   3.882   0.179  3.4657  0.2183 -1.4960
15334TIP3    H267494   4.913   3.758   0.229  0.5508 -0.3145  1.7355
15335TIP3   OH267495   1.847   0.057  12.007 -0.1608  0.1601  0.2015
15335TIP3    H167496   1.861  -0.031  12.042 -0.0925 -0.0971 -0.4510
15335TIP3    H267497   1.756   0.058  11.979  0.2190 -0.2101 -1.1340
15336TIP3   OH267498   5.709   1.913   1.798 -0.2918  0.5390 -0.2145
15336TIP3    H167499   5.629   1.935   1.845  0.1489  1.8204 -0.0039
15336TIP3    H267500   5.680   1.865   1.721 -1.3508  1.6695 -0.5585
15337TIP3   OH267501   0.483   1.476   2.360  0.2050  0.4032  0.0038
15337TIP3    H167502   0.562   1.494   2.412 -0.6165 -0.5660  1.6907
15337TIP3    H267503   0.517   1.441   2.278  1.5767 -0.8893  1.0380
15338TIP3   OH267504   2.307   3.284  12.187  0.2944  0.1703  0.1349
15338TIP3    H167505   2.362   3.223  12.137 -0.9568 -1.3457  0.5359
15338TIP3    H267506   2.249   3.228  12.238  0.9280  1.6755  2.6735
15339TIP3   OH267507   1.491   1.388  10.685  0.4140  0.4110  0.1728
15339TIP3    H167508   1.401   1.354  10.689  0.5974 -0.2077 -0.6138
15339TIP3    H267509   1.542   1.315  10.650  1.2549  0.7078  0.7481
15340TIP3   OH267510   3.067   3.780   2.411  0.6073  0.0052  0.4236
15340TIP3    H167511   3.051   3.777   2.505  0.4349  0.0932  0.3983
15340TIP3    H267512   3.065   3.689   2.383 -2.3077  0.1090  0.0261
15341TIP3   OH267513   0.230   3.933   4.079 -0.4951 -0.6435  0.0988
15341TIP3    H167514   0.229   3.838   4.088 -2.2042 -0.8526 -1.6279
15341TIP3    H267515   0.285   3.950   4.003 -0.9995 -0.3403 -0.2057
15342TIP3   OH267516   0.059   0.477   5.264  0.3725  0.3420 -0.0037
15342TIP3    H167517   0.083   0.525   5.344  1.1649 -0.9913  0.5833
15342TIP3    H267518   0.141   0.471   5.215  0.1048  0.2672 -0.4417
15343TIP3   OH267519   3.647   6.144  14.143 -0.0238  0.1719 -0.0421
15343TIP3    H167520   3.722   6.085  14.145 -0.3504 -0.2332  1.1549
15343TIP3    H267521   3.679   6.226  14.181 -0.2262 -0.0630  0.6476
15344TIP3   OH267522   4.829   3.942   1.296  0.3600 -0.0837  0.3409
15344TIP3    H167523   4.812   3.967   1.205  3.0663  1.2810  0.0980
15344TIP3    H267524   4.877   3.859   1.290 -0.1582 -0.4047  0.5815
15345TIP3   OH267525   6.322   3.548  13.897  0.4953 -0.1525  0.1361
15345TIP3    H167526   6.354   3.637  13.895 -0.8375  0.4120  1.3383
15345TIP3    H267527   6.329   3.522  13.989 -3.1970  0.3975  0.7583
15346TIP3   OH267528   0.928   2.562   0.861 -0.0661  0.2792  0.1566
15346TIP3    H167529   0.915   2.473   0.830 -2.5668  0.4565  0.5465
15346TIP3    H267530   0.867   2.572   0.934 -1.0185  2.7657 -0.8527
15347TIP3   OH267531   5.346   3.830   5.495 -0.1262  0.2967  0.1003
15347TIP3    H167532   5.295   3.766   5.447  0.8290  0.3029 -0.9517
15347TIP3    H267533   5.400   3.873   5.429 -1.1327  2.5997  0.6678
15348TIP3   OH267534   3.434   3.142  16.249 -0.6148 -0.6124  0.0770
15348TIP3    H167535   3.518   3.154  16.205 -1.3201  0.4637 -1.0353
15348TIP3    H267536   3.449   3.175  16.338  0.1233 -0.3442 -0.1365
15349TIP3   OH267537   4.263   1.770   5.150 -0.6355  0.5058  0.1793
15349TIP3    H167538   4.284   1.713   5.076 -0.9381 -0.0557  0.5222
15349TIP3    H267539   4.348   1.806   5.177 -0.6095  1.3436 -0.9312
15350TIP3   OH267540   2.724   4.607   5.672  0.0145 -0.2726 -0.0966
15350TIP3    H167541   2.787   4.659   5.721  0.8886 -0.3240 -1.1388
15350TIP3    H267542   2.733   4.519   5.709  1.9637 -0.7170 -1.4948
15351TIP3   OH267543   5.941   1.240   4.319 -0.2985  0.5638  0.5213
15351TIP3    H167544   5.966   1.184   4.392 -1.0459  0.2341  0.5286
15351TIP3    H267545   5.918   1.180   4.249 -1.8265  0.8229  0.7642
15352TIP3   OH267546   3.925   6.225  11.172 -0.2695 -0.0934  0.2552
15352TIP3    H167547   3.905   6.273  11.252  1.6408 -1.5482  1.7095
15352TIP3    H267548   3.978   6.150  11.201  1.4121 -0.1188 -2.4817
15353TIP3   OH267549   0.098   6.401  14.017  0.2369 -0.0534  0.3723
15353TIP3    H167550   0.096   6.444  13.931 -1.1142 -0.1346  0.3341
15353TIP3    H267551   0.006   6.396  14.043  0.3648 -2.5541  0.5656
15354TIP3   OH267552   6.730   1.086  12.863  0.4614 -0.0837  0.0745
15354TIP3    H167553   6.643   1.119  12.882  0.1697 -0.5462 -0.4458
15354TIP3    H267554   6.788   1.137  12.919 -0.2620 -0.6614  1.3840
15355TIP3   OH267555   1.124   2.719  14.361 -0.0538  0.2054 -0.2440
15355TIP3    H167556   1.068   2.776  14.414  0.3350 -0.7794  1.2868
15355TIP3    H267557   1.208   2.766  14.358  0.0274  0.1076  0.3285
15356TIP3   OH267558   1.619   0.245   1.754 -0.4716 -0.3030  0.1202
15356TIP3    H167559   1.711   0.264   1.737 -0.3192 -1.0033  0.1054
15356TIP3    H267560   1.619   0.201   1.839 -0.9661  1.0549  0.8451
15357TIP3   OH267561   1.403   3.872  16.046  0.2266 -0.0845 -0.0048
15357TIP3    H167562   1.423   3.783  16.077 -0.4622 -0.3124 -0.1842
15357TIP3    H267563   1.346   3.909  16.114  1.6312  0.7480  0.7644
15358TIP3   OH267564   2.340   6.044  15.198 -0.4266  0.8223 -0.3856
15358TIP3    H167565   2.274   6.111  15.211 -0.6895  0.3935  0.5877
15358TIP3    H267566   2.418   6.079  15.241  0.3096  1.7560 -2.3485
15359TIP3   OH267567   4.334   2.816  15.956 -0.0828  0.6524  0.7255
15359TIP3    H167568   4.397   2.841  16.024  1.2555  2.3839 -1.0271
15359TIP3    H267569   4.354   2.725  15.936 -0.7649 -0.0112  2.8536
15360TIP3   OH267570   1.563   1.972   4.263  0.3826 -0.6000  0.0719
15360TIP3    H167571   1.528   1.895   4.218  2.3336 -1.3310 -0.3054
15360TIP3    H267572   1.571   1.945   4.355  3.0209 -1.6993 -0.3822
15361TIP3   OH267573   5.814   1.402  15.129 -0.0753 -0.2805  1.2253
15361TIP3    H167574   5.719   1.395  15.140 -0.4563 -0.9595 -1.5842
15361TIP3    H267575   5.831   1.496  15.127 -1.3037 -0.0003 -1.5588
15362TIP3   OH267576   2.743   4.881   3.569 -0.1171  0.1356  0.0282
15362TIP3    H167577   2.687   4.829   3.628  0.7402  0.8619  1.5371
15362TIP3    H267578   2.701   4.873   3.484 -2.0838  0.0066  0.9457
15363TIP3   OH267579   0.616   3.141   2.335  0.3462  0.9515  0.1432
15363TIP3    H167580   0.644   3.084   2.263 -0.4765  0.3658  0.2768
15363TIP3    H267581   0.521   3.136   2.334  0.3257  0.8395  1.3540
15364TIP3   OH267582   4.450   1.786   3.959  0.4198 -0.2551  0.0570
15364TIP3    H167583   4.520   1.728   3.990  0.3585 -1.0621 -1.2221
15364TIP3    H267584   4.461   1.787   3.864  1.4167  3.1339  0.0879
15365TIP3   OH267585   4.685   6.726   0.168  0.0624  0.4500 -0.1144
15365TIP3    H167586   4.764   6.768   0.134  0.2364  0.8051  0.7145
15365TIP3    H267587   4.614   6.762   0.114  0.5383 -0.4833 -1.3943
15366TIP3   OH267588   6.052   0.732   4.947 -0.0045 -0.3648  0.4706
15366TIP3    H167589   6.065   0.639   4.933 -1.4324 -0.6002  0.5201
15366TIP3    H267590   6.052   0.743   5.042 -0.8698 -0.4933  0.4913
15367TIP3   OH267591   0.460   5.945   0.999 -0.1931  0.3823 -0.0503
15367TIP3    H167592   0.470   5.865   1.049  0.5236 -0.1665 -1.0353
15367TIP3    H267593   0.418   6.007   1.059 -1.0996 -0.8385  0.6104
15368TIP3   OH267594   3.873   3.296  11.241  0.5776 -0.0632  0.2249
15368TIP3    H167595   3.906   3.386  11.247  1.0278 -0.2239  0.2346
15368TIP3    H267596   3.910   3.252  11.317  1.1624 -0.5030 -0.3030
15369TIP3   OH267597   2.223   1.891  14.847  0.2788  0.0792  0.1760
15369TIP3    H167598   2.174   1.971  14.864 -0.7291 -0.4936  0.1196
15369TIP3    H267599   2.297   1.894  14.907 -0.3885  0.5084  0.9994
15370TIP3   OH267600   4.533   3.753   1.371 -0.0192 -1.0752  0.7321
15370TIP3    H167601   4.611   3.715   1.329  0.3077  0.2222  0.1112
15370TIP3    H267602   4.459   3.710   1.327  0.3186  0.1211 -1.1031
15371TIP3   OH267603   0.044   1.441   1.840  0.6322 -0.5143 -0.1716
15371TIP3    H167604  -0.013   1.481   1.775  1.6648  1.3181 -0.0266
15371TIP3    H267605   0.116   1.503   1.851  1.2081 -1.4115  1.6975
15372TIP3   OH267606   6.659   5.541   1.508 -0.1125 -0.0501  0.3047
15372TIP3    H167607   6.575   5.585   1.506 -0.5844 -0.8893  0.8497
15372TIP3    H267608   6.638   5.450   1.530  1.0064 -0.0803  1.3629
15373TIP3   OH267609   0.224   2.316  12.068  0.4807 -0.1887 -0.0964
15373TIP3    H167610   0.238   2.222  12.075  2.0776  0.0064 -0.3103
15373TIP3    H267611   0.220   2.333  11.974 -3.3303 -0.4519 -0.1354
15374TIP3   OH267612   4.035   4.820  14.744 -0.6815  0.0199 -0.3164
15374TIP3    H167613   4.115   4.865  14.771 -0.3281 -1.4230  1.2462
15374TIP3    H267614   3.969   4.889  14.738  0.0073  0.8554  1.2204
15375TIP3   OH267615   1.317   4.089   3.299  0.6360  0.3100  0.3200
15375TIP3    H167616   1.222   4.076   3.306  0.8305 -2.1549 -0.4721
15375TIP3    H267617   1.333   4.173   3.341 -2.0458  1.3929 -0.5766
15376TIP3   OH267618   3.639   6.800   3.830 -0.1206 -0.7542 -0.1926
15376TIP3    H167619   3.583   6.856   3.777 -1.4852 -2.6874 -0.9506
15376TIP3    H267620   3.710   6.856   3.860 -1.3071  1.2734 -1.0322
15377TIP3   OH267621   5.366   0.803  16.924 -0.0583 -0.6738 -0.2153
15377TIP3    H167622   5.427   0.759  16.865  2.6051  1.6663  0.5257
15377TIP3    H267623   5.292   0.828  16.869  0.5925 -1.8353 -1.6629
15378TIP3   OH267624   1.796   1.199   4.954  0.5570  0.2670  0.3929
15378TIP3    H167625   1.858   1.142   4.909  0.7294  0.1948  0.7115
15378TIP3    H267626   1.788   1.276   4.898 -0.1782 -0.3487 -0.3669
15379TIP3   OH267627   5.052   0.825  15.940  0.5583 -0.1733 -0.4272
15379TIP3    H167628   5.140   0.800  15.968  0.5059  0.3127  0.2033
15379TIP3    H267629   5.062   0.913  15.903  0.2406  0.1486  0.2351
15380TIP3   OH267630   5.142   6.842   5.613  0.1584 -0.2717 -1.2012
15380TIP3    H167631   5.074   6.789   5.654 -1.4711  1.9861 -0.7775
15380TIP3    H267632   5.098   6.886   5.541  1.8819 -0.7206 -2.6173
15381TIP3   OH267633   1.567   6.279  14.361  0.2038 -0.0614  0.3304
15381TIP3    H167634   1.477   6.308  14.354 -0.6714 -2.6244 -0.0093
15381TIP3    H267635   1.615   6.357  14.390 -1.9090  1.6174 -0.4101
15382TIP3   OH267636   4.577   3.019  12.247  0.2560 -0.2215 -0.0531
15382TIP3    H167637   4.660   2.974  12.261 -0.2905 -0.6383  2.2759
15382TIP3    H267638   4.523   2.958  12.197  0.1783 -1.4398  1.4565
15383TIP3   OH267639   4.796   0.337  11.553  0.3674 -1.2564  0.0599
15383TIP3    H167640   4.849   0.279  11.607  1.2209 -1.4350 -0.9277
15383TIP3    H267641   4.859   0.380  11.495 -0.4280 -0.5148 -0.2903
15384TIP3   OH267642   3.021   1.039  15.745 -0.5426 -0.1421 -0.1125
15384TIP3    H167643   2.953   1.102  15.769  0.5444  1.0177  0.0649
15384TIP3    H267644   2.978   0.976  15.688 -1.7975  0.4456  0.1627
15385TIP3   OH267645   4.110   3.403   0.392 -0.2843 -0.2400 -0.0005
15385TIP3    H167646   4.075   3.423   0.306  0.4113  0.1825 -0.1991
15385TIP3    H267647   4.109   3.487   0.438 -0.0715 -0.3366  0.1817
15386TIP3   OH267648   2.566   5.244   4.788 -0.3428 -0.0104  0.0844
15386TIP3    H167649   2.495   5.208   4.841 -0.9038  1.2397  0.2121
15386TIP3    H267650   2.631   5.272   4.853 -0.8086  1.0560  0.1133
15387TIP3   OH267651   0.506   1.261  14.962 -0.2249 -0.1365  0.2282
15387TIP3    H167652   0.542   1.211  15.036  0.6359  0.9123  0.5422
15387TIP3    H267653   0.422   1.219  14.944  0.0133 -1.0560  1.1336
15388TIP3   OH267654   3.029   4.105  12.107 -0.3118  0.0649  0.2374
15388TIP3    H167655   3.047   4.087  12.015 -0.5928  0.9747 -0.0039
15388TIP3    H267656   3.034   4.019  12.149  0.8480 -0.2328 -0.4417
15389TIP3   OH267657   4.226   1.004  13.528  0.0116  0.2746  0.4176
15389TIP3    H167658   4.239   1.058  13.606  0.3589 -0.5453  0.9451
15389TIP3    H267659   4.278   0.926  13.544 -0.5371 -0.2543 -0.2946
15390TIP3   OH267660   1.264   6.633   3.302 -0.2090  0.6751  0.6095
15390TIP3    H167661   1.340   6.622   3.244 -0.6601  0.3605  0.0631
15390TIP3    H267662   1.229   6.544   3.312  0.7719  0.4542  2.6534
15391TIP3   OH267663   2.652   2.698  16.738 -0.2443  0.2756  0.1432
15391TIP3    H167664   2.652   2.772  16.798 -1.8050 -0.1381  0.6905
15391TIP3    H267665   2.592   2.723  16.667 -0.9179 -0.5156  0.4198
15392TIP3   OH267666   5.478   3.888  12.448  0.1125 -0.3394 -0.1843
15392TIP3    H167667   5.480   3.898  12.543 -0.8753  0.6997 -0.2449
15392TIP3    H267668   5.394   3.844  12.431 -1.4269  2.5712 -0.7548
15393TIP3   OH267669   0.076   4.107  11.259 -0.0144  0.4031  0.3986
15393TIP3    H167670   0.003   4.167  11.277  1.8824  4.2795 -3.0552
15393TIP3    H267671   0.057   4.071  11.173  0.3938 -1.7255  1.1345
15394TIP3   OH267672   4.066   2.475  11.700  0.2490  0.1639 -0.3860
15394TIP3    H167673   4.003   2.409  11.728 -1.6957  1.6732 -0.9608
15394TIP3    H267674   4.023   2.520  11.628  2.0896  1.1671 -0.9311
15395TIP3   OH267675   2.028   2.531  11.399  0.6078  0.2553  0.1327
15395TIP3    H167676   1.940   2.496  11.388  0.7715 -0.7072  1.6720
15395TIP3    H267677   2.043   2.582  11.319 -0.1344 -2.1391 -1.6533
15396TIP3   OH267678   0.807   1.532  11.659  0.9070 -0.2365 -0.5046
15396TIP3    H167679   0.891   1.522  11.703  0.1397 -0.9075  0.8693
15396TIP3    H267680   0.803   1.624  11.634  1.0593  0.3417  1.5072
15397TIP3   OH267681   1.181   0.333   0.682 -0.0727  0.2298 -0.2586
15397TIP3    H167682   1.096   0.301   0.711 -1.4365  1.0666 -3.0127
15397TIP3    H267683   1.239   0.258   0.690 -1.4475 -0.8290  0.1603
15398TIP3   OH267684   0.998   2.892   4.032  0.1700 -0.1666 -0.1472
15398TIP3    H167685   1.091   2.875   4.018  0.3449  0.7787 -0.2204
15398TIP3    H267686   0.964   2.812   4.072  0.9894 -0.5572 -0.2167
15399TIP3   OH267687   1.065   3.660  16.149  0.0299 -0.7912 -0.8057
15399TIP3    H167688   1.037   3.747  16.175  3.2696  0.3844 -0.7858
15399TIP3    H267689   1.069   3.662  16.054  2.7209  0.1284 -0.7546
15400TIP3   OH267690   5.937   4.591  13.090  0.1395 -0.1655 -0.3170
15400TIP3    H167691   5.927   4.642  13.010 -1.3694  2.1589  1.2533
15400TIP3    H267692   5.851   4.552  13.105  0.0304  0.4667  0.8071
15401TIP3   OH267693   5.198   2.000  15.004  0.2272 -0.0520  0.0005
15401TIP3    H167694   5.151   2.058  15.064  1.5074  1.6326 -0.5272
15401TIP3    H267695   5.142   1.996  14.926 -0.1111  0.0636  0.2364
15402TIP3   OH267696   5.763   0.744   2.601  0.4190  0.2682  0.1804
15402TIP3    H167697   5.796   0.723   2.688  1.9584  0.9418 -0.2052
15402TIP3    H267698   5.681   0.791   2.617  0.4410 -0.0299  1.2436
15403TIP3   OH267699   6.530   4.463  13.656 -0.7235 -0.0986  0.5457
15403TIP3    H167700   6.582   4.389  13.624  0.6877  0.8707  0.5014
15403TIP3    H267701   6.490   4.430  13.737 -0.1785 -0.9300  0.4949
15404TIP3   OH267702   3.237   2.019  14.440 -0.5899  0.4396 -0.2975
15404TIP3    H167703   3.276   1.982  14.518 -0.2540 -1.4337 -1.3055
15404TIP3    H267704   3.144   1.994  14.445 -0.8674  1.5150  0.1662
15405TIP3   OH267705   2.746   3.665   4.445 -0.2862 -0.5728  0.0214
15405TIP3    H167706   2.763   3.703   4.531 -0.5350  0.9511 -0.5668
15405TIP3    H267707   2.652   3.677   4.432 -0.7632 -3.0673  0.5368
15406TIP3   OH267708   6.615   6.114   5.255 -0.2321 -0.3936  0.2452
15406TIP3    H167709   6.542   6.173   5.273 -1.4022 -1.1688 -1.6758
15406TIP3    H267710   6.654   6.148   5.175  0.6527 -0.8201  0.4802
15407TIP3   OH267711   2.946   1.097  11.840 -0.4751  0.0960  0.2191
15407TIP3    H167712   3.041   1.101  11.832 -0.6278  0.0106 -2.0837
15407TIP3    H267713   2.921   1.185  11.871  0.4150 -0.3873  2.5449
15408TIP3   OH267714   2.629   0.234  11.531 -0.5810 -0.0830  0.4846
15408TIP3    H167715   2.662   0.213  11.618 -0.1996 -3.3122 -0.3148
15408TIP3    H267716   2.704   0.224  11.473 -1.5392 -1.3458 -0.5976
15409TIP3   OH267717   2.874   3.416  12.125 -0.4009 -0.6602 -0.2857
15409TIP3    H167718   2.897   3.416  12.032 -0.3403  2.1242 -0.3301
15409TIP3    H267719   2.783   3.444  12.127 -1.7129 -4.4268  0.3641
15410TIP3   OH267720   5.220   4.475  11.446  0.3943  0.1151 -0.0224
15410TIP3    H167721   5.158   4.414  11.406 -0.2273  0.4162  0.4514
15410TIP3    H267722   5.227   4.546  11.382 -2.6751  1.9293  1.4122
15411TIP3   OH267723   0.976   5.376   3.135  0.2298  0.3710 -0.2025
15411TIP3    H167724   0.980   5.364   3.040  0.1028 -0.7677 -0.0858
15411TIP3    H267725   0.893   5.420   3.150 -1.5666 -2.6431 -0.4045
15412TIP3   OH267726   2.664   0.070   0.819  0.0906 -0.1276 -0.5552
15412TIP3    H167727   2.661   0.025   0.734 -1.6330 -0.8487 -0.1470
15412TIP3    H267728   2.644   0.003   0.883 -0.1540  0.7389  0.2976
15413TIP3   OH267729   6.010   0.922  12.301 -0.0344 -0.5123 -0.6944
15413TIP3    H167730   6.100   0.889  12.299 -0.3402 -1.3754 -2.4751
15413TIP3    H267731   5.959   0.850  12.338 -0.3487 -1.0984 -2.2166
15414TIP3   OH267732   3.281   2.208  16.569 -0.3267  0.1501  0.1081
15414TIP3    H167733   3.298   2.301  16.585 -0.9850  0.1278  1.0526
15414TIP3    H267734   3.192   2.194  16.602 -0.8961 -0.4550 -1.6102
15415TIP3   OH267735   5.936   4.236  14.968 -0.7048  0.3865  0.0079
15415TIP3    H167736   5.945   4.146  14.936 -0.2795  0.8525 -1.2420
15415TIP3    H267737   5.865   4.232  15.032  0.0056 -1.0273  0.7588
15416TIP3   OH267738   5.623   3.181  16.764  0.2427  0.1583  0.0526
15416TIP3    H167739   5.613   3.148  16.675 -0.6463  0.6642 -0.0482
15416TIP3    H267740   5.657   3.106  16.814 -2.2357 -1.1269 -0.0362
15417TIP3   OH267741   0.393   5.275  13.703  0.4904  0.3964 -0.7664
15417TIP3    H167742   0.339   5.228  13.640  0.7283 -0.3127 -0.4520
15417TIP3    H267743   0.343   5.355  13.723 -0.6019 -0.3888 -0.2479
15418TIP3   OH267744   4.940   0.583   3.268 -0.1858  0.2278 -0.0005
15418TIP3    H167745   5.012   0.606   3.326  1.4377 -1.6951 -1.0941
15418TIP3    H267746   4.982   0.540   3.193 -2.4717 -1.0633 -0.6642
15419TIP3   OH267747   4.800   4.888  16.706 -0.0468 -0.6400 -0.1980
15419TIP3    H167748   4.736   4.914  16.640 -0.3757  0.1161  0.4092
15419TIP3    H267749   4.753   4.894  16.789  0.7910 -0.1325  0.2539
15420TIP3   OH267750   1.081   0.811  16.092 -0.0399  0.0016 -0.4578
15420TIP3    H167751   1.002   0.816  16.146  0.0564 -0.6734 -0.2409
15420TIP3    H267752   1.054   0.843  16.006 -0.7356 -0.9042 -0.5887
15421TIP3   OH267753   5.684   4.003  14.099  0.5575  0.0432  0.1547
15421TIP3    H167754   5.729   3.923  14.071  1.1005 -0.4852  2.3853
15421TIP3    H267755   5.617   3.972  14.160  1.3574  1.3165  1.7527
15422TIP3   OH267756   2.750   5.559   2.585  0.4444 -0.7351 -0.2198
15422TIP3    H167757   2.762   5.532   2.676  1.7193  1.9995  0.5346
15422TIP3    H267758   2.817   5.511   2.537  0.9124 -0.9037  0.5814
15423TIP3   OH267759   4.483   5.632   4.762 -0.0939 -0.4945  0.5786
15423TIP3    H167760   4.420   5.662   4.827 -0.7427 -1.4409  0.4109
15423TIP3    H267761   4.434   5.630   4.680  0.5367  0.0569  0.1712
15424TIP3   OH267762   4.340   0.339  14.666  0.1264 -0.0121  0.2598
15424TIP3    H167763   4.344   0.310  14.575 -1.8306  1.0276 -0.2211
15424TIP3    H267764   4.426   0.378  14.683  0.1007  0.9618 -1.5826
15425TIP3   OH267765   0.375   5.924   4.029  0.0278 -0.2373  0.2109
15425TIP3    H167766   0.345   5.947   4.117 -1.1255 -2.1895  0.3737
15425TIP3    H267767   0.295   5.901   3.981  0.7969 -0.7701 -0.8597
15426TIP3   OH267768   0.135   4.506  11.085  0.3471 -0.0901  0.7155
15426TIP3    H167769   0.161   4.482  10.997  1.5950  0.1936  0.9880
15426TIP3    H267770   0.206   4.474  11.141 -1.4676 -2.2784  1.8997
15427TIP3   OH267771   2.195   3.463   2.658  0.0172  0.1031 -0.3122
15427TIP3    H167772   2.116   3.427   2.698 -0.0570  1.1199  0.4973
15427TIP3    H267773   2.267   3.412   2.697 -0.0375  1.2498  1.3591
15428TIP3   OH267774   4.911   3.324  15.909 -0.6740  0.2026 -0.4347
15428TIP3    H167775   4.977   3.344  15.975 -1.3512 -0.9393  0.6490
15428TIP3    H267776   4.919   3.229  15.896 -2.7138 -0.1440  0.4580
15429TIP3   OH267777   6.758   2.430  11.258 -0.1066 -0.4174  0.4702
15429TIP3    H167778   6.780   2.520  11.233  0.6439 -1.1470 -1.7329
15429TIP3    H267779   6.818   2.376  11.207 -1.1287 -2.2126  1.0989
15430TIP3   OH267780   2.644   1.455   5.815 -0.4852 -0.1463  0.1356
15430TIP3    H167781   2.615   1.376   5.769 -2.0757  0.5225 -0.0469
15430TIP3    H267782   2.602   1.450   5.901  0.7505 -0.3059  0.7632
15431TIP3   OH267783   4.811   4.637   5.588  0.5907 -0.2171 -0.3285
15431TIP3    H167784   4.796   4.553   5.545  0.8748 -0.4037 -0.0729
15431TIP3    H267785   4.815   4.615   5.682 -0.8402  0.2966 -0.1242
15432TIP3   OH267786   4.252   0.637  12.005  0.1140  0.3858 -0.1155
15432TIP3    H167787   4.342   0.643  11.974  0.4261 -0.3571  0.6231
15432TIP3    H267788   4.254   0.670  12.094  0.4091 -2.9231  1.2569
15433TIP3   OH267789   4.449   5.576   5.915  0.4619 -0.2866  0.4201
15433TIP3    H167790   4.371   5.545   5.868 -0.6141  1.5878  0.8438
15433TIP3    H267791   4.521   5.564   5.854 -0.3001 -1.2811 -0.3114
15434TIP3   OH267792   1.635   1.181   4.532 -0.1254  0.3005 -0.1563
15434TIP3    H167793   1.583   1.218   4.461 -0.7418  0.5359  0.4011
15434TIP3    H267794   1.676   1.256   4.574  0.6219  0.1215 -0.5446
15435TIP3   OH267795   3.780   4.059   3.959 -0.2430  0.1531 -0.1689
15435TIP3    H167796   3.801   3.976   4.002 -2.2890  0.1602  0.9894
15435TIP3    H267797   3.856   4.078   3.905  1.3401 -1.2155  1.4492
15436TIP3   OH267798   1.845   2.810   0.095  0.5233  0.7191 -0.2041
15436TIP3    H167799   1.863   2.731   0.044  0.8797  0.3748  0.4355
15436TIP3    H267800   1.767   2.848   0.055 -0.7141 -0.9145  0.5463
15437TIP3   OH267801   3.785   1.436  11.059  0.4243 -0.0932 -0.0671
15437TIP3    H167802   3.731   1.405  10.987  1.2721 -1.7729 -0.0128
15437TIP3    H267803   3.727   1.493  11.109 -1.3649 -1.9194  0.0593
15438TIP3   OH267804   3.969   0.598   2.963 -0.0806  0.2059 -0.3258
15438TIP3    H167805   3.949   0.684   2.926 -0.3526  1.1133  1.7554
15438TIP3    H267806   4.013   0.617   3.046  1.0203 -1.6983 -0.4104
15439TIP3   OH267807   6.674   2.880  13.167 -0.1970  0.4796 -0.1020
15439TIP3    H167808   6.763   2.843  13.161 -0.9564 -1.7661  1.2564
15439TIP3    H267809   6.682   2.953  13.227  0.7659  0.3917 -0.1088
15440TIP3   OH267810   0.892   5.394   5.153 -0.0535  0.2188  0.1189
15440TIP3    H167811   0.807   5.424   5.122 -0.5802 -2.0794 -0.8575
15440TIP3    H267812   0.945   5.474   5.160 -2.5055  1.8422  1.6933
15441TIP3   OH267813   0.254   1.020  14.013  0.2201 -0.1138 -0.4316
15441TIP3    H167814   0.206   1.101  13.994 -0.8950 -0.1255  1.9468
15441TIP3    H267815   0.327   1.048  14.068  0.9543 -0.5132 -1.1901
15442TIP3   OH267816   2.915   3.426   4.305  0.0343 -0.0206  0.3970
15442TIP3    H167817   2.868   3.456   4.383  1.0565  0.5806  0.8024
15442TIP3    H267818   2.851   3.433   4.234 -0.8191 -0.2868  1.1230
15443TIP3   OH267819   1.077   0.835   1.188 -0.0905  0.0483 -0.0831
15443TIP3    H167820   1.041   0.758   1.144 -0.4776  0.3542 -0.3060
15443TIP3    H267821   1.066   0.906   1.125 -0.4069  0.4363  0.4053
15444TIP3   OH267822   2.126   3.138   2.670  0.5361  0.0836  0.6543
15444TIP3    H167823   2.124   3.179   2.756 -0.7259  0.3674  0.5064
15444TIP3    H267824   2.064   3.065   2.676 -0.3433  0.7312 -0.3097
15445TIP3   OH267825   0.047   0.071   1.818 -0.1760  0.1779 -0.0089
15445TIP3    H167826   0.091   0.080   1.733  0.0484 -1.9909 -0.1783
15445TIP3    H267827   0.104   0.118   1.879  0.9183 -0.2376 -0.6843
15446TIP3   OH267828   6.244   2.508   4.082 -0.2739 -0.7116  0.4636
15446TIP3    H167829   6.174   2.444   4.093  1.1493 -2.1903  1.3001
15446TIP3    H267830   6.222   2.554   4.001 -0.4293 -3.4950 -1.1974
15447TIP3   OH267831   4.962   2.422  14.476  0.3991 -0.3777  0.2458
15447TIP3    H167832   5.040   2.465  14.511 -0.6416  0.8490  1.1192
15447TIP3    H267833   4.897   2.491  14.469 -0.2925 -1.1553 -1.5510
15448TIP3   OH267834   0.091   4.006  15.639  0.2979  0.5868  0.2045
15448TIP3    H167835   0.073   3.947  15.712 -1.1817  0.0141 -0.5729
15448TIP3    H267836   0.013   4.060  15.632  1.1681  1.8721  0.1748
15449TIP3   OH267837   2.614   2.126   0.734 -0.3998 -0.0691 -0.4793
15449TIP3    H167838   2.691   2.088   0.776 -0.7875  0.4828  0.7953
15449TIP3    H267839   2.582   2.057   0.675  1.0042 -0.3315 -0.9787
15450TIP3   OH267840   1.717   4.775   4.581 -0.5384  0.1013 -0.1129
15450TIP3    H167841   1.774   4.842   4.620  1.2020 -0.6125 -1.3300
15450TIP3    H267842   1.684   4.726   4.656 -0.3594  1.1579  0.6863
15451TIP3   OH267843   2.499   5.234   5.785 -0.3993 -0.7549  0.0692
15451TIP3    H167844   2.530   5.262   5.699  0.9148 -1.6236  0.2295
15451TIP3    H267845   2.404   5.250   5.783 -0.3165 -0.3272 -1.3577
15452TIP3   OH267846   1.650   2.254   1.307 -0.0728 -0.3432  0.1648
15452TIP3    H167847   1.659   2.328   1.366  0.3560  1.1586 -1.6645
15452TIP3    H267848   1.613   2.184   1.361  0.6361  0.8004  2.2516
15453TIP3   OH267849   6.385   2.974   1.715  0.3545 -0.1083 -0.0422
15453TIP3    H167850   6.307   2.965   1.769  0.8067 -1.9084  0.3867
15453TIP3    H267851   6.451   2.920   1.758  1.6618  0.8629 -0.7367
15454TIP3   OH267852   2.771   0.122  10.351  0.6489  0.1009  0.2461
15454TIP3    H167853   2.759   0.058  10.281  1.2018  0.7851 -0.4903
15454TIP3    H267854   2.723   0.085  10.425 -0.5396 -0.3106 -0.6836
15455TIP3   OH267855   0.893   1.695   0.142 -0.0878 -0.1496  0.2538
15455TIP3    H167856   0.949   1.753   0.193  1.3258 -0.9646 -0.3167
15455TIP3    H267857   0.853   1.637   0.207  2.4729 -1.8392  0.4718
15456TIP3   OH267858   0.887   2.915  14.356  0.3590 -0.7584  0.4855
15456TIP3    H167859   0.924   2.924  14.268 -1.0533  1.7911  0.0651
15456TIP3    H267860   0.961   2.927  14.415  0.7950  1.1356 -0.3647
15457TIP3   OH267861   0.511   3.058   5.433  0.2863  0.3185 -0.3629
15457TIP3    H167862   0.473   3.140   5.400 -0.0490  0.8563  1.2652
15457TIP3    H267863   0.477   3.050   5.522 -0.5293 -2.1502 -0.8154
15458TIP3   OH267864   5.625   3.691  14.370 -0.6958  0.2963  0.0020
15458TIP3    H167865   5.560   3.643  14.421 -1.4481 -0.5025 -1.6388
15458TIP3    H267866   5.573   3.754  14.319 -0.2644 -0.6125 -1.6235
15459TIP3   OH267867   6.647   0.761   4.387 -0.1445  0.2050  0.4354
15459TIP3    H167868   6.567   0.759   4.441  0.0611  0.4852  0.7561
15459TIP3    H267869   6.618   0.733   4.300 -0.6499  0.5514  0.4836
15460TIP3   OH267870   4.641   4.497  15.754 -0.0210 -0.1795 -0.3047
15460TIP3    H167871   4.650   4.427  15.819  0.4972 -0.4632 -0.6770
15460TIP3    H267872   4.630   4.577  15.806  1.9334 -0.1723  0.1836
15461TIP3   OH267873   4.011   1.523   2.072  0.9835  0.1071 -1.0010
15461TIP3    H167874   4.065   1.571   2.008 -1.0654 -0.4598 -3.2795
15461TIP3    H267875   4.016   1.432   2.044 -0.4438 -0.0713 -0.7328
15462TIP3   OH267876   1.744   1.430   4.796  0.1421  0.2476  0.1162
15462TIP3    H167877   1.772   1.418   4.705  1.6042 -2.1260  0.7811
15462TIP3    H267878   1.697   1.513   4.796 -0.3115  0.0941 -2.8897
15463TIP3   OH267879   2.946   5.605  15.466 -0.0086 -0.5861 -0.1795
15463TIP3    H167880   2.947   5.548  15.389  1.7405 -0.0865 -0.5875
15463TIP3    H267881   2.873   5.573  15.518 -1.1282 -1.0726 -1.9368
15464TIP3   OH267882   1.004   0.341  12.114  0.2337  0.5374  0.4978
15464TIP3    H167883   0.973   0.298  12.193  2.7442  1.0103  1.8320
15464TIP3    H267884   1.083   0.293  12.089  0.9185  1.9538 -0.2037
15465TIP3   OH267885   4.203   4.154  14.805  0.0328  0.4628  0.0977
15465TIP3    H167886   4.282   4.129  14.853 -0.3279  0.7700  0.8692
15465TIP3    H267887   4.135   4.156  14.872 -0.5498  0.5761 -0.4956
15466TIP3   OH267888   0.715   4.616   2.017 -0.4692  0.2513  0.1882
15466TIP3    H167889   0.759   4.546   1.969 -0.2632  0.3326  0.2590
15466TIP3    H267890   0.777   4.689   2.016 -0.5339  0.3095  0.4347
15467TIP3   OH267891   2.442   1.263   2.345 -0.4166 -0.0483  0.4465
15467TIP3    H167892   2.498   1.243   2.420  1.4284  0.2948 -0.7665
15467TIP3    H267893   2.385   1.334   2.375  0.1836 -0.0170  1.5598
15468TIP3   OH267894   4.736   0.394  14.412 -0.0448  0.0097  0.4512
15468TIP3    H167895   4.786   0.313  14.405 -0.4226 -0.2048  0.2045
15468TIP3    H267896   4.700   0.408  14.324 -0.3892  0.1766  0.6172
15469TIP3   OH267897   2.176   0.223   3.318  0.5064 -0.2420 -0.1550
15469TIP3    H167898   2.235   0.226   3.393 -0.3981 -1.4339  0.6258
15469TIP3    H267899   2.160   0.130   3.303 -0.4204  0.0295 -0.9513
15470TIP3   OH267900   1.158   5.692   4.775  0.2204 -0.1031 -0.4501
15470TIP3    H167901   1.143   5.599   4.796  1.2724  0.4970  3.9502
15470TIP3    H267902   1.251   5.705   4.793  0.1327  1.7878 -1.2087
15471TIP3   OH267903   4.452   5.767   2.955 -0.5146 -0.3609 -0.3709
15471TIP3    H167904   4.522   5.824   2.985 -0.2561 -1.5973  1.4880
15471TIP3    H267905   4.373   5.801   2.997  0.0710 -3.0120  3.2968
15472TIP3   OH267906   1.217   0.115   5.008  0.0666 -0.3245 -0.2780
15472TIP3    H167907   1.122   0.101   5.003 -0.1340  0.2652  1.2137
15472TIP3    H267908   1.253   0.064   4.935 -1.4264 -0.1932 -1.1449
15473TIP3   OH267909   4.394   6.055  15.704 -0.8322 -0.6238 -0.1774
15473TIP3    H167910   4.362   6.105  15.779 -0.1411 -0.7610  0.2187
15473TIP3    H267911   4.418   5.970  15.740 -0.3167 -0.6272 -0.5128
15474TIP3   OH267912   2.015   2.575  15.754 -0.0632  0.5192  0.6005
15474TIP3    H167913   1.977   2.487  15.753  1.0410  0.0223  0.3243
15474TIP3    H267914   1.942   2.634  15.739 -0.7593 -0.3787  0.4151
15475TIP3   OH267915   1.337   6.680   1.464  0.0185 -0.0574  0.0834
15475TIP3    H167916   1.266   6.744   1.450 -0.3468 -0.4638  0.0559
15475TIP3    H267917   1.291   6.599   1.486  0.4666 -0.4359 -0.3622
15476TIP3   OH267918   3.832   4.780   5.154  0.3735  0.1772  0.3941
15476TIP3    H167919   3.740   4.757   5.143  0.6035 -0.7177  0.3067
15476TIP3    H267920   3.833   4.876   5.156 -0.6000  0.1808  0.7724
15477TIP3   OH267921   3.854   0.209  14.888  0.2371  0.1109 -0.2910
15477TIP3    H167922   3.915   0.256  14.831  2.1327 -0.1550  1.4398
15477TIP3    H267923   3.835   0.128  14.841  3.2083 -0.9480  0.1598
15478TIP3   OH267924   5.913   4.591  14.751 -0.3799  0.7730  0.5890
15478TIP3    H167925   5.975   4.599  14.823 -1.4374 -1.4630  1.8450
15478TIP3    H267926   5.967   4.585  14.673  0.8593  1.5113  1.3606
15479TIP3   OH267927   0.537   4.137  13.557  0.0956 -1.0928 -0.1183
15479TIP3    H167928   0.512   4.048  13.581 -0.5424 -1.5576 -2.2913
15479TIP3    H267929   0.465   4.191  13.591 -0.2691 -1.5827 -0.0891
15480TIP3   OH267930   2.173   4.565   4.514 -0.1459 -0.3132  0.1688
15480TIP3    H167931   2.105   4.546   4.449 -0.3120 -0.9349  0.5140
15480TIP3    H267932   2.189   4.659   4.505 -0.9056 -0.1957 -0.0640
15481TIP3   OH267933   3.628   5.388  14.379  0.5926 -0.1374 -0.0139
15481TIP3    H167934   3.668   5.460  14.427  0.2198  0.1499 -0.1304
15481TIP3    H267935   3.630   5.416  14.287 -0.1554  0.0176  0.0122
15482TIP3   OH267936   3.272   0.295  15.405 -0.3021  0.0319  0.2285
15482TIP3    H167937   3.348   0.352  15.396 -0.1749 -0.0420  0.7968
15482TIP3    H267938   3.197   0.353  15.394 -0.1614  0.0841 -0.4500
15483TIP3   OH267939   3.749   2.602  12.532 -0.3771 -0.6596 -0.6754
15483TIP3    H167940   3.711   2.529  12.582 -0.9437  1.4292  2.2104
15483TIP3    H267941   3.840   2.605  12.561 -0.7336  0.6340  0.3993
15484TIP3   OH267942   4.036   3.739   3.818 -0.1636  0.6013  0.1938
15484TIP3    H167943   3.970   3.685   3.774  1.2967 -0.3142 -0.9847
15484TIP3    H267944   4.029   3.716   3.910  0.5590 -1.8782 -0.2926
15485TIP3   OH267945   4.460   5.223  14.794 -0.4889  0.5342  0.6032
15485TIP3    H167946   4.472   5.312  14.825  0.4490  0.0847  1.6167
15485TIP3    H267947   4.531   5.209  14.732  1.2581 -0.4345  2.6893
15486TIP3   OH267948   2.512   3.090  13.385  0.1242  0.0942 -0.0441
15486TIP3    H167949   2.422   3.065  13.367  0.4762 -1.9155  0.7427
15486TIP3    H267950   2.563   3.011  13.369  1.5336  0.7185  1.1145
15487TIP3   OH267951   5.815   0.795  13.961  0.1431 -0.1323 -0.5619
15487TIP3    H167952   5.879   0.789  13.890  0.1359  0.8633 -0.6663
15487TIP3    H267953   5.731   0.808  13.917 -0.0687 -0.9635 -0.4106
15488TIP3   OH267954   1.112   2.061   3.543  0.6316  0.4699  0.1260
15488TIP3    H167955   1.131   1.973   3.576  0.6273 -1.5634 -4.5497
15488TIP3    H267956   1.198   2.103   3.539  1.1278 -0.5690 -0.5978
15489TIP3   OH267957   3.715   1.325   2.068  0.6374 -0.4664 -0.3136
15489TIP3    H167958   3.779   1.309   1.999 -1.2058  0.2075 -2.3305
15489TIP3    H267959   3.697   1.239   2.105  1.7141 -0.8483 -0.6359
15490TIP3   OH267960   4.353   4.047   3.279 -0.7850  0.3499  0.2332
15490TIP3    H167961   4.406   3.967   3.283  0.0277  0.8818  0.3624
15490TIP3    H267962   4.378   4.096   3.357 -2.6346 -0.0794  1.1425
15491TIP3   OH267963   1.891   2.845   4.187 -0.2779  0.5583  0.1907
15491TIP3    H167964   1.913   2.860   4.279  0.6383  1.1032 -0.1053
15491TIP3    H267965   1.810   2.794   4.190  0.4725 -0.6498  1.3321
15492TIP3   OH267966   0.795   0.114  16.868 -0.3754 -0.2127 -0.3225
15492TIP3    H167967   0.706   0.098  16.837 -0.7534  1.5840 -0.2797
15492TIP3    H267968   0.789   0.108  16.963 -0.3674 -0.5113 -0.3411
15493TIP3   OH267969   5.092   3.904   1.907  0.4594 -0.6246  0.1301
15493TIP3    H167970   5.019   3.843   1.917 -0.8126  0.7430 -0.4550
15493TIP3    H267971   5.088   3.959   1.985  0.2993  0.0264 -0.3283
15494TIP3   OH267972   0.486   2.543   3.765 -0.1429 -0.2833  0.1935
15494TIP3    H167973   0.424   2.470   3.759 -1.5970  0.9694 -0.6846
15494TIP3    H267974   0.447   2.603   3.828 -0.0767  0.7213 -0.6778
15495TIP3   OH267975   1.306   4.669  14.467 -0.6299 -0.3454 -0.2746
15495TIP3    H167976   1.242   4.737  14.445  2.0354  1.8449 -1.7249
15495TIP3    H267977   1.289   4.599  14.404 -1.1760  0.4827 -1.0713
15496TIP3   OH267978   5.161   2.586  17.003  0.3885 -0.4914 -0.5281
15496TIP3    H167979   5.244   2.579  17.049  0.1192 -1.9082 -0.1964
15496TIP3    H267980   5.095   2.571  17.070 -0.1394  0.4068 -0.8290
15497TIP3   OH267981   1.192   6.820  14.850  0.1418 -0.1350 -0.1300
15497TIP3    H167982   1.227   6.731  14.843 -0.2918 -0.2757 -0.4919
15497TIP3    H267983   1.120   6.812  14.912  0.2683  0.0170  0.0383
15498TIP3   OH267984   0.065   4.539   2.578  0.3089  0.4566  0.3422
15498TIP3    H167985  -0.009   4.478   2.582 -1.1422  2.1492  0.4784
15498TIP3    H267986   0.066   4.581   2.664 -0.0618  2.0753 -0.4052
15499TIP3   OH267987   3.479   4.815  17.064  0.4459  0.0216  0.0014
15499TIP3    H167988   3.464   4.806  16.970  0.7286 -0.8045  0.0191
15499TIP3    H267989   3.404   4.772  17.104  0.8824 -0.6355  0.1315
15500TIP3   OH267990   5.400   0.275   0.552 -0.0292 -0.0330 -0.4534
15500TIP3    H167991   5.409   0.364   0.518 -0.9248  0.5252  0.6844
15500TIP3    H267992   5.463   0.271   0.625 -2.3352  0.8870  1.7328
15501TIP3   OH267993   2.053   0.164  15.179 -0.2344  0.0983  0.9106
15501TIP3    H167994   1.974   0.137  15.132 -0.1993 -0.1750  1.0121
15501TIP3    H267995   2.049   0.260  15.178 -0.2226  0.1008  0.3235
15502TIP3   OH267996   0.857   3.605   4.137  0.0763 -0.1045  0.3227
15502TIP3    H167997   0.783   3.650   4.179  0.3503 -0.7022  1.5088
15502TIP3    H267998   0.829   3.513   4.133  0.7484 -0.3341  0.7872
15503TIP3   OH267999   5.276   0.835  13.779  0.1321  0.1308 -0.1497
15503TIP3    H168000   5.284   0.801  13.690  0.5075 -1.2522  0.3985
15503TIP3    H268001   5.265   0.930  13.767  0.2060 -0.0273 -1.6565
15504TIP3   OH268002   3.831   6.536   5.907  0.1206 -0.0816 -0.2037
15504TIP3    H168003   3.808   6.517   5.998  1.7739 -2.5085 -0.1991
15504TIP3    H268004   3.884   6.616   5.912  0.2181 -0.2048  0.9708
15505TIP3   OH268005   2.795   5.734  13.210 -0.0431  0.7565  0.1624
15505TIP3    H168006   2.794   5.642  13.184 -0.1799  0.8048 -0.0043
15505TIP3    H268007   2.836   5.779  13.136 -0.2740  0.8723  0.1044
15506TIP3   OH268008   4.277   2.367  15.591  0.2435 -0.1584  0.0402
15506TIP3    H168009   4.190   2.407  15.597  1.0803  1.5453  3.0988
15506TIP3    H268010   4.264   2.279  15.627 -0.1086  0.4077  1.3766
15507TIP3   OH268011   6.229   2.174  13.465  0.0111  0.9666 -0.4004
15507TIP3    H168012   6.221   2.130  13.550  2.4701  0.9759 -0.0791
15507TIP3    H268013   6.143   2.213  13.449 -1.0291 -0.4993  1.2377
15508TIP3   OH268014   6.034   4.912   2.891 -0.1533 -0.6789 -0.4684
15508TIP3    H168015   6.040   4.947   2.980  0.9561  2.4118 -1.6308
15508TIP3    H268016   6.093   4.836   2.891 -0.1163 -0.6896  1.3816
15509TIP3   OH268017   3.615   0.634  12.322 -0.1761  0.9448  0.1248
15509TIP3    H168018   3.574   0.552  12.352  0.9080 -0.1885 -1.3151
15509TIP3    H268019   3.634   0.618  12.230  2.0467  1.9882  0.3347
15510TIP3   OH268020   3.686   0.541   3.024  0.4215 -0.0644 -0.6688
15510TIP3    H168021   3.720   0.490   3.098  0.6443  1.5979  0.4293
15510TIP3    H268022   3.764   0.576   2.981  0.3308  3.2271  1.4750
15511TIP3   OH268023   4.031   6.273   1.684 -0.0742 -0.6088  0.0161
15511TIP3    H168024   4.117   6.276   1.642  0.9913 -2.0345  1.9419
15511TIP3    H268025   4.037   6.337   1.755 -0.7120 -0.5177 -0.0055
15512TIP3   OH268026   3.383   3.922   3.987  0.4171 -0.0953  0.0689
15512TIP3    H168027   3.418   4.000   4.029  3.2018 -0.5825 -1.1085
15512TIP3    H268028   3.446   3.853   4.008 -2.3830 -2.3385  1.7794
15513TIP3   OH268029   5.002   4.793   1.579  0.2983  0.0608 -0.0320
15513TIP3    H168030   5.096   4.809   1.563  0.1833  1.8178  0.8337
15513TIP3    H268031   4.963   4.881   1.576 -1.5052 -0.7408 -1.4152
15514TIP3   OH268032   4.673   3.589   1.194  0.3325 -0.2706  0.2040
15514TIP3    H168033   4.640   3.502   1.216 -1.7526  0.6051  0.7771
15514TIP3    H268034   4.722   3.575   1.112 -1.2406 -1.7519 -0.5585
15515TIP3   OH268035   2.709   3.881  11.145 -0.0076  0.9585 -0.2080
15515TIP3    H168036   2.632   3.911  11.193 -1.0789 -1.0202 -0.5906
15515TIP3    H268037   2.725   3.793  11.178  1.2505  0.7966 -1.1531
15516TIP3   OH268038   2.278   4.898   6.079  0.2127 -0.7478 -0.3663
15516TIP3    H168039   2.372   4.903   6.096  0.7750  0.5504 -3.1458
15516TIP3    H268040   2.242   4.976   6.121  0.7568 -0.1279 -1.0168
15517TIP3   OH268041   4.214   2.131  14.803 -0.0471  0.0720 -0.1024
15517TIP3    H168042   4.191   2.071  14.732  0.4812 -0.9659  0.5828
15517TIP3    H268043   4.157   2.207  14.789 -0.7440 -0.5822 -0.9762
15518TIP3   OH268044   3.957   5.837   5.241  0.3570  0.1157 -0.0634
15518TIP3    H168045   4.032   5.779   5.228  0.3633 -0.5691  2.4893
15518TIP3    H268046   3.979   5.887   5.319 -1.6323  0.2307  0.4765
15519TIP3   OH268047   0.397   0.413  15.522  0.4246 -0.0251 -0.1434
15519TIP3    H168048   0.324   0.394  15.581  0.4440  2.1664  0.6525
15519TIP3    H268049   0.418   0.328  15.482 -1.5984 -0.9651  0.6760
15520TIP3   OH268050   6.185   3.137  11.165  0.3521  0.5237 -0.4259
15520TIP3    H168051   6.092   3.160  11.174  0.5912  1.1429  0.7110
15520TIP3    H268052   6.195   3.113  11.073 -1.4272 -1.8182 -0.1026
15521TIP3   OH268053   4.718   6.400  11.827  0.4959 -0.3787  1.0091
15521TIP3    H168054   4.674   6.346  11.761  1.2670 -1.0126  0.9968
15521TIP3    H268055   4.760   6.470  11.777  1.1939 -0.9352  0.7970
15522TIP3   OH268056   3.624   3.879  11.598  0.0166 -0.6491  0.0335
15522TIP3    H168057   3.564   3.954  11.601  2.3673  1.3806 -0.5348
15522TIP3    H268058   3.587   3.822  11.530 -2.1454 -0.3677  0.8814
15523TIP3   OH268059   1.771   2.037   5.235  0.2977  0.0325 -0.0034
15523TIP3    H168060   1.741   2.113   5.186  2.1371  1.1663  0.5579
15523TIP3    H268061   1.804   2.073   5.318  4.5763 -0.8210 -1.1169
15524TIP3   OH268062   0.748   0.684   1.629 -0.1130 -0.3470  0.8288
15524TIP3    H168063   0.713   0.603   1.593  0.7704 -0.3003 -0.2097
15524TIP3    H268064   0.757   0.742   1.553  2.7558 -0.5863  0.8779
15525TIP3   OH268065   1.438   2.098   5.262  0.1331 -0.4755 -0.5499
15525TIP3    H168066   1.415   2.093   5.355  2.8866 -0.7862  0.2066
15525TIP3    H268067   1.370   2.047   5.217 -1.3775 -0.1236  1.2346
15526TIP3   OH268068   3.547   4.586  16.562 -0.0865 -0.1916  0.4823
15526TIP3    H168069   3.464   4.537  16.565  0.4600 -1.1491  0.3333
15526TIP3    H268070   3.526   4.664  16.510 -0.2330 -1.7980 -2.0534
15527TIP3   OH268071   0.779   4.518   3.839  0.4126  0.0315 -0.1500
15527TIP3    H168072   0.714   4.563   3.786  0.7541 -0.5152 -1.0538
15527TIP3    H268073   0.793   4.576   3.914 -1.2749  0.0442  0.1913
15528TIP3   OH268074   2.750   4.111  16.805 -0.2766 -0.2585 -0.0216
15528TIP3    H168075   2.661   4.087  16.779 -0.0760 -2.1143  0.7949
15528TIP3    H268076   2.759   4.075  16.894  0.9467  0.8209  0.3188
15529TIP3   OH268077   0.596   3.397   2.626 -0.2471 -0.1253  0.2110
15529TIP3    H168078   0.575   3.458   2.555  0.9245 -0.4756 -0.4478
15529TIP3    H268079   0.690   3.408   2.640  0.6889 -3.7611 -1.9223
15530TIP3   OH268080   5.707   5.001   1.887 -0.2537  0.3259 -0.5118
15530TIP3    H168081   5.714   5.090   1.853  1.3438  0.5134  0.2239
15530TIP3    H268082   5.679   5.013   1.978  0.0637  0.0829 -0.3803
15531TIP3   OH268083   3.012   6.339  15.663 -0.5908 -0.2288 -0.0839
15531TIP3    H168084   2.976   6.346  15.752  0.2663 -0.2162  0.2808
15531TIP3    H268085   3.054   6.253  15.661  0.2673  0.1806 -0.1256
15532TIP3   OH268086   3.644   4.806   4.342 -0.3534  0.3669 -0.6125
15532TIP3    H168087   3.568   4.833   4.393 -0.6076 -0.7594 -0.3570
15532TIP3    H268088   3.653   4.873   4.274 -1.2985  0.7520 -0.3744
15533TIP3   OH268089   4.114   3.356  12.919 -0.1287  0.0748 -0.5900
15533TIP3    H168090   4.163   3.431  12.952  0.7942 -0.0956 -1.5077
15533TIP3    H268091   4.040   3.393  12.872 -1.0323  0.3347  0.9527
15534TIP3   OH268092   5.645   4.503   4.443 -0.0640 -0.0568  0.3329
15534TIP3    H168093   5.586   4.537   4.510  0.5190  1.3490  0.1671
15534TIP3    H268094   5.619   4.549   4.363  0.8022  0.0626  0.1104
15535TIP3   OH268095   0.614   3.570   5.841 -0.3997  0.5983 -0.0055
15535TIP3    H168096   0.615   3.512   5.917 -1.9595  1.7122  0.9041
15535TIP3    H268097   0.532   3.549   5.796  0.4366  0.0555 -1.3351
15536TIP3   OH268098   4.016   3.987  13.094  0.4075 -0.3282 -0.5885
15536TIP3    H168099   3.948   4.046  13.061  0.9649  0.1774 -0.8547
15536TIP3    H268100   3.991   3.970  13.185 -0.6948 -1.0702 -1.0030
15537TIP3   OH268101   3.544   2.345   2.295 -0.4293  0.1112  0.0445
15537TIP3    H168102   3.507   2.385   2.216  2.7996 -1.4737 -2.5109
15537TIP3    H268103   3.481   2.276   2.318 -1.5739  0.7836 -0.9305
15538TIP3   OH268104   4.654   0.287   5.441  0.5548 -0.5990 -0.1204
15538TIP3    H168105   4.600   0.349   5.491  2.1196  0.1498  0.7259
15538TIP3    H268106   4.691   0.340   5.370  1.4625 -0.6803  0.2809
15539TIP3   OH268107   3.417   2.800   2.740 -0.5311  0.3287 -0.4422
15539TIP3    H168108   3.418   2.812   2.835  3.3146 -1.2050 -0.1184
15539TIP3    H268109   3.348   2.736   2.726  0.5297 -1.4512  1.7527
15540TIP3   OH268110   2.169   0.743   5.546 -0.1336 -0.9970 -0.1087
15540TIP3    H168111   2.203   0.830   5.567  0.2720 -0.9524 -0.9111
15540TIP3    H268112   2.119   0.718   5.623 -1.4187  0.5265 -0.3788
15541TIP3   OH268113   5.141   4.735   3.807  0.2659  0.1784 -0.1174
15541TIP3    H168114   5.179   4.721   3.721 -0.3692  1.2911 -0.5978
15541TIP3    H268115   5.076   4.804   3.794  0.0198  0.2277  1.2111
15542TIP3   OH268116   0.725   4.883  14.590  0.2394 -0.1972  0.5928
15542TIP3    H168117   0.731   4.963  14.538 -0.9509 -0.4007  0.1080
15542TIP3    H268118   0.712   4.813  14.526 -0.4814 -0.5470  1.0966
15543TIP3   OH268119   5.317   3.494   3.404 -0.4687 -0.0056  0.1931
15543TIP3    H168120   5.276   3.571   3.443 -1.1972  0.6187 -1.6941
15543TIP3    H268121   5.280   3.420   3.452 -1.2056  0.7271  0.7783
15544TIP3   OH268122   2.669   1.115   3.184 -0.6809  0.4028 -0.4543
15544TIP3    H168123   2.609   1.088   3.115  0.7326 -1.8867 -0.9106
15544TIP3    H268124   2.690   1.206   3.163 -2.4674  0.6412 -1.3743
15545TIP3   OH268125   1.842   2.159  16.062  0.4497  0.0857  0.4274
15545TIP3    H168126   1.835   2.254  16.055  1.0612  0.0983 -0.1735
15545TIP3    H268127   1.935   2.141  16.050  0.2800 -0.6175  0.1153
15546TIP3   OH268128   0.791   6.182  16.018 -0.7697 -0.1786 -0.0948
15546TIP3    H168129   0.795   6.255  15.957  0.9549 -0.4354 -0.3504
15546TIP3    H268130   0.744   6.113  15.970 -1.1585  0.2840 -0.3805
15547TIP3   OH268131   5.016   2.946  13.135 -0.1328 -0.4127  0.1183
15547TIP3    H168132   5.094   2.980  13.180  0.7181 -1.4622 -0.5055
15547TIP3    H268133   5.034   2.852  13.124  0.1660 -0.0607 -3.2477
15548TIP3   OH268134   0.774   1.838   2.397 -0.7603  0.4723 -0.3676
15548TIP3    H168135   0.758   1.926   2.432 -1.0022  0.4370 -0.3874
15548TIP3    H268136   0.845   1.849   2.335 -1.6980  0.9008 -1.3984
15549TIP3   OH268137   4.751   5.717   2.655 -0.4436 -0.4262 -0.0286
15549TIP3    H168138   4.728   5.652   2.722 -2.0935 -0.1481 -0.3031
15549TIP3    H268139   4.847   5.720   2.658 -0.3704 -2.1216  0.7006
15550TIP3   OH268140   3.588   5.440  13.737  0.0363 -0.1957  0.2816
15550TIP3    H168141   3.601   5.507  13.670  0.0424  0.1552  0.6318
15550TIP3    H268142   3.538   5.484  13.806  0.7369 -0.3083  0.8757
15551TIP3   OH268143   1.239   6.509   5.778  0.2227 -0.3089 -0.2228
15551TIP3    H168144   1.207   6.499   5.688 -2.3271  0.9311  0.4614
15551TIP3    H268145   1.319   6.562   5.769 -0.9128  1.2866 -1.6805
15552TIP3   OH268146   5.682   4.525  13.202  0.0925 -0.1957 -0.4934
15552TIP3    H168147   5.655   4.551  13.114  1.3745 -0.4271 -0.9696
15552TIP3    H268148   5.653   4.434  13.210  0.5340 -0.3792 -0.9249
15553TIP3   OH268149   5.848   3.769   2.005 -0.5833  0.7095 -0.1439
15553TIP3    H168150   5.870   3.750   1.914  1.2849  0.2131  0.3782
15553TIP3    H268151   5.855   3.685   2.049  1.7570  1.4309  1.0292
15554TIP3   OH268152   5.882   3.195   4.548 -0.2287  0.4175 -0.4478
15554TIP3    H168153   5.893   3.242   4.465 -0.3734  0.7421 -0.2853
15554TIP3    H268154   5.925   3.251   4.613 -1.8763  1.1877  0.0289
15555TIP3   OH268155   3.189   2.963   0.525  0.0064 -0.2862 -0.0686
15555TIP3    H168156   3.155   2.996   0.608  1.3970  1.2331 -0.0472
15555TIP3    H268157   3.129   2.893   0.500 -0.2384 -1.0244  2.3865
15556TIP3   OH268158   2.173   3.089  11.951  0.3773 -0.1271  0.1156
15556TIP3    H168159   2.204   3.041  11.875 -2.1515 -0.9526 -0.4646
15556TIP3    H268160   2.213   3.176  11.943  0.6856 -0.4161 -1.7680
15557TIP3   OH268161   2.662   0.039  16.404  0.1910 -0.0691  0.0538
15557TIP3    H168162   2.637   0.110  16.462 -0.7269 -0.4815  0.1799
15557TIP3    H268163   2.739   0.072  16.357  1.6692 -0.1294  2.2769
15558TIP3   OH268164   6.361   4.870   2.626  0.0418 -0.2810 -0.4504
15558TIP3    H168165   6.272   4.903   2.637 -0.6313 -1.3778 -2.1470
15558TIP3    H268166   6.383   4.891   2.535  1.5899  0.0913 -0.0256
15559TIP3   OH268167   4.936   0.661   2.542 -0.4689 -0.0012  0.6594
15559TIP3    H168168   4.874   0.619   2.483 -0.8190 -0.4812  1.3529
15559TIP3    H268169   4.889   0.669   2.625 -0.0724  0.8947  0.8106
15560TIP3   OH268170   6.352   2.818   1.346  0.4277 -0.1202  0.5364
15560TIP3    H168171   6.296   2.741   1.350  1.5451 -1.2407 -2.2302
15560TIP3    H268172   6.439   2.786   1.369  1.4164 -0.4839 -3.0025
15561TIP3   OH268173   5.278   0.800  14.144  0.0072 -0.2585  0.0281
15561TIP3    H168174   5.202   0.852  14.116  0.1864 -0.2483 -0.4487
15561TIP3    H268175   5.252   0.763  14.228 -0.1037  0.6491  0.4073
15562TIP3   OH268176   5.964   6.366  16.954 -0.3873 -0.1118 -0.1842
15562TIP3    H168177   6.001   6.426  16.889  0.8817 -0.0267  0.5832
15562TIP3    H268178   5.919   6.300  16.902 -1.4549  1.2436 -1.0660
15563TIP3   OH268179   1.214   6.725   4.446 -0.1708 -0.0458  0.4176
15563TIP3    H168180   1.183   6.669   4.374 -2.0649  0.8061  0.5261
15563TIP3    H268181   1.237   6.663   4.516  0.2522 -0.8042 -0.3747
15564TIP3   OH268182   4.477   0.322  15.099 -0.4170 -0.2358  0.3076
15564TIP3    H168183   4.430   0.388  15.150 -0.7510 -0.0737 -0.2032
15564TIP3    H268184   4.529   0.373  15.037  1.2639 -0.3681  1.5370
15565TIP3   OH268185   0.180   6.175   4.567  0.3841 -0.1347  0.1999
15565TIP3    H168186   0.191   6.154   4.660  0.4987 -0.6132  0.0786
15565TIP3    H268187   0.269   6.174   4.531  0.2335 -1.0795 -0.1556
15566TIP3   OH268188   2.542   6.127  15.351  0.2739 -0.2266 -0.0421
15566TIP3    H168189   2.569   6.037  15.368 -0.5173 -0.4363  0.1692
15566TIP3    H268190   2.500   6.156  15.432  0.7844  0.4348 -0.0090
15567TIP3   OH268191   5.009   1.390   1.984  0.3645  0.2143  0.0003
15567TIP3    H168192   5.040   1.475   2.014  0.6783  0.3670 -0.7477
15567TIP3    H268193   4.996   1.400   1.890 -0.1140 -0.4092 -0.0094
15568TIP3   OH268194   1.806   5.868   3.777  0.4060  0.3137 -0.6309
15568TIP3    H168195   1.775   5.947   3.733  0.6935  1.5455  1.2319
15568TIP3    H268196   1.739   5.849   3.843 -0.4696 -2.0094 -2.0908
15569TIP3   OH268197   3.567   0.150   3.661  0.4516  0.5103  0.4171
15569TIP3    H168198   3.612   0.163   3.577 -0.5358  1.4194  0.0034
15569TIP3    H268199   3.484   0.197   3.651 -1.3322 -2.3103  0.5542
15570TIP3   OH268200   6.621   6.668  15.175  0.4207  0.2940 -0.1463
15570TIP3    H168201   6.593   6.577  15.170  0.5783  0.1578  1.1145
15570TIP3    H268202   6.707   6.664  15.217 -0.1635  1.1001  1.2092
15571TIP3   OH268203   5.554   5.546   0.887  0.4958 -0.6111 -0.0901
15571TIP3    H168204   5.485   5.489   0.853  0.2858 -0.5737  0.2690
15571TIP3    H268205   5.591   5.497   0.962 -1.1086  0.6127  1.5824
15572TIP3   OH268206   0.292   1.364   4.240 -0.0310  0.0160 -0.4924
15572TIP3    H168207   0.236   1.287   4.251  1.1874 -1.0348 -1.3995
15572TIP3    H268208   0.230   1.437   4.232 -1.1986 -0.6678  1.4251
15573TIP3   OH268209   3.495   6.563   4.791  0.4619 -0.0542 -0.3849
15573TIP3    H168210   3.426   6.595   4.732  1.1734  0.3354 -1.0201
15573TIP3    H268211   3.453   6.492   4.840 -0.2521 -0.1464 -1.1008
15574TIP3   OH268212   1.589   6.038  14.483 -0.3364  0.2767 -0.6069
15574TIP3    H168213   1.551   6.101  14.422  0.3951 -0.2422 -1.6214
15574TIP3    H268214   1.659   6.086  14.527 -1.1183  0.7670  0.1331
15575TIP3   OH268215   1.328   3.211  11.127  0.2010 -0.2381  0.3173
15575TIP3    H168216   1.234   3.230  11.137  0.3486  1.4832 -0.9758
15575TIP3    H268217   1.334   3.169  11.041  0.7773  1.3027 -0.4241
15576TIP3   OH268218   3.855   0.627  14.139  0.0425 -0.3765  0.2743
15576TIP3    H168219   3.918   0.657  14.074  0.6587  0.4149  1.2040
15576TIP3    H268220   3.825   0.707  14.182 -0.7684 -0.8396  0.5840
15577TIP3   OH268221   3.404   1.707   2.352  0.3777  0.1863 -0.2111
15577TIP3    H168222   3.423   1.678   2.263  1.8672  0.3711  0.0239
15577TIP3    H268223   3.484   1.690   2.401 -0.4367  0.0040  1.1307
15578TIP3   OH268224   3.710   3.161  14.522  0.2046  0.0787  0.0127
15578TIP3    H168225   3.619   3.133  14.533 -0.1812  1.6225  1.0700
15578TIP3    H268226   3.707   3.256  14.521  1.8217  0.1713  0.1829
15579TIP3   OH268227   0.222   5.400  12.025  0.1456  0.7193 -0.2424
15579TIP3    H168228   0.252   5.363  11.943  0.5670 -0.4503  0.4264
15579TIP3    H268229   0.278   5.362  12.092 -1.0536  0.5982  0.7401
15580TIP3   OH268230   3.806   5.781  12.888  0.1126  0.0539  0.1790
15580TIP3    H168231   3.869   5.766  12.959 -0.0268  0.5375  0.4090
15580TIP3    H268232   3.860   5.788  12.809  0.2320 -1.0383  0.1410
15581TIP3   OH268233   0.178   2.325  12.832  0.2340 -0.7003 -0.1948
15581TIP3    H168234   0.112   2.338  12.764 -0.4065 -0.2341  0.5074
15581TIP3    H268235   0.226   2.408  12.836  2.7950 -1.8648 -2.6408
15582TIP3   OH268236   4.375   0.467  14.125 -0.2725  0.0649 -0.5441
15582TIP3    H168237   4.453   0.460  14.180 -0.9973 -1.4163  0.3750
15582TIP3    H268238   4.337   0.379  14.126 -0.3708 -0.0321 -3.3932
15583TIP3   OH268239   1.237   1.870   3.751 -0.3219  0.6143  0.5536
15583TIP3    H168240   1.316   1.833   3.710  0.6016  1.4440  1.5133
15583TIP3    H268241   1.267   1.900   3.837 -1.9824 -0.1837  1.4522
15584TIP3   OH268242   2.852   0.065   5.249 -0.0925  0.5101 -0.6499
15584TIP3    H168243   2.891   0.148   5.278 -0.4884  0.5183 -0.1203
15584TIP3    H268244   2.910  -0.002   5.285  0.6703  0.5606 -1.7385
15585TIP3   OH268245   4.807   5.470   0.633  0.6350 -0.4215 -0.1115
15585TIP3    H168246   4.746   5.447   0.563  0.6544  2.1114 -1.0516
15585TIP3    H268247   4.892   5.478   0.590  0.5045  1.9770 -0.0500
15586TIP3   OH268248   2.212   0.694   1.738  0.5890 -0.4006  0.0867
15586TIP3    H168249   2.292   0.695   1.791  0.0688 -0.9466  0.9030
15586TIP3    H268250   2.224   0.766   1.676  1.2035  0.2862  0.9629
15587TIP3   OH268251   0.633   5.077   1.649 -0.6977  0.2225  0.3477
15587TIP3    H168252   0.576   5.060   1.574  0.5151  0.7062 -0.7302
15587TIP3    H268253   0.582   5.049   1.725 -1.7300 -0.8578 -0.6940
15588TIP3   OH268254   1.326   4.147   6.244  0.4600  0.3375  0.1149
15588TIP3    H168255   1.240   4.184   6.261  0.8200  0.2894  2.3460
15588TIP3    H268256   1.309   4.072   6.186 -0.7564  1.3827 -0.9245
15589TIP3   OH268257   5.052   3.319   1.201 -0.5653  0.3777  0.4022
15589TIP3    H168258   5.116   3.358   1.141 -0.4344 -1.6838 -0.9331
15589TIP3    H268259   4.973   3.306   1.147 -0.2580 -2.0636  0.4008
15590TIP3   OH268260   1.896   1.628   3.125  0.6234 -0.1555 -0.1025
15590TIP3    H168261   1.875   1.718   3.098 -0.5042  0.1899  1.7720
15590TIP3    H268262   1.953   1.595   3.055 -1.0244  1.1156 -2.1627
15591TIP3   OH268263   4.046   1.284  16.620  0.2361  0.4488 -0.4003
15591TIP3    H168264   4.088   1.227  16.556 -1.9178 -1.6891 -0.0789
15591TIP3    H268265   4.115   1.305  16.682  1.0183 -2.6497 -0.0294
15592TIP3   OH268266   2.389   1.832  12.579  0.2407 -0.7729  0.6082
15592TIP3    H168267   2.397   1.844  12.485 -2.0102  1.8978  0.6160
15592TIP3    H268268   2.460   1.885  12.616  0.2974 -0.7169  0.4211
15593TIP3   OH268269   5.401   5.872   3.394  0.2959  0.2908 -0.5452
15593TIP3    H168270   5.424   5.947   3.339  2.7047  0.1153  0.1039
15593TIP3    H268271   5.394   5.908   3.482 -0.2601  0.0312 -0.4802
15594TIP3   OH268272   1.132   5.818  13.626 -0.5368  0.5238  0.0335
15594TIP3    H168273   1.112   5.860  13.710 -0.8059  1.8655 -0.6724
15594TIP3    H268274   1.223   5.842  13.608  0.9930 -3.1016  1.8025
15595TIP3   OH268275   0.759   1.918   2.907  0.0560  0.2265 -0.1603
15595TIP3    H168276   0.681   1.952   2.865  0.1568  2.1879  1.1165
15595TIP3    H268277   0.731   1.835   2.946 -0.8857  0.0253 -1.2241
15596TIP3   OH268278   0.603   5.658   4.115  0.4256 -1.0174 -0.2740
15596TIP3    H168279   0.638   5.575   4.148 -1.7179 -1.8110  0.1317
15596TIP3    H268280   0.514   5.637   4.088 -0.0368  1.0948 -0.4974
15597TIP3   OH268281   5.512   0.336  10.926  0.2310  0.4485 -0.1566
15597TIP3    H168282   5.570   0.274  10.883  0.0210 -0.1674  0.4257
15597TIP3    H268283   5.425   0.317  10.889  0.1512  0.3247  0.0891
15598TIP3   OH268284   6.155   0.369   2.857 -0.3633 -0.3095 -0.4668
15598TIP3    H168285   6.227   0.339   2.802  0.9136  3.2442 -0.9928
15598TIP3    H268286   6.176   0.337   2.945  0.5103 -1.4027 -1.0506
15599TIP3   OH268287   2.068   6.825  12.840  0.1808 -0.2163 -0.2138
15599TIP3    H168288   2.066   6.882  12.917  0.9352  0.5061 -0.7189
15599TIP3    H268289   2.008   6.753  12.863  0.4022 -0.0327  1.0546
15600TIP3   OH268290   6.461   0.174   0.201 -0.1080  0.7154 -0.3511
15600TIP3    H168291   6.541   0.157   0.151  1.0415  0.7365  1.3855
15600TIP3    H268292   6.444   0.268   0.187  0.8904  0.9950  0.2317
15601TIP3   OH268293   0.165   0.340  15.160  0.5789  0.1474 -0.3908
15601TIP3    H168294   0.181   0.434  15.161 -0.9401  0.4934 -2.2524
15601TIP3    H268295   0.232   0.305  15.101 -0.5229  0.4822 -1.8857
15602TIP3   OH268296   2.162   4.986  10.929 -0.0865 -0.2657  0.2442
15602TIP3    H168297   2.081   4.970  10.977  0.4154 -1.1964  0.8182
15602TIP3    H268298   2.146   5.066  10.879 -1.0731 -0.0092  0.9583
15603TIP3   OH268299   3.386   1.435   0.882 -0.2611 -0.6875 -0.0140
15603TIP3    H168300   3.353   1.524   0.865 -0.0145 -0.8304 -1.3953
15603TIP3    H268301   3.448   1.446   0.954 -0.5278  0.2016  0.0972
15604TIP3   OH268302   5.212   1.739  12.636 -0.1642  0.1676  0.1089
15604TIP3    H168303   5.164   1.797  12.695 -1.3381  0.0982 -0.7359
15604TIP3    H268304   5.195   1.651  12.669  2.4548  0.2350  2.0164
15605TIP3   OH268305   5.180   6.302  12.905 -0.1562  0.0435 -0.1311
15605TIP3    H168306   5.153   6.392  12.923 -1.1421 -0.3189  0.2721
15605TIP3    H268307   5.191   6.263  12.992 -1.9059 -0.8341 -0.2590
15606TIP3   OH268308   5.569   5.222  14.604 -0.0304 -0.0115  0.0786
15606TIP3    H168309   5.482   5.198  14.636 -0.1324  0.1799 -0.0535
15606TIP3    H268310   5.555   5.252  14.515  0.2066 -0.2119 -0.0280
15607TIP3   OH268311   6.152   2.175  11.304  0.6910 -0.0918  0.1603
15607TIP3    H168312   6.222   2.211  11.248 -0.9550  1.7463 -0.8688
15607TIP3    H268313   6.074   2.181  11.250 -0.1920 -2.8810  0.9719
15608TIP3   OH268314   4.469   2.836  11.415 -0.1382  0.2905 -0.4852
15608TIP3    H168315   4.438   2.885  11.491 -1.8218 -0.3630 -0.6894
15608TIP3    H268316   4.481   2.902  11.347  1.7552  0.9317  0.4199
15609TIP3   OH268317   1.799   4.572   5.796  0.0871 -0.1591 -0.3414
15609TIP3    H168318   1.746   4.496   5.773 -0.9900  0.0004  1.4100
15609TIP3    H268319   1.835   4.551   5.882  0.7270  0.8386 -0.3446
15610TIP3   OH268320   0.380   2.847   1.168 -0.4604 -0.6261  0.1502
15610TIP3    H168321   0.452   2.882   1.221 -0.0606 -0.8646 -0.2262
15610TIP3    H268322   0.407   2.863   1.077 -1.3884  0.2886  0.0177
15611TIP3   OH268323   0.545   2.046  11.443  0.2287 -1.1062  0.2867
15611TIP3    H168324   0.480   1.976  11.439 -1.0654 -0.0502  1.7790
15611TIP3    H268325   0.628   2.000  11.456 -0.6965 -2.3691  2.2108
15612TIP3   OH268326   5.327   1.170  15.060 -0.2197  0.0868  0.0700
15612TIP3    H168327   5.336   1.077  15.040 -1.5805 -0.0756  0.0612
15612TIP3    H268328   5.248   1.197  15.011  0.3661  1.3358 -0.2384
15613TIP3   OH268329   1.058   4.742   1.659  0.6509  0.3252  0.1978
15613TIP3    H168330   1.020   4.766   1.574  0.0177  0.0398  0.3932
15613TIP3    H268331   1.138   4.794   1.665  1.3564 -0.5575 -1.1039
15614TIP3   OH268332   0.197   0.889   0.158  0.7431 -0.7549 -0.0615
15614TIP3    H168333   0.262   0.880   0.228 -1.1882 -2.5115  1.6161
15614TIP3    H268334   0.159   0.976   0.172 -0.6560 -1.6396  2.1039
15615TIP3   OH268335   5.523   4.770   3.655  0.1589 -0.4222 -0.4405
15615TIP3    H168336   5.519   4.721   3.573 -0.0454 -2.0120  0.4654
15615TIP3    H268337   5.565   4.710   3.717  0.4699  0.7980  0.5836
15616TIP3   OH268338   1.786   2.247   3.251 -0.7733  0.2039  0.0653
15616TIP3    H168339   1.734   2.168   3.262  1.2346 -1.4410 -1.3654
15616TIP3    H268340   1.876   2.221   3.273 -0.0683  2.1249 -0.2754
15617TIP3   OH268341   6.470   4.918  12.346  0.2741 -0.8073 -0.4174
15617TIP3    H168342   6.417   4.993  12.319  0.0778 -0.5888  0.5632
15617TIP3    H268343   6.529   4.953  12.413  1.6910 -1.0338 -1.4921
15618TIP3   OH268344   1.293   0.564   5.590  0.1462  0.1326  0.2367
15618TIP3    H168345   1.328   0.570   5.501 -0.8361  1.0934 -0.1158
15618TIP3    H268346   1.238   0.642   5.599  0.8656  0.4873  1.9827
15619TIP3   OH268347   3.456   6.490   1.782 -0.0891 -0.2300  0.3000
15619TIP3    H168348   3.459   6.584   1.801 -0.8052 -0.0124 -0.5883
15619TIP3    H268349   3.510   6.450   1.850  0.0401  0.8031  0.8250
15620TIP3   OH268350   3.170   1.948  16.245  0.5615 -0.6810 -0.2905
15620TIP3    H168351   3.254   1.993  16.232 -0.0146  0.3622 -0.5251
15620TIP3    H268352   3.180   1.902  16.328  0.2655  2.1317  1.4411
15621TIP3   OH268353   1.735   2.533  14.726  0.0693  0.3786  0.0769
15621TIP3    H168354   1.810   2.476  14.742  0.8470  1.4034  0.2223
15621TIP3    H268355   1.729   2.586  14.805 -0.3007  0.8538 -0.2661
15622TIP3   OH268356   5.078   4.057   0.882  0.0896 -0.2844  0.5522
15622TIP3    H168357   5.132   4.098   0.949  0.3076 -0.2439  0.3529
15622TIP3    H268358   5.130   4.063   0.802  0.1735 -1.0453  0.5356
15623TIP3   OH268359   4.608   6.593   5.397  0.2894  0.1107 -0.2992
15623TIP3    H168360   4.551   6.591   5.320  1.1151  0.1049 -0.9146
15623TIP3    H268361   4.620   6.686   5.416 -0.4139  0.1124  0.2185
15624TIP3   OH268362   6.339   6.303  11.029  0.1540 -0.4331 -0.3462
15624TIP3    H168363   6.327   6.360  11.105 -1.6419 -1.9386  0.5685
15624TIP3    H268364   6.250   6.274  11.007  0.8705 -1.6868 -1.7136
15625TIP3   OH268365   0.994   1.394   3.172 -0.0134 -0.2108 -0.6766
15625TIP3    H168366   0.904   1.364   3.158 -0.1518  0.0434 -0.3470
15625TIP3    H268367   1.005   1.390   3.267  0.6711 -1.2284 -0.7814
15626TIP3   OH268368   2.916   2.036  13.587 -0.3599  0.2620  0.2739
15626TIP3    H168369   2.936   2.035  13.494 -0.9639 -0.1977  0.1456
15626TIP3    H268370   2.824   2.012  13.592 -0.1407 -0.4437  1.0403
15627TIP3   OH268371   1.875   0.102  14.965  0.2544 -0.1314 -0.0722
15627TIP3    H168372   1.848   0.194  14.957 -1.4468 -0.6123 -0.4295
15627TIP3    H268373   1.910   0.080  14.879 -1.5518 -0.4367 -0.7703
15628TIP3   OH268374   2.111   1.430  16.353  0.0083 -0.8407  0.1095
15628TIP3    H168375   2.077   1.346  16.382 -0.0919 -0.1432  2.1523
15628TIP3    H268376   2.050   1.458  16.284 -0.5518 -1.9555  0.1378
15629TIP3   OH268377   0.003   0.202  16.334 -0.0849 -0.0641  0.1681
15629TIP3    H168378   0.036   0.135  16.275 -1.0557  0.2076 -0.7153
15629TIP3    H268379  -0.089   0.179  16.349  0.8210 -1.9134  4.1271
15630TIP3   OH268380   1.072   1.910  14.300 -0.2515  0.0788  0.3528
15630TIP3    H168381   1.031   1.951  14.224 -0.7983 -1.0972 -0.0005
15630TIP3    H268382   1.034   1.956  14.375 -0.9888  0.0892 -0.0237
15631TIP3   OH268383   2.580   2.526   2.385  0.3105  0.0651  0.3344
15631TIP3    H168384   2.673   2.542   2.400  1.0355  0.3482 -3.4959
15631TIP3    H268385   2.538   2.610   2.403  1.3219  0.8920 -0.9145
15632TIP3   OH268386   2.838   5.809   2.842 -0.6468 -0.2348 -0.5325
15632TIP3    H168387   2.860   5.902   2.849 -0.1023 -0.3180 -1.0200
15632TIP3    H268388   2.753   5.808   2.798 -0.6225  0.0325 -0.5876
15633TIP3   OH268389   5.325   1.558  11.393 -0.8047  0.1174  0.1536
15633TIP3    H168390   5.287   1.487  11.444  0.0529  0.1159  0.8266
15633TIP3    H268391   5.333   1.631  11.455 -1.9628  0.9249 -0.6013
15634TIP3   OH268392   5.273   3.356   2.341  0.2971 -0.0658  0.5485
15634TIP3    H168393   5.267   3.362   2.246  2.2274  1.8323  0.4946
15634TIP3    H268394   5.365   3.372   2.361 -0.1630  0.1264  2.7751
15635TIP3   OH268395   3.086   5.197  15.675  0.0995  0.3022 -0.6766
15635TIP3    H168396   3.118   5.177  15.763 -0.3550 -0.0506 -0.5881
15635TIP3    H268397   3.065   5.112  15.637 -1.1894  0.5493 -0.5518
15636TIP3   OH268398   1.915   0.452  15.175  0.1801 -0.0463  0.0655
15636TIP3    H168399   1.857   0.427  15.103  0.6597 -1.5837  0.1775
15636TIP3    H268400   1.959   0.532  15.143 -1.4991  0.8050 -0.2605
15637TIP3   OH268401   2.825   3.172  12.741  0.4706  0.0845  0.0568
15637TIP3    H168402   2.732   3.166  12.721  0.4473  1.0037 -0.1678
15637TIP3    H268403   2.829   3.221  12.823  0.7942  1.2340 -0.6183
15638TIP3   OH268404   2.836   5.142  14.766  0.2249 -0.8592 -0.1428
15638TIP3    H168405   2.924   5.158  14.731  0.6449  0.0900  1.2430
15638TIP3    H268406   2.839   5.177  14.855 -1.6436 -0.5430 -0.1541
15639TIP3   OH268407   2.884   0.599  12.875  0.3015 -0.7582  0.0146
15639TIP3    H168408   2.856   0.579  12.786  0.0873  0.3198 -0.1747
15639TIP3    H268409   2.868   0.518  12.924 -1.0809 -0.8701 -0.5693
15640TIP3   OH268410   4.751   1.934   2.224 -0.0401  0.0257 -0.7925
15640TIP3    H168411   4.846   1.922   2.219 -0.0723  0.0313 -1.4570
15640TIP3    H268412   4.739   2.028   2.236 -0.0107  0.2846 -2.5652
15641TIP3   OH268413   1.317   4.650  11.182 -0.0891  0.3285  0.2515
15641TIP3    H168414   1.412   4.637  11.183 -0.0992  0.1611  1.5851
15641TIP3    H268415   1.282   4.575  11.134  0.2537 -1.5782  2.7693
15642TIP3   OH268416   3.948   6.786   5.673 -0.0127  0.7282  0.3411
15642TIP3    H168417   3.926   6.790   5.766 -0.9302 -1.9472  0.3419
15642TIP3    H268418   3.864   6.785   5.628  0.3719  0.5347 -0.3938
15643TIP3   OH268419   0.093   4.983   0.046 -0.2728  0.2410 -0.0874
15643TIP3    H168420   0.187   5.003   0.056 -0.4158  1.0661 -0.2897
15643TIP3    H268421   0.077   4.911   0.107  0.9174 -1.2702 -1.4479
15644TIP3   OH268422   2.352   5.962   4.291  0.3822 -0.0834  0.5164
15644TIP3    H168423   2.317   5.975   4.203  0.5114  0.8592  0.5919
15644TIP3    H268424   2.289   5.903   4.334 -1.0866  1.4851  0.6241
15645TIP3   OH268425   3.085   1.496   0.120 -0.1705  0.0578  0.4784
15645TIP3    H168426   3.073   1.425   0.057  2.7517 -1.1323  1.0791
15645TIP3    H268427   3.058   1.458   0.204  1.4548 -0.4632  0.8102
15646TIP3   OH268428   0.163   5.517  12.627  0.2345 -0.0843 -0.1554
15646TIP3    H168429   0.132   5.438  12.582 -0.7880  1.1425 -1.7329
15646TIP3    H268430   0.232   5.486  12.685  0.5794 -1.9892 -1.4771
15647TIP3   OH268431   2.413   3.407   5.681 -0.4199 -0.2014 -0.1436
15647TIP3    H168432   2.406   3.312   5.688 -0.6667 -0.1031  1.2602
15647TIP3    H268433   2.324   3.436   5.661 -0.6149 -0.1915  0.6894
15648TIP3   OH268434   6.614   1.630  12.971  0.1474  0.7258 -0.3073
15648TIP3    H168435   6.658   1.639  13.056  0.0023 -1.8547  0.1259
15648TIP3    H268436   6.521   1.622  12.993  0.1767 -0.6836 -0.6080
15649TIP3   OH268437   3.520   0.581  10.285  0.2042  0.4115  0.5208
15649TIP3    H168438   3.440   0.626  10.314 -0.9991  0.6148 -2.6388
15649TIP3    H268439   3.582   0.651  10.267 -0.0696  0.5139 -0.0599
15650TIP3   OH268440   6.166   5.863   5.416 -0.2086  0.2805  0.4722
15650TIP3    H168441   6.088   5.882   5.365 -0.0028  0.3319  0.1728
15650TIP3    H268442   6.238   5.873   5.354 -0.0853 -1.7036  0.1992
15651TIP3   OH268443   1.821   1.514   3.825 -1.0185  0.3052 -0.3371
15651TIP3    H168444   1.802   1.501   3.732 -1.4014 -1.4651 -0.0494
15651TIP3    H268445   1.874   1.593   3.828 -0.5863  0.1225 -2.1169
15652TIP3   OH268446   6.638   1.326   1.300  0.1258 -0.1172  0.1488
15652TIP3    H168447   6.654   1.400   1.357  0.1993  0.2957 -0.4000
15652TIP3    H268448   6.686   1.253   1.340  0.9252  0.3876  0.1135
15653TIP3   OH268449   1.078   5.903  16.071 -0.2315 -0.1449 -0.3584
15653TIP3    H168450   1.068   5.968  16.141 -0.7397 -1.4632  0.8298
15653TIP3    H268451   1.112   5.954  15.997 -2.5875  1.9009 -0.1798
15654TIP3   OH268452   0.601   3.002  13.356  0.0215  0.3371  0.0327
15654TIP3    H168453   0.607   2.928  13.416  1.8351  0.0474 -0.4618
15654TIP3    H268454   0.508   3.025  13.356 -0.9649 -3.0896 -1.1525
15655TIP3   OH268455   4.786   0.470   4.661  0.0935 -0.3396 -0.0813
15655TIP3    H168456   4.729   0.408   4.616  1.2168 -0.1300 -1.8922
15655TIP3    H268457   4.776   0.552   4.612  1.0590  0.0187  0.2878
15656TIP3   OH268458   3.812   5.213   1.214  0.1230 -0.5437 -0.4537
15656TIP3    H168459   3.833   5.306   1.205 -0.0477 -0.5494 -0.9437
15656TIP3    H268460   3.894   5.172   1.243  0.2611 -0.2721 -0.4594
15657TIP3   OH268461   5.524   4.626   3.387  0.4151 -0.1233  0.0493
15657TIP3    H168462   5.524   4.550   3.445  1.1542  0.0471  0.2775
15657TIP3    H268463   5.573   4.598   3.309  0.5844  0.0783  0.0813
15658TIP3   OH268464   5.158   1.246   0.367  0.2943  0.0166  0.1063
15658TIP3    H168465   5.212   1.249   0.447  0.1299 -2.9807  0.4662
15658TIP3    H268466   5.213   1.199   0.304 -0.8477 -0.6936 -0.3931
15659TIP3   OH268467   6.155   6.440  13.701 -0.5913 -0.3813  0.6996
15659TIP3    H168468   6.098   6.516  13.695 -0.6005 -0.4847 -0.7802
15659TIP3    H268469   6.225   6.468  13.761 -0.9589  0.5384  0.7198
15660TIP3   OH268470   6.097   4.104   3.809  0.3709 -0.3022  0.0951
15660TIP3    H168471   6.024   4.150   3.770  0.0659  2.8236  3.7567
15660TIP3    H268472   6.174   4.157   3.787  0.9667 -1.3529 -0.4413
15661TIP3   OH268473   2.627   6.339  12.012  0.1995 -0.7659 -0.1254
15661TIP3    H168474   2.531   6.346  12.011  0.2790  0.3970 -0.4359
15661TIP3    H268475   2.646   6.291  12.093 -0.5127  1.5949  1.5576
15662TIP3   OH268476   5.436   1.110  12.159 -0.5090  0.1369  0.1197
15662TIP3    H168477   5.516   1.065  12.184 -0.3523 -0.1263 -0.8139
15662TIP3    H268478   5.406   1.064  12.080 -1.7355  0.0393  0.6069
15663TIP3   OH268479   4.086   3.147  13.125  0.1068  0.0154 -0.3351
15663TIP3    H168480   4.084   3.214  13.056 -0.4731  0.7797  0.4010
15663TIP3    H268481   4.179   3.135  13.144  0.2188  0.6256 -0.4716
15664TIP3   OH268482   2.705   4.051   5.482  0.0852 -0.1427  0.4571
15664TIP3    H168483   2.666   4.139   5.479 -0.7328 -0.4529  1.5099
15664TIP3    H268484   2.798   4.066   5.498  0.2233  0.5672 -0.8101
15665TIP3   OH268485   5.555   2.166  14.531  0.4640  0.6748 -0.5056
15665TIP3    H168486   5.505   2.248  14.527  0.4226  0.8059  1.5298
15665TIP3    H268487   5.646   2.192  14.513  0.6031  1.3675  1.0693
15666TIP3   OH268488   6.645   2.548   2.138  0.1575  0.2724  0.6902
15666TIP3    H168489   6.580   2.616   2.152 -0.5113 -0.3605  0.7202
15666TIP3    H268490   6.723   2.579   2.184 -0.4696  0.5268  1.5985
15667TIP3   OH268491   6.219   1.893  15.472  0.5463  0.5311  0.5796
15667TIP3    H168492   6.298   1.921  15.427  1.1240  0.4182  1.4966
15667TIP3    H268493   6.151   1.894  15.404  1.0068  2.0390  0.0982
15668TIP3   OH268494   1.101   5.541  16.241  0.3804  0.9033  0.7388
15668TIP3    H168495   1.120   5.599  16.315  1.5663  1.5916 -0.0725
15668TIP3    H268496   1.093   5.600  16.166 -0.8802  0.2155  0.3126
15669TIP3   OH268497   1.276   2.264  15.810 -0.4134 -0.3284 -0.0147
15669TIP3    H168498   1.250   2.301  15.894  1.6647 -0.2561  0.6527
15669TIP3    H268499   1.227   2.182  15.803 -2.0367  0.5803  0.3541
15670TIP3   OH268500   2.209   2.928   3.225 -0.3087 -0.3661  0.5599
15670TIP3    H168501   2.135   2.944   3.283 -2.4172 -1.2721 -1.6706
15670TIP3    H268502   2.196   2.839   3.193  2.9112 -1.3103  1.5421
15671TIP3   OH268503   1.769   5.510  15.306  0.5911  0.0894  0.1000
15671TIP3    H168504   1.801   5.496  15.395  0.2805 -0.2901  0.1549
15671TIP3    H268505   1.675   5.490  15.311  0.8285 -1.2748 -0.6135
15672TIP3   OH268506   6.290   5.723   6.423 -0.1444 -0.0357 -0.5170
15672TIP3    H168507   6.211   5.755   6.467 -0.6637  0.4449 -1.7300
15672TIP3    H268508   6.276   5.746   6.331  1.7280  0.6824 -0.6692
15673TIP3   OH268509   2.864   1.038  15.505 -0.1135  0.3215 -0.7737
15673TIP3    H168510   2.798   1.058  15.571 -0.7291  2.4000 -1.9120
15673TIP3    H268511   2.822   1.061  15.422  1.1581 -0.7895 -1.7563
15674TIP3   OH268512   3.223   4.596   1.215  0.4201  0.2996  0.1769
15674TIP3    H168513   3.180   4.673   1.177  2.0556  0.1945 -2.1026
15674TIP3    H268514   3.314   4.602   1.184  1.0930 -1.4982  1.6247
15675TIP3   OH268515   1.375   2.492  15.133 -0.0753 -0.0349  0.4575
15675TIP3    H168516   1.356   2.466  15.223  1.3622 -0.7781  0.5735
15675TIP3    H268517   1.444   2.557  15.140 -0.9904  1.0249 -0.0563
15676TIP3   OH268518   0.019   3.000  16.747  0.3098 -0.1237 -0.6355
15676TIP3    H168519  -0.053   3.004  16.811  1.3621  0.8273  0.5381
15676TIP3    H268520  -0.025   3.004  16.662 -1.0637 -0.2310  0.0299
15677TIP3   OH268521   2.649   4.309   5.428 -0.6586 -0.4104 -0.7720
15677TIP3    H168522   2.720   4.357   5.471 -1.1151  0.3064 -0.7933
15677TIP3    H268523   2.643   4.350   5.341 -2.3543  0.8721 -0.1077
15678TIP3   OH268524   3.180   6.318  11.205 -0.3876  0.0620 -0.1722
15678TIP3    H168525   3.167   6.370  11.285  0.3730 -0.5708  0.3739
15678TIP3    H268526   3.171   6.381  11.134  3.0345  1.5504  0.5195
15679TIP3   OH268527   5.386   6.670   5.675  0.4145  1.0161  0.3462
15679TIP3    H168528   5.358   6.602   5.736  0.7142  1.4751  1.0024
15679TIP3    H268529   5.305   6.717   5.653  0.2297  0.5421 -0.0011
15680TIP3   OH268530   5.531   6.072   4.183 -0.3136  0.0132 -0.0574
15680TIP3    H168531   5.555   6.141   4.245  2.2709 -2.6218  2.1654
15680TIP3    H268532   5.466   6.020   4.230  0.1834 -0.8896 -0.3499
15681TIP3   OH268533   6.206   1.229  15.084  0.1519 -0.0861  0.2071
15681TIP3    H168534   6.205   1.296  15.153  0.1357  0.1182  0.0109
15681TIP3    H268535   6.150   1.266  15.015  0.7118  0.0136 -0.1988
15682TIP3   OH268536   6.320   5.029  15.638 -0.2030  0.2897  0.3389
15682TIP3    H168537   6.348   5.108  15.593 -0.5465  1.0487  1.4144
15682TIP3    H268538   6.248   4.995  15.585 -0.1126  0.7499 -0.0814
15683TIP3   OH268539   0.279   2.833   5.615  0.2020 -0.6676  0.0917
15683TIP3    H168540   0.353   2.830   5.676  0.3473 -1.5551 -0.1147
15683TIP3    H268541   0.225   2.758   5.640 -0.2835 -0.4172 -0.1997
15684TIP3   OH268542   0.585   1.270  15.315  0.1986  0.6675  0.4803
15684TIP3    H168543   0.549   1.191  15.274  1.5409 -0.8523  2.0634
15684TIP3    H268544   0.523   1.290  15.386  1.2891 -0.7223  1.8910
15685TIP3   OH268545   2.056   4.184  12.643  0.4986  0.3836 -0.2152
15685TIP3    H168546   1.981   4.126  12.658 -1.1126  2.4368  0.1998
15685TIP3    H268547   2.126   4.147  12.697 -0.9579 -0.2739  1.3274
15686TIP3   OH268548   1.515   1.605   5.138 -0.2996  0.3462  0.0292
15686TIP3    H168549   1.448   1.669   5.163 -2.0225 -1.8809  1.4415
15686TIP3    H268550   1.466   1.531   5.103  1.4228 -1.2719  0.8750
15687TIP3   OH268551   0.688   5.339   1.547 -0.1438  0.0226 -0.1404
15687TIP3    H168552   0.676   5.249   1.577 -0.6662  0.1078 -0.0891
15687TIP3    H268553   0.607   5.384   1.571  0.3853  0.6842  0.4559
15688TIP3   OH268554   3.996   1.112  17.116  0.1991  0.0551 -0.3059
15688TIP3    H168555   4.086   1.087  17.137  0.2992 -0.9405 -1.7461
15688TIP3    H268556   4.004   1.197  17.074  0.1651  1.2119  1.8766
15689TIP3   OH268557   4.434   4.654   3.715  0.5737  0.4252 -0.0602
15689TIP3    H168558   4.497   4.726   3.711  0.3788  0.5759 -0.4299
15689TIP3    H268559   4.408   4.640   3.624  1.4738 -0.8719 -0.1535
15690TIP3   OH268560   5.999   5.147  13.868  0.3247  1.5839  0.6527
15690TIP3    H168561   6.087   5.116  13.889  1.3337  2.5613 -1.7000
15690TIP3    H268562   6.004   5.242  13.882 -0.4986  1.5946  0.9064
15691TIP3   OH268563   1.277   3.148  10.858 -0.4361 -0.9584  0.6504
15691TIP3    H168564   1.274   3.116  10.768  0.1325 -1.3066  0.7486
15691TIP3    H268565   1.309   3.073  10.908  0.9687 -0.2303  0.8823
15692TIP3   OH268566   4.224   5.541  16.688 -0.2459 -0.5433  0.0163
15692TIP3    H168567   4.294   5.599  16.717 -0.7571  1.0357 -1.7279
15692TIP3    H268568   4.172   5.525  16.766 -1.0629  2.7676  0.2900
15693TIP3   OH268569   4.776   5.754   2.391 -0.2100  0.0566  0.2431
15693TIP3    H168570   4.708   5.728   2.329  1.1651 -0.0491 -1.3291
15693TIP3    H268571   4.756   5.708   2.472  0.3091 -3.4271 -1.4476
15694TIP3   OH268572   6.763   1.682  14.004  0.5206  0.5975  0.3926
15694TIP3    H168573   6.852   1.647  14.010  1.1047  1.9046 -0.2932
15694TIP3    H268574   6.758   1.719  13.916 -0.4031  1.3244  0.7398
15695TIP3   OH268575   4.171   6.238   2.529  1.1527  0.3642  0.0761
15695TIP3    H168576   4.248   6.242   2.471  3.0239  0.3038  2.3814
15695TIP3    H268577   4.170   6.323   2.573  0.4072  0.0479  0.6947
15696TIP3   OH268578   1.936   2.569   4.380  0.0338  0.1082 -0.1325
15696TIP3    H168579   1.894   2.634   4.436  0.7146  0.8183 -0.4233
15696TIP3    H268580   1.896   2.584   4.294 -0.5615 -0.5647  0.0199
15697TIP3   OH268581   5.094   3.193   0.854 -0.3365 -0.7830  0.0356
15697TIP3    H168582   5.052   3.113   0.885  1.2924 -1.6416  0.1503
15697TIP3    H268583   5.035   3.227   0.787 -1.7741 -1.2585  1.0188
15698TIP3   OH268584   6.383   0.568  12.243  0.1824 -0.0756 -0.0750
15698TIP3    H168585   6.377   0.509  12.168  0.0374 -2.6975  1.8520
15698TIP3    H268586   6.451   0.530  12.298 -0.7107  0.8966  1.7880
15699TIP3   OH268587   0.927   0.782   3.524  0.0536 -1.1244  0.5081
15699TIP3    H168588   0.893   0.864   3.489 -1.2707 -1.9661 -0.2581
15699TIP3    H268589   0.963   0.737   3.448  4.7069  0.4324  1.4562
15700TIP3   OH268590   5.173   2.668   1.249 -1.0613  0.1557 -0.0576
15700TIP3    H168591   5.191   2.708   1.164  2.0802  0.5161  0.6820
15700TIP3    H268592   5.145   2.579   1.227  1.7368 -0.4820 -1.5050
15701TIP3   OH268593   2.043   4.214   1.467  0.2525 -0.3663  0.3694
15701TIP3    H168594   2.006   4.138   1.422 -3.0306 -0.4276  2.7870
15701TIP3    H268595   2.075   4.180   1.550 -0.2386  0.6812  1.0087
15702TIP3   OH268596   4.228   3.104  12.833 -0.3682  0.5269 -0.0708
15702TIP3    H168597   4.169   3.030  12.849 -0.7401  0.3635 -2.0167
15702TIP3    H268598   4.189   3.177  12.880 -0.6995 -0.1940  0.8038
15703TIP3   OH268599   6.652   5.602  17.010 -0.2256  0.4752 -0.2971
15703TIP3    H168600   6.574   5.553  17.036  0.4702 -2.0718 -2.5270
15703TIP3    H268601   6.647   5.608  16.915  2.0179  0.6818 -0.4731
15704TIP3   OH268602   6.650   4.704  10.475  0.0366 -0.5694  0.1458
15704TIP3    H168603   6.595   4.770  10.434  0.9293 -0.1080 -0.3588
15704TIP3    H268604   6.677   4.647  10.403 -0.1338 -1.0489  0.4568
15705TIP3   OH268605   0.888   0.521  13.469  0.1199  0.5725  0.0418
15705TIP3    H168606   0.961   0.575  13.437 -1.2540  2.0481 -0.7499
15705TIP3    H268607   0.854   0.569  13.544 -0.6232  0.4047 -0.1776
15706TIP3   OH268608   0.224   6.086   2.772 -0.6073 -0.3234 -0.2875
15706TIP3    H168609   0.224   6.170   2.816  0.0351 -0.8708  0.7846
15706TIP3    H268610   0.313   6.052   2.782 -1.2336 -1.8032  0.6436
15707TIP3   OH268611   5.771   2.097   0.121 -0.1221  0.2741  0.6045
15707TIP3    H168612   5.727   2.035   0.178 -0.4086 -0.2275 -0.1444
15707TIP3    H268613   5.747   2.183   0.155 -0.9533 -0.0098  0.7474
15708TIP3   OH268614   4.296   2.911   0.925 -0.2378  0.0321  0.3775
15708TIP3    H168615   4.215   2.867   0.899  0.2096 -0.8496  0.4488
15708TIP3    H268616   4.338   2.850   0.985  2.0250 -0.9905 -2.0809
15709TIP3   OH268617   0.307   2.439  10.522  0.0052 -0.1361 -0.0705
15709TIP3    H168618   0.307   2.360  10.576  0.9326 -0.2244 -0.1964
15709TIP3    H268619   0.399   2.458  10.506 -0.2111  0.8739 -0.1909
15710TIP3   OH268620   6.432   3.254  11.093 -0.6671  0.0128  0.5007
15710TIP3    H168621   6.465   3.238  11.181 -1.3372  0.5443  0.8642
15710TIP3    H268622   6.338   3.266  11.105 -0.4227  3.0296  0.1602
15711TIP3   OH268623   0.885   0.905   4.066 -0.1905 -0.0802  0.2522
15711TIP3    H168624   0.899   0.819   4.106  0.3422 -0.2275 -0.2365
15711TIP3    H268625   0.872   0.886   3.973  2.0460  0.5233 -0.2371
15712TIP3   OH268626   4.667   4.985  11.337 -0.0347  0.1862 -0.3463
15712TIP3    H168627   4.675   5.033  11.419 -1.1118  1.4453 -0.9405
15712TIP3    H268628   4.595   5.027  11.291 -0.0219 -1.0435 -1.5778
15713TIP3   OH268629   4.527   3.356  15.402 -0.0583  0.7039  0.1849
15713TIP3    H168630   4.470   3.327  15.475  2.7360 -0.9512  1.8933
15713TIP3    H268631   4.498   3.303  15.328 -1.9352  1.2716  0.4404
15714TIP3   OH268632   6.098   1.336  16.866 -0.0010 -0.1974  0.2321
15714TIP3    H168633   6.099   1.401  16.796  2.2483 -2.1402 -1.7310
15714TIP3    H268634   6.160   1.369  16.930 -1.0523  0.9427  0.6959
15715TIP3   OH268635   4.798   2.336   6.301  0.2458 -0.6568 -0.2068
15715TIP3    H168636   4.867   2.392   6.336  0.0155 -1.1185  1.0689
15715TIP3    H268637   4.732   2.334   6.370 -0.1024 -1.8588 -0.5424
15716TIP3   OH268638   2.084   3.189  14.733  0.3016 -0.1143  0.2751
15716TIP3    H168639   2.139   3.156  14.804  1.1032  1.4857  0.4527
15716TIP3    H268640   2.048   3.272  14.767 -1.4886 -0.6587 -0.1980
15717TIP3   OH268641   2.755   6.656  12.871  0.4749  0.5014 -0.1462
15717TIP3    H168642   2.764   6.702  12.787  2.1279 -0.9601 -0.8375
15717TIP3    H268643   2.819   6.699  12.928 -0.1058  0.9886  0.1522
15718TIP3   OH268644   4.339   0.710   2.841 -0.0246  0.3920 -0.1856
15718TIP3    H168645   4.401   0.657   2.791  1.6280 -0.4804  2.5525
15718TIP3    H268646   4.390   0.786   2.870 -0.8744  0.8042  0.2822
15719TIP3   OH268647   0.128   3.364  15.498  0.4664  0.6774 -0.1523
15719TIP3    H168648   0.179   3.360  15.579 -0.0886  1.6192  0.2582
15719TIP3    H268649   0.050   3.311  15.516  0.9192 -0.1423 -0.5207
15720TIP3   OH268650   6.207   2.624  11.768 -0.0705  0.3378  0.7377
15720TIP3    H168651   6.272   2.594  11.705 -0.4196  0.6258  0.2246
15720TIP3    H268652   6.123   2.610  11.724 -0.5338 -1.8847  2.1457
15721TIP3   OH268653   3.042   2.570   3.406  0.4002 -0.1814  0.3146
15721TIP3    H168654   3.120   2.586   3.458  0.8035 -0.3928 -0.2161
15721TIP3    H268655   2.970   2.606   3.458  0.6326 -1.4601  1.5788
15722TIP3   OH268656   4.025   6.056   1.376  0.4865 -0.5247  0.5517
15722TIP3    H168657   3.945   6.108   1.382  1.6163  1.1424  2.1524
15722TIP3    H268658   4.000   5.980   1.322 -1.8851  0.4018  0.2184
15723TIP3   OH268659   0.104   4.711  13.129 -0.4909 -0.1672 -0.1121
15723TIP3    H168660   0.170   4.645  13.106  0.7504  0.1027  2.3426
15723TIP3    H268661   0.153   4.779  13.176 -2.4677  0.0724  1.7639
15724TIP3   OH268662   6.134   0.809  11.677 -0.0359 -0.2339  0.2988
15724TIP3    H168663   6.179   0.726  11.693  1.5372  0.4693 -0.2167
15724TIP3    H268664   6.199   0.876  11.699  0.3035  0.8252 -3.2739
15725TIP3   OH268665   4.643   4.268   4.957 -0.0393  0.0608  0.7534
15725TIP3    H168666   4.576   4.201   4.943  0.7495 -0.7473  0.7185
15725TIP3    H268667   4.705   4.255   4.885 -0.0114  1.0309  0.5806
15726TIP3   OH268668   4.908   1.547   2.876  0.3153  0.4546  0.5675
15726TIP3    H168669   4.839   1.544   2.942  0.7555  0.0393  1.0155
15726TIP3    H268670   4.968   1.477   2.901 -0.6271 -1.1970 -1.5386
15727TIP3   OH268671   1.210   1.257   0.094 -0.0134 -0.1708 -0.3532
15727TIP3    H168672   1.173   1.332   0.141  1.9578  0.5804  0.0922
15727TIP3    H268673   1.268   1.296   0.029 -0.7136 -1.2796 -1.6773
15728TIP3   OH268674   6.233   2.092  15.667 -0.2257 -0.2408  0.2744
15728TIP3    H168675   6.304   2.028  15.670 -0.6395 -0.6738  1.1362
15728TIP3    H268676   6.169   2.053  15.607  0.4966  0.4303 -0.9903
15729TIP3   OH268677   6.816   5.798  14.342 -0.3049 -0.5303  0.5043
15729TIP3    H168678   6.853   5.713  14.320  2.1268 -0.0503  2.3389
15729TIP3    H268679   6.773   5.784  14.427 -0.1919  0.0134  0.6509
15730TIP3   OH268680   2.192   2.195   4.959  0.0820  0.5775  0.3329
15730TIP3    H168681   2.223   2.142   5.033  0.4609 -0.0843 -0.2805
15730TIP3    H268682   2.183   2.283   4.994 -1.5012 -0.0495  1.6470
15731TIP3   OH268683   6.749   4.681   0.834 -0.0876 -0.4489  0.2477
15731TIP3    H168684   6.786   4.768   0.822  0.8594 -0.3854  2.8848
15731TIP3    H268685   6.724   4.652   0.746  0.4952  2.0492 -0.8097
15732TIP3   OH268686   3.621   4.574   2.344 -0.5647 -0.0801 -0.3512
15732TIP3    H168687   3.552   4.623   2.300 -0.8106 -0.3974 -0.3247
15732TIP3    H268688   3.702   4.620   2.321 -0.9077  1.1910  0.8350
15733TIP3   OH268689   2.764   6.333  15.533  0.7546  0.0157 -0.3429
15733TIP3    H168690   2.714   6.269  15.583 -0.7750  0.8490 -0.7601
15733TIP3    H268691   2.852   6.328  15.569  0.1678 -0.8267  1.0367
15734TIP3   OH268692   0.843   2.562  11.492  0.6221  0.1331  0.2236
15734TIP3    H168693   0.860   2.546  11.399  1.2698  0.4563  0.2800
15734TIP3    H268694   0.856   2.476  11.533 -0.0610 -0.0957 -0.0370
15735TIP3   OH268695   2.886   3.401  14.685 -0.1805 -0.1283 -0.8574
15735TIP3    H168696   2.868   3.426  14.595 -0.7322 -1.1635 -1.0480
15735TIP3    H268697   2.965   3.450  14.708 -1.1642  1.7046 -1.2034
15736TIP3   OH268698   3.219   0.146  11.334 -0.0761 -0.4009 -0.0251
15736TIP3    H168699   3.212   0.224  11.389 -2.8442 -1.3195  1.1199
15736TIP3    H268700   3.190   0.176  11.247  1.2796  0.3562 -0.2408
15737TIP3   OH268701   5.424   3.871  16.609  0.0228  0.1316 -0.0424
15737TIP3    H168702   5.514   3.904  16.616  0.1934 -0.3492  0.0956
15737TIP3    H268703   5.431   3.792  16.556  0.2678 -1.9943  2.8865
15738TIP3   OH268704   4.737   2.407  11.862  0.6918  0.2805 -0.7016
15738TIP3    H168705   4.753   2.349  11.936  1.5107 -0.8884 -1.7442
15738TIP3    H268706   4.802   2.477  11.872 -0.1768  0.9546  0.4579
15739TIP3   OH268707   6.694   1.977   3.856 -0.3762  0.3233  0.0096
15739TIP3    H168708   6.616   1.933   3.821 -0.3666  0.0443  0.3331
15739TIP3    H268709   6.750   1.990   3.779 -1.0029  1.0819 -0.3240
15740TIP3   OH268710   0.095   5.474   0.129  0.0543 -0.7917 -0.4229
15740TIP3    H168711   0.053   5.390   0.147 -1.7942  0.0549 -0.5421
15740TIP3    H268712   0.091   5.483   0.034  0.0510 -0.4824 -0.3948
15741TIP3   OH268713   0.525   2.140  14.622  0.1031 -0.1506 -0.2180
15741TIP3    H168714   0.583   2.079  14.668 -0.2636 -0.5163 -0.2352
15741TIP3    H268715   0.570   2.224  14.627  1.1823 -0.6524 -1.2130
15742TIP3   OH268716   2.022   6.210  16.390  0.2962 -0.1169  0.0556
15742TIP3    H168717   2.061   6.132  16.429  1.2321  0.2332 -0.1520
15742TIP3    H268718   2.089   6.277  16.397  0.4172  0.0337 -1.8838
15743TIP3   OH268719   6.218   4.559  12.971  0.3076  0.3171 -0.3974
15743TIP3    H168720   6.292   4.501  12.987  1.5840  1.8974 -0.2943
15743TIP3    H268721   6.234   4.593  12.883 -1.3329 -0.7310 -1.1533
15744TIP3   OH268722   3.137   5.711  15.210 -0.2236  0.2871  0.3707
15744TIP3    H168723   3.193   5.674  15.279  0.3832  0.4597 -0.0230
15744TIP3    H268724   3.198   5.747  15.146 -0.7360 -1.1141 -0.9727
15745TIP3   OH268725   2.750   5.264  16.197  0.7039  0.3431 -0.1292
15745TIP3    H168726   2.717   5.293  16.112 -2.2142 -1.3316  0.2784
15745TIP3    H268727   2.754   5.344  16.249  1.3673  1.2192 -1.4594
15746TIP3   OH268728   5.072   5.791   0.230 -0.2070 -0.5686 -0.3958
15746TIP3    H168729   4.991   5.772   0.277 -0.5526  2.3328  0.3797
15746TIP3    H268730   5.100   5.877   0.263  2.1938 -0.6217 -1.9899
15747TIP3   OH268731   0.635   0.414  16.055 -0.0460  0.3708 -0.1083
15747TIP3    H168732   0.644   0.440  15.964 -0.1038  0.0148 -0.2165
15747TIP3    H268733   0.582   0.483  16.095 -1.4861 -0.3399 -0.7344
15748TIP3   OH268734   4.675   6.425   4.157 -0.7233  0.4846 -0.4596
15748TIP3    H168735   4.681   6.419   4.062 -2.5358 -1.4456 -0.5199
15748TIP3    H268736   4.765   6.440   4.186 -0.0647  0.5846 -2.4415
15749TIP3   OH268737   0.709   4.735  14.311 -0.0559  0.2474  0.1427
15749TIP3    H168738   0.650   4.713  14.238  0.8205 -1.2411 -0.1616
15749TIP3    H268739   0.733   4.826  14.296 -0.3216  0.1271 -1.1302
15750TIP3   OH268740   4.418   3.917  12.324  0.3079  0.0260  0.4932
15750TIP3    H168741   4.363   3.892  12.399 -0.0452  0.3911  0.3575
15750TIP3    H268742   4.422   3.838  12.270 -0.5089  0.1432  0.2467
15751TIP3   OH268743   2.386   3.618  12.109  0.2124 -0.3249  0.4165
15751TIP3    H168744   2.305   3.651  12.147  0.2272  0.2633 -0.0480
15751TIP3    H268745   2.360   3.584  12.023  0.3550 -0.6999  0.5196
15752TIP3   OH268746   3.750   6.614  15.262 -0.0335  0.8356  0.0274
15752TIP3    H168747   3.677   6.559  15.290 -0.7606  1.6914 -0.1259
15752TIP3    H268748   3.731   6.634  15.170  0.7862  0.4604 -0.2276
15753TIP3   OH268749   5.474   0.792   5.402  0.3512 -0.2489 -0.5644
15753TIP3    H168750   5.432   0.817   5.319  0.1603  0.9260 -0.1433
15753TIP3    H268751   5.430   0.711   5.428 -1.7185  0.9081 -0.1721
15754TIP3   OH268752   1.053   2.014   0.006  0.0771 -0.5322 -0.5098
15754TIP3    H168753   1.041   1.932  -0.042 -2.4242  0.4760 -1.7852
15754TIP3    H268754   0.965   2.037   0.036  0.9408  1.0197  0.9540
15755TIP3   OH268755   0.228   6.262  11.656 -0.2029 -0.0597  0.0256
15755TIP3    H168756   0.147   6.242  11.608 -0.0051  0.0987 -0.3713
15755TIP3    H268757   0.223   6.206  11.734  0.2314 -1.5208 -0.9578
15756TIP3   OH268758   3.355   4.698  16.365  0.5996 -0.2745 -0.1789
15756TIP3    H168759   3.272   4.671  16.405  0.2450 -2.2408 -2.0439
15756TIP3    H268760   3.353   4.659  16.277  2.7591  1.0851 -0.8995
15757TIP3   OH268761   0.554   2.288   4.398  0.1745 -0.4478  0.0161
15757TIP3    H168762   0.597   2.231   4.335 -0.9443 -0.1338 -1.0535
15757TIP3    H268763   0.499   2.345   4.346 -1.9907 -1.1979  1.3515
15758TIP3   OH268764   2.983   4.911  14.161 -0.3584  0.6658 -0.6823
15758TIP3    H168765   3.061   4.860  14.137  0.1322  0.6764  0.8016
15758TIP3    H268766   2.939   4.857  14.227  0.7594  2.5822  1.7605
15759TIP3   OH268767   5.289   2.348  13.840  0.5176 -0.8141 -0.0636
15759TIP3    H168768   5.217   2.296  13.803 -0.2192 -0.4086  0.7472
15759TIP3    H268769   5.319   2.298  13.916  0.9657 -0.8866 -0.2870
15760TIP3   OH268770   4.497   3.632   4.939  0.2035 -0.1992 -0.5412
15760TIP3    H168771   4.575   3.648   4.993 -0.4175 -1.0717  0.6737
15760TIP3    H268772   4.502   3.698   4.870  0.3864  1.8189  1.2891
15761TIP3   OH268773   0.182   1.448   5.564 -0.4496 -0.1194  0.2001
15761TIP3    H168774   0.256   1.437   5.625 -0.4767 -0.5281  0.1606
15761TIP3    H268775   0.163   1.541   5.567  1.3229  0.3455 -1.2519
15762TIP3   OH268776   0.443   1.864   4.374 -0.1538 -0.8700  0.0786
15762TIP3    H168777   0.403   1.950   4.363  0.9747 -0.2580  0.5483
15762TIP3    H268778   0.384   1.816   4.432 -0.4908 -0.2063  0.2869
15763TIP3   OH268779   4.836   1.413  12.945  0.3322  0.0556  0.0093
15763TIP3    H168780   4.823   1.329  12.900 -0.2916 -0.4318  1.0652
15763TIP3    H268781   4.774   1.473  12.904  0.6676 -0.0386 -0.6410
15764TIP3   OH268782   5.367   3.897  15.999  0.4827  0.0171  0.3323
15764TIP3    H168783   5.305   3.909  16.072  0.0660  0.1693 -0.0408
15764TIP3    H268784   5.321   3.840  15.938  0.7109  0.1321  0.0494
15765TIP3   OH268785   1.658   1.289  11.973  0.0524  0.1745  0.3996
15765TIP3    H168786   1.675   1.296  11.879 -4.4403  0.5160 -0.6140
15765TIP3    H268787   1.644   1.380  12.001 -1.3783 -0.1344  0.7245
15766TIP3   OH268788   3.451   3.180  11.327  0.2221 -0.7196  0.1835
15766TIP3    H168789   3.460   3.270  11.296 -0.5392 -0.4290  0.7901
15766TIP3    H268790   3.541   3.147  11.329  0.6442  0.3938  1.0163
15767TIP3   OH268791   5.481   1.140   5.686  0.2980  0.2009 -0.0995
15767TIP3    H168792   5.515   1.067   5.635  0.0209 -0.2823  0.4029
15767TIP3    H268793   5.557   1.197   5.699  0.6910 -0.3695  0.1529
15768TIP3   OH268794   4.709   1.190  15.451 -0.0671 -0.5379  0.3712
15768TIP3    H168795   4.773   1.120  15.461 -0.0019 -0.3447  1.4313
15768TIP3    H268796   4.725   1.225  15.363  2.1908  0.3484  1.0540
15769TIP3   OH268797   1.772   4.656  15.567 -0.8730 -0.0308 -0.9684
15769TIP3    H168798   1.761   4.716  15.493  0.0386  0.0497 -1.0594
15769TIP3    H268799   1.807   4.576  15.529 -0.3001  0.0465 -0.6220
15770TIP3   OH268800   2.320   4.068   4.552  0.2070 -0.4806 -0.2240
15770TIP3    H168801   2.319   4.153   4.596 -0.7397 -0.5469 -0.0918
15770TIP3    H268802   2.356   4.086   4.465  0.3792 -0.0174 -0.0596
15771TIP3   OH268803   0.718   6.276   2.598  0.2889  0.0982 -0.1563
15771TIP3    H168804   0.795   6.331   2.585  0.4898 -0.1588 -0.0413
15771TIP3    H268805   0.751   6.186   2.598 -0.0040 -0.0117 -0.0746
15772TIP3   OH268806   4.744   0.331   6.486  0.0824 -0.1366  0.4624
15772TIP3    H168807   4.833   0.360   6.468 -0.0205  0.8174  1.3895
15772TIP3    H268808   4.725   0.363   6.574 -1.8596  1.4420 -0.4378
15773TIP3   OH268809   5.920   1.703   3.834 -0.5344 -0.0040  0.4121
15773TIP3    H168810   5.922   1.779   3.892  0.1544  0.5535 -0.3280
15773TIP3    H268811   5.953   1.735   3.750 -0.0632 -1.1600  0.1344
15774TIP3   OH268812   0.781   1.278  14.912  0.0717  0.5216 -0.0328
15774TIP3    H168813   0.701   1.226  14.911  0.7622 -0.5718 -0.6843
15774TIP3    H268814   0.752   1.367  14.891 -0.9674  0.1363 -0.2876
15775TIP3   OH268815   0.001   2.698  11.224 -0.0619  0.0604 -0.3851
15775TIP3    H168816   0.034   2.763  11.162 -0.5464  1.3494  0.6777
15775TIP3    H268817   0.046   2.718  11.306 -1.4113  0.0936  0.3716
15776TIP3   OH268818   3.549   4.395  10.944 -0.0549 -0.2150 -0.2830
15776TIP3    H168819   3.593   4.400  11.029 -0.9520 -1.0485  0.2530
15776TIP3    H268820   3.590   4.464  10.891  3.0219 -1.8894 -0.3528
15777TIP3   OH268821   0.675   2.226  15.122 -0.5929 -0.1709 -0.4819
15777TIP3    H168822   0.759   2.265  15.098 -0.1564 -0.7864  0.0068
15777TIP3    H268823   0.643   2.278  15.195 -1.7965  1.5430 -2.1361
15778TIP3   OH268824   6.722   1.316   3.612 -0.0942 -0.3291 -0.1517
15778TIP3    H168825   6.729   1.340   3.704 -2.5655  0.4964 -0.0919
15778TIP3    H268826   6.721   1.399   3.565 -1.7398 -0.5584 -0.6071
15779TIP3   OH268827   3.384   3.161  15.604  0.2643  0.1766  0.0403
15779TIP3    H168828   3.473   3.177  15.572  1.1881 -1.0541  1.8657
15779TIP3    H268829   3.348   3.097  15.543  1.6801 -1.4916  0.8835
15780TIP3   OH268830   1.036   5.543  13.116  0.5872 -0.0283 -0.4790
15780TIP3    H168831   0.959   5.585  13.154  1.3219  1.4996 -0.6448
15780TIP3    H268832   1.109   5.573  13.170  1.2951  0.0163 -1.4490
15781TIP3   OH268833   6.440   6.170  15.693  0.3908  0.0813  0.2994
15781TIP3    H168834   6.472   6.118  15.619  1.3738  0.8838  0.1234
15781TIP3    H268835   6.437   6.260  15.659  1.8034  0.6216  1.4774
15782TIP3   OH268836   5.184   1.516  16.645 -0.0735 -0.1438 -0.4690
15782TIP3    H168837   5.229   1.491  16.565 -2.0232 -1.8727 -1.1169
15782TIP3    H268838   5.092   1.498  16.627 -0.6380 -0.0034  1.9682
15783TIP3   OH268839   0.232   2.303  13.877 -0.1191 -0.2029  0.2290
15783TIP3    H168840   0.218   2.221  13.926 -2.0044 -0.2207 -0.2536
15783TIP3    H268841   0.145   2.327  13.847  0.2371  2.5278  1.1683
15784TIP3   OH268842   6.032   1.875   0.538 -0.4376 -0.2761  0.5629
15784TIP3    H168843   6.078   1.803   0.580  1.2919 -0.4027 -1.3830
15784TIP3    H268844   5.961   1.833   0.489 -0.1901 -0.5450  0.4268
15785TIP3   OH268845   4.538   5.068   2.592  0.0597 -0.5839  0.7197
15785TIP3    H168846   4.548   4.991   2.647  0.9284 -0.4101  0.8212
15785TIP3    H268847   4.571   5.041   2.506 -1.1830 -0.8201  0.3023
15786TIP3   OH268848   5.898   2.014   2.891 -0.3376 -0.4137  0.1045
15786TIP3    H168849   5.985   2.042   2.861  0.1310 -2.0126 -0.0936
15786TIP3    H268850   5.893   2.045   2.982  0.7792 -1.0174  0.3883
15787TIP3   OH268851   4.295   1.783   3.559 -0.6497 -0.0184 -0.1721
15787TIP3    H168852   4.312   1.876   3.545 -1.2884  0.1320  0.0088
15787TIP3    H268853   4.245   1.755   3.482  0.3760 -0.4504 -0.6948
15788TIP3   OH268854   4.834   0.090  14.542  0.1495 -0.0087  0.2597
15788TIP3    H168855   4.862   0.027  14.608  2.5060  1.2275  0.5498
15788TIP3    H268856   4.882   0.170  14.562 -1.3590  1.3506 -1.1773
15789TIP3   OH268857   3.808   0.558  11.737 -0.3415  0.6553 -0.9876
15789TIP3    H168858   3.887   0.611  11.749 -0.0026  0.3387 -1.7404
15789TIP3    H268859   3.789   0.524  11.824  1.2542 -0.4871 -1.0355
15790TIP3   OH268860   1.460   3.666  17.072  0.4082 -0.2931 -0.1440
15790TIP3    H168861   1.435   3.589  17.123 -0.8272  0.0001 -0.2793
15790TIP3    H268862   1.525   3.710  17.127 -0.3780 -0.3619  0.8749
15791TIP3   OH268863   1.448   0.933   2.729  0.1486  0.0692  0.4742
15791TIP3    H168864   1.357   0.959   2.744  0.1127  0.5669 -0.5187
15791TIP3    H268865   1.454   0.920   2.634  0.9295 -0.6960  0.6125
15792TIP3   OH268866   2.367   5.326   0.470 -0.6169  0.3168  0.1080
15792TIP3    H168867   2.427   5.267   0.425 -0.7955  0.9528 -0.9964
15792TIP3    H268868   2.298   5.269   0.505 -0.0971 -0.2619  0.2050
15793TIP3   OH268869   3.608   2.481   1.341  0.1381 -0.3985 -0.2084
15793TIP3    H168870   3.610   2.552   1.405 -0.9488 -1.0613  0.5747
15793TIP3    H268871   3.635   2.403   1.389  0.3909 -0.7080 -0.8332
15794TIP3   OH268872   2.033   1.130   2.819 -0.2223  0.4484 -0.1884
15794TIP3    H168873   1.997   1.044   2.797 -1.4471  0.9017 -0.0447
15794TIP3    H268874   1.980   1.160   2.893  0.8817  0.8879  0.4581
15795TIP3   OH268875   2.469   1.250   4.297 -0.0503 -0.2354  0.2705
15795TIP3    H168876   2.477   1.259   4.392  0.1788 -0.5649  0.2845
15795TIP3    H268877   2.378   1.273   4.278 -0.0842 -0.1244  0.5642
15796TIP3   OH268878   0.385   4.130   5.110  0.1232  0.3465 -0.4474
15796TIP3    H168879   0.370   4.114   5.017 -0.6353  0.2520 -0.3106
15796TIP3    H268880   0.391   4.226   5.117 -0.7243  0.4048 -0.4632
15797TIP3   OH268881   4.880   1.353   3.795  0.1494  0.3790  0.1670
15797TIP3    H168882   4.900   1.261   3.815 -0.3523  0.2780  0.2100
15797TIP3    H268883   4.955   1.402   3.830  0.1294  0.0424  0.6845
15798TIP3   OH268884   5.979   4.043   4.625  0.3096 -0.9661 -0.6139
15798TIP3    H168885   5.912   3.981   4.655  0.5108 -1.5923 -1.4005
15798TIP3    H268886   6.005   4.009   4.539  0.6242  0.0698 -0.9362
15799TIP3   OH268887   0.360   5.575  14.493 -0.5828  0.1373 -0.3437
15799TIP3    H168888   0.338   5.665  14.468 -0.9322  0.0130 -0.4886
15799TIP3    H268889   0.368   5.528  14.410 -1.1463 -0.1380 -0.2411
15800TIP3   OH268890   3.848   6.655   5.327  0.5450 -0.8127 -0.3725
15800TIP3    H168891   3.871   6.639   5.236 -1.8706  1.1099 -1.3998
15800TIP3    H268892   3.883   6.742   5.347  0.5880 -0.9910  0.3999
15801TIP3   OH268893   4.336   3.433   4.094 -0.0501  0.3622 -0.1487
15801TIP3    H168894   4.343   3.524   4.066 -0.6731  0.4836  0.0724
15801TIP3    H268895   4.301   3.438   4.183 -1.0476 -0.1166 -0.4959
15802TIP3   OH268896   2.167   3.540   5.274  0.0251  0.2485 -0.1133
15802TIP3    H168897   2.185   3.471   5.210 -0.0610  1.2078 -1.2066
15802TIP3    H268898   2.244   3.539   5.332  0.2963 -0.3729 -0.4755
15803TIP3   OH268899   3.235   4.384  12.437 -0.2469 -0.1868  0.0012
15803TIP3    H168900   3.248   4.312  12.499  2.3690  0.8101  0.7644
15803TIP3    H268901   3.322   4.399  12.400 -1.2853  0.7757 -2.2416
15804TIP3   OH268902   5.586   4.573  15.168 -0.5256 -0.4680 -0.1805
15804TIP3    H168903   5.628   4.659  15.176  0.5159 -1.0030  0.3855
15804TIP3    H268904   5.622   4.537  15.087 -2.4407  0.3854 -1.4646
15805TIP3   OH268905   5.153   5.167   4.696 -0.2232 -0.1402 -0.0584
15805TIP3    H168906   5.058   5.168   4.681 -0.1056 -0.4497 -0.8123
15805TIP3    H268907   5.189   5.220   4.625  0.1696  0.0242  0.2633
15806TIP3   OH268908   4.550   5.844  14.049  0.2730 -0.4605 -0.3315
15806TIP3    H168909   4.510   5.774  14.100 -0.5983  0.6631  0.5526
15806TIP3    H268910   4.530   5.822  13.958  0.6929 -1.7590 -0.1332
15807TIP3   OH268911   4.550   1.879   5.161  0.0912 -0.4807  0.2809
15807TIP3    H168912   4.634   1.863   5.205 -0.0745  0.3115  0.9001
15807TIP3    H268913   4.553   1.972   5.138 -0.2058 -0.6768 -0.5994
15808TIP3   OH268914   0.239   6.674  13.315  0.0025  0.0977 -0.3208
15808TIP3    H168915   0.327   6.711  13.326 -0.6921  1.5311  0.6344
15808TIP3    H268916   0.207   6.714  13.234  0.8438 -1.8053 -1.6936
15809TIP3   OH268917   2.885   4.416   6.205 -0.1955  0.6653  0.5898
15809TIP3    H168918   2.950   4.482   6.182 -0.4773  0.6260 -0.3452
15809TIP3    H268919   2.801   4.464   6.204 -0.1061  1.0008  2.9351
15810TIP3   OH268920   5.963   0.751  15.643 -0.4693  0.6056  0.0593
15810TIP3    H168921   6.005   0.666  15.649  0.2401  0.9944  1.0223
15810TIP3    H268922   5.973   0.788  15.731 -1.4432  1.3621 -0.1366
15811TIP3   OH268923   0.346   3.878  17.107  0.1512  0.2353 -0.0245
15811TIP3    H168924   0.360   3.882  17.013  0.8022 -1.2310 -0.0203
15811TIP3    H268925   0.282   3.809  17.120  1.5471 -0.9811  0.7054
15812TIP3   OH268926   3.836   3.776   0.246 -0.1684 -0.2381 -0.6963
15812TIP3    H168927   3.818   3.822   0.328 -1.6066  0.5290 -1.4049
15812TIP3    H268928   3.842   3.846   0.180 -1.7263 -0.9720 -1.6843
15813TIP3   OH268929   1.663   1.837   2.871 -0.2287 -0.0652  0.3162
15813TIP3    H168930   1.576   1.825   2.907  0.2238 -0.5745  1.2941
15813TIP3    H268931   1.697   1.914   2.915 -0.2571  0.2542 -0.2155
15814TIP3   OH268932   4.138   3.593  13.027 -0.5389  0.1754  0.3234
15814TIP3    H168933   4.112   3.654  12.957  0.0680 -0.2808 -0.3112
15814TIP3    H268934   4.118   3.640  13.108 -3.7164 -0.2819 -0.0767
15815TIP3   OH268935   4.896   1.885  15.030 -0.0659  0.3809 -0.0384
15815TIP3    H168936   4.830   1.916  14.968  0.1320  0.9422  0.0300
15815TIP3    H268937   4.967   1.851  14.975  0.5590  1.8015 -0.1547
15816TIP3   OH268938   4.592   4.901   5.742  0.3715 -0.5321 -0.1181
15816TIP3    H168939   4.588   4.997   5.742 -3.3915 -0.5337  0.1565
15816TIP3    H268940   4.532   4.874   5.673  0.4435 -2.6885  0.5712
15817TIP3   OH268941   4.026   0.769  13.730 -0.1331 -0.3916 -0.5661
15817TIP3    H168942   4.118   0.796  13.732  0.3804 -1.9825  1.6464
15817TIP3    H268943   3.977   0.850  13.738  1.1208  0.4167 -0.7848
15818TIP3   OH268944   6.365   0.129   2.256 -0.1582 -0.2624  0.6036
15818TIP3    H168945   6.338   0.219   2.238  4.0599  0.9445 -1.0585
15818TIP3    H268946   6.333   0.079   2.181  1.8477  1.0633 -1.2642
15819TIP3   OH268947   5.015   3.087   2.295 -0.2166  0.1595  0.3016
15819TIP3    H168948   4.968   3.141   2.231 -1.4454  0.4323  1.3918
15819TIP3    H268949   4.969   3.003   2.293  1.0753 -0.5616 -0.6736
15820TIP3   OH268950   1.963   1.444  16.140 -0.1253 -0.0342  1.0159
15820TIP3    H168951   1.929   1.364  16.099  0.3837  0.5834 -0.6882
15820TIP3    H268952   1.921   1.515  16.093  1.9493  0.7223  0.1916
15821TIP3   OH268953   1.142   3.426   1.871 -0.1977 -0.5128 -0.3972
15821TIP3    H168954   1.235   3.413   1.889 -0.2828 -0.9497 -0.2528
15821TIP3    H268955   1.128   3.520   1.882  0.1204 -0.5198  0.0985
15822TIP3   OH268956   6.168   6.724  14.824  0.4687 -0.5898  0.1901
15822TIP3    H168957   6.217   6.757  14.749 -0.1990 -0.5227 -0.2262
15822TIP3    H268958   6.117   6.651  14.789 -0.3233 -0.1636  0.4209
15823TIP3   OH268959   5.952   5.084  12.007 -0.2966 -0.2214 -0.1091
15823TIP3    H168960   6.044   5.109  12.015 -0.7549  1.4822  0.2046
15823TIP3    H268961   5.948   5.037  11.923  0.7790  0.0598 -0.3397
15824TIP3   OH268962   2.440   5.222   1.122  0.4054 -0.6209 -0.0596
15824TIP3    H168963   2.379   5.151   1.142 -1.5004  0.9110 -0.1698
15824TIP3    H268964   2.510   5.180   1.072 -1.4277 -2.1777 -1.4655
15825TIP3   OH268965   4.483   5.217  14.073  0.2848 -0.8011 -0.1118
15825TIP3    H168966   4.571   5.250  14.088  0.1400 -0.9492  1.1367
15825TIP3    H268967   4.428   5.295  14.067  0.3828 -0.7348 -0.1448
15826TIP3   OH268968   2.463   4.138   6.243 -0.2191  0.3597 -0.0385
15826TIP3    H168969   2.457   4.074   6.313  0.5483  1.1272  0.7600
15826TIP3    H268970   2.552   4.173   6.250 -0.9810  2.4036  0.3691
15827TIP3   OH268971   3.708   2.822   0.747 -0.8605 -0.2847 -0.0388
15827TIP3    H168972   3.687   2.755   0.812  0.3446 -0.3789  0.2656
15827TIP3    H268973   3.627   2.872   0.737 -0.9192  0.0870  1.9417
15828TIP3   OH268974   0.083   4.088   1.428 -0.1987 -0.4790 -0.8324
15828TIP3    H168975   0.088   4.165   1.372 -0.8819 -1.6779 -2.6139
15828TIP3    H268976   0.010   4.106   1.487  2.3677  2.1236  1.9355
15829TIP3   OH268977   0.751   5.220  11.779  0.1752  0.0393 -0.0889
15829TIP3    H168978   0.700   5.292  11.742 -2.1340 -1.2418  0.4014
15829TIP3    H268979   0.778   5.169  11.703  0.0604  0.3113 -0.3181
15830TIP3   OH268980   0.144   2.751   6.224  0.2570  0.4549  0.1322
15830TIP3    H168981   0.071   2.808   6.245 -0.1360 -0.4853  1.4132
15830TIP3    H268982   0.221   2.808   6.231  0.0472  0.5368  3.0132
15831TIP3   OH268983   0.382   6.049   1.261  0.0052 -0.6301 -0.0144
15831TIP3    H168984   0.477   6.050   1.271 -0.0669 -0.3213  0.7313
15831TIP3    H268985   0.351   5.992   1.332 -0.2831 -1.9626 -1.1762
15832TIP3   OH268986   0.730   1.371  13.665 -0.5111 -0.1935  0.1182
15832TIP3    H168987   0.684   1.455  13.654 -1.7767 -0.9556 -0.5748
15832TIP3    H268988   0.678   1.324  13.730  0.0073 -0.5824  0.2550
15833TIP3   OH268989   5.281   4.609   4.956 -0.5764  0.3087  0.1072
15833TIP3    H168990   5.346   4.609   5.026  0.4911  1.2921 -0.8315
15833TIP3    H268991   5.210   4.663   4.990 -0.2468  0.4478  0.5878
15834TIP3   OH268992   0.122   5.948  12.680 -0.1863 -0.2293 -0.2227
15834TIP3    H168993   0.127   6.043  12.686  0.2490 -0.3091  0.7867
15834TIP3    H268994   0.109   5.931  12.586 -0.8353  0.8318 -0.3383
15835TIP3   OH268995   0.340   5.288   1.477  0.1198  0.1549  0.4190
15835TIP3    H168996   0.401   5.244   1.417  0.6296  0.6262  0.5781
15835TIP3    H268997   0.322   5.223   1.545 -0.4106 -0.3616 -0.2047
15836TIP3   OH268998   5.316   3.306   2.927 -0.3528 -0.1495 -0.2577
15836TIP3    H168999   5.225   3.287   2.903 -0.4644 -1.8530  1.2526
15836TIP3    H269000   5.309   3.377   2.991 -0.9102 -1.9022  1.7317
15837TIP3   OH269001   4.613   1.876  11.881 -0.2571 -0.4705  0.3140
15837TIP3    H169002   4.554   1.950  11.866 -0.2764 -0.6036 -0.2891
15837TIP3    H269003   4.697   1.904  11.844  0.2280 -0.0637  1.6613
15838TIP3   OH269004   4.692   2.788   4.472 -0.1421 -0.3695 -0.2135
15838TIP3    H169005   4.640   2.739   4.535 -0.5543 -0.8859 -0.9311
15838TIP3    H269006   4.717   2.723   4.406  2.0523 -0.2975  0.4718
15839TIP3   OH269007   4.057   6.446  13.866  0.4843 -0.3014 -0.1242
15839TIP3    H169008   4.026   6.458  13.777 -0.0602 -1.6897 -0.1567
15839TIP3    H269009   4.004   6.374  13.900  1.9819 -1.0833  0.6668
15840TIP3   OH269010   6.833   5.989   1.154  0.1496  0.0281  0.4589
15840TIP3    H169011   6.864   6.030   1.073  0.6282  0.1950  0.7169
15840TIP3    H269012   6.758   6.042   1.181  0.7851  0.7691  0.8081
15841TIP3   OH269013   5.596   2.254  14.014  0.0414 -0.1761 -0.1905
15841TIP3    H169014   5.633   2.204  14.087 -0.1225  0.8318  0.5984
15841TIP3    H269015   5.504   2.267  14.039  0.4414  1.8735  0.4024
15842TIP3   OH269016   3.233   0.532   5.976  0.3032  0.3040  0.5435
15842TIP3    H169017   3.173   0.460   5.992 -1.9765  1.7430 -0.9487
15842TIP3    H269018   3.276   0.510   5.893  0.4605  0.1426  0.6667
15843TIP3   OH269019   3.380   2.374   2.609 -0.1957 -0.6197 -0.6957
15843TIP3    H169020   3.472   2.400   2.601 -0.7286  1.8720  0.2297
15843TIP3    H269021   3.350   2.362   2.519  0.9948 -1.3880 -1.0051
15844TIP3   OH269022   4.485   3.015  14.907  0.3983  0.0394 -0.1772
15844TIP3    H169023   4.426   3.038  14.978  1.0043 -0.4963  0.5199
15844TIP3    H269024   4.571   3.045  14.937  0.4039  1.4677 -1.4799
15845TIP3   OH269025   1.626   2.303   5.272  0.2518  0.5268  0.2154
15845TIP3    H169026   1.626   2.333   5.181  0.8834  1.5433  0.5342
15845TIP3    H269027   1.563   2.231   5.273  0.6486  0.1187 -1.1466
15846TIP3   OH269028   2.103   2.351   1.288  0.3295  0.5242 -0.0518
15846TIP3    H169029   2.188   2.308   1.302  0.8072  0.5990 -2.3234
15846TIP3    H269030   2.107   2.430   1.341  1.6795  0.4885 -0.0631
15847TIP3   OH269031   1.114   5.216   2.000 -0.1507 -0.4325  0.4760
15847TIP3    H169032   1.102   5.189   2.091 -1.6468  1.2735  0.8328
15847TIP3    H269033   1.038   5.270   1.980  1.5076  1.5781 -0.9028
15848TIP3   OH269034   2.041   5.080  12.306 -0.4699 -0.6051 -0.2761
15848TIP3    H169035   2.025   5.141  12.233  1.3589 -0.5461 -0.6552
15848TIP3    H269036   2.019   4.994  12.270  0.6644 -0.6080 -0.9960
15849TIP3   OH269037   0.540   0.550   1.493 -0.2545 -0.4506 -0.0085
15849TIP3    H169038   0.485   0.533   1.570  0.2137  0.7003  0.6076
15849TIP3    H269039   0.539   0.467   1.444 -0.7455 -1.1409  1.1217
15850TIP3   OH269040   5.038   6.847  16.523 -0.1473  0.1074  0.3678
15850TIP3    H169041   5.025   6.928  16.573 -0.5692  1.0838 -1.2436
15850TIP3    H269042   4.964   6.791  16.549  1.0498 -0.4928  2.7515
15851TIP3   OH269043   6.130   4.638   3.728 -0.3925 -0.2333  0.4012
15851TIP3    H169044   6.063   4.679   3.674 -0.4276  1.7209  1.7946
15851TIP3    H269045   6.193   4.709   3.745  1.8647 -1.9097 -0.5678
15852TIP3   OH269046   0.552   6.152   4.069  1.1966  0.1256 -0.7158
15852TIP3    H169047   0.513   6.067   4.089  5.2829 -1.7255  0.5054
15852TIP3    H269048   0.576   6.188   4.155  1.1625  1.6495 -1.3169
15853TIP3   OH269049   5.998   6.006  12.892  0.0908 -0.1446  0.2691
15853TIP3    H169050   5.980   6.096  12.866  1.1419 -0.1593 -0.5238
15853TIP3    H269051   5.929   5.954  12.849  1.2100 -0.0517 -1.7193
15854TIP3   OH269052   4.328   3.017   0.277 -0.0165  0.6138 -0.1115
15854TIP3    H169053   4.295   2.931   0.250  0.3226  0.1433  0.9108
15854TIP3    H269054   4.395   2.997   0.343  0.0148  1.6587  0.1871
15855TIP3   OH269055   3.352   5.775   1.238 -0.1063  0.0224 -0.0996
15855TIP3    H169056   3.348   5.765   1.333 -0.5113 -0.6997 -0.1810
15855TIP3    H269057   3.261   5.778   1.210  0.0072  0.9956 -0.4046
15856TIP3   OH269058   4.283   0.491   2.284 -0.1697 -0.1303  0.5433
15856TIP3    H169059   4.363   0.442   2.305 -0.5982 -0.7319  0.7753
15856TIP3    H269060   4.226   0.477   2.359 -0.3089  0.7164  0.6028
15857TIP3   OH269061   0.004   5.928  10.474  0.2498  0.0246  0.7555
15857TIP3    H169062   0.031   5.838  10.494 -0.9075  0.0772  2.8700
15857TIP3    H269063   0.019   5.976  10.555  0.7233  1.7411 -0.3007
15858TIP3   OH269064   0.940   1.512   0.932 -0.8177 -0.4795  0.2786
15858TIP3    H169065   0.936   1.469   0.846 -0.8775 -0.8165  0.4452
15858TIP3    H269066   1.033   1.513   0.955 -0.7978 -0.3502  0.1894
15859TIP3   OH269067   4.420   4.281   0.755  0.2773 -0.4531  0.4021
15859TIP3    H169068   4.326   4.267   0.759  0.4151 -1.4586  0.3322
15859TIP3    H269069   4.453   4.251   0.840  0.7341 -1.8269 -0.2324
15860TIP3   OH269070   0.356   3.749   4.598  0.6463  0.2568 -0.0149
15860TIP3    H169071   0.401   3.834   4.593 -0.1168  0.6379 -0.6820
15860TIP3    H269072   0.279   3.760   4.541  1.4362 -1.4518 -1.4795
15861TIP3   OH269073   1.107   3.305  15.384  0.3247 -0.1727 -0.1343
15861TIP3    H169074   1.198   3.277  15.389 -0.0159 -1.5775 -1.2504
15861TIP3    H269075   1.107   3.376  15.319  0.7946  0.7157  0.8111
15862TIP3   OH269076   1.346   1.019  14.031 -0.1951  0.0473  0.2031
15862TIP3    H169077   1.352   1.058  13.944  0.6353 -0.3491  0.0713
15862TIP3    H269078   1.382   0.931  14.020 -1.6223 -0.6135  0.5853
15863TIP3   OH269079   1.423   5.060   2.237 -0.3137  0.2060  0.0544
15863TIP3    H169080   1.332   5.076   2.214  0.1822  1.7452 -1.0007
15863TIP3    H269081   1.419   5.017   2.323 -2.0771 -1.9131 -0.9966
15864TIP3   OH269082   5.474   6.512  11.310  0.4941  0.4869 -0.3175
15864TIP3    H169083   5.416   6.446  11.272  0.9755  0.7381 -1.5576
15864TIP3    H269084   5.419   6.589  11.323  0.0501  0.0227  0.6481
15865TIP3   OH269085   1.686   2.686  11.198  0.2859 -0.4850 -0.0771
15865TIP3    H169086   1.679   2.744  11.274 -1.0143 -1.8725  0.9405
15865TIP3    H269087   1.626   2.724  11.134 -0.1089 -0.3744  0.3506
15866TIP3   OH269088   2.665   6.356   5.364  0.1327  0.4677  0.6084
15866TIP3    H169089   2.609   6.354   5.442  0.2134 -0.4885  0.6522
15866TIP3    H269090   2.695   6.447   5.358 -2.3143  1.3030 -0.0584
15867TIP3   OH269091   0.110   0.276   1.003  0.1906 -0.2682 -0.4351
15867TIP3    H169092   0.119   0.207   0.938  1.4738 -0.0843 -0.4828
15867TIP3    H269093   0.025   0.316   0.985 -0.1116 -1.1599 -1.0546
15868TIP3   OH269094   6.554   6.397  10.838  0.1487  0.4041 -0.4757
15868TIP3    H169095   6.490   6.382  10.908  1.0921  0.2934  0.3864
15868TIP3    H269096   6.588   6.309  10.818  0.1369  0.4794 -0.8372
15869TIP3   OH269097   5.511   1.705   5.486 -0.2877 -0.2385  0.5980
15869TIP3    H169098   5.598   1.682   5.520  0.7172 -0.2917 -1.7759
15869TIP3    H269099   5.485   1.781   5.537  0.7668 -0.7284  1.9374
15870TIP3   OH269100   3.172   1.658   2.465 -0.7107 -0.2528 -0.2154
15870TIP3    H169101   3.252   1.678   2.416 -0.1064  0.9516  1.1649
15870TIP3    H269102   3.152   1.740   2.511 -1.3762 -1.2508  1.3435
15871TIP3   OH269103   4.266   3.349  13.644 -0.4389  0.0940 -0.1748
15871TIP3    H169104   4.283   3.267  13.690  1.7282  1.4645  1.6220
15871TIP3    H269105   4.342   3.361  13.588 -0.2133  1.3875  0.3857
15872TIP3   OH269106   6.379   6.546  12.678 -0.3483  0.1967  0.1360
15872TIP3    H169107   6.348   6.554  12.768  1.5556  1.0935  0.7674
15872TIP3    H269108   6.378   6.636  12.644  2.0668  0.4250  0.4386
15873TIP3   OH269109   6.234   4.232   0.622  0.3287 -0.0662  0.1102
15873TIP3    H169110   6.199   4.202   0.539  2.1127  2.2448 -1.6024
15873TIP3    H269111   6.264   4.153   0.666  0.0724 -1.2844 -1.8028
15874TIP3   OH269112   0.390   0.555   2.835  0.6694  0.1645 -0.2320
15874TIP3    H169113   0.426   0.534   2.922  1.4963  2.3614  0.0258
15874TIP3    H269114   0.426   0.487   2.778 -0.5150 -1.8069  1.2013
15875TIP3   OH269115   0.419   1.730  13.867 -0.2847 -0.4000 -0.7270
15875TIP3    H169116   0.327   1.702  13.861  0.7813 -4.2720 -2.0935
15875TIP3    H269117   0.448   1.699  13.952  0.2527 -1.1935 -1.1839
15876TIP3   OH269118   2.924   1.215   4.562  0.0057 -0.2273  0.1358
15876TIP3    H169119   2.951   1.266   4.638  0.5722  1.9784 -1.4374
15876TIP3    H269120   3.004   1.168   4.536  0.0186 -0.3728  0.4318
15877TIP3   OH269121   5.671   1.238   3.946  0.3412  0.6517 -0.1042
15877TIP3    H169122   5.724   1.316   3.960  1.5917 -0.1388 -0.3604
15877TIP3    H269123   5.664   1.197   4.032  0.3620  0.6277 -0.1136
15878TIP3   OH269124   2.925   2.005   0.556 -0.1052 -0.0576 -0.1507
15878TIP3    H169125   2.956   1.960   0.634  1.5674  1.5061  0.1390
15878TIP3    H269126   2.919   1.936   0.489 -1.2632 -1.3508  1.2360
15879TIP3   OH269127   5.880   5.863   1.862 -0.2468 -0.0867  0.4513
15879TIP3    H169128   5.893   5.846   1.956  0.8139  0.2877  0.3883
15879TIP3    H269129   5.961   5.831   1.821 -0.6073 -0.0280 -0.3095
15880TIP3   OH269130   5.350   3.940   2.154  0.6976  0.3048  0.0481
15880TIP3    H169131   5.269   3.938   2.205  1.0469  1.4631  0.6730
15880TIP3    H269132   5.323   3.974   2.068  0.3465 -0.3600 -0.1138
15881TIP3   OH269133   2.222   2.425  12.242  0.4734 -0.3101  0.0297
15881TIP3    H169134   2.156   2.429  12.173 -0.3414  0.5384  0.8231
15881TIP3    H269135   2.304   2.449  12.198  0.4401 -2.1796 -1.1365
15882TIP3   OH269136   1.746   5.566   0.409  0.3993  0.0184  0.4248
15882TIP3    H169137   1.691   5.644   0.413  0.3883  0.0193  0.2781
15882TIP3    H269138   1.812   5.586   0.343 -0.4951 -0.6525 -0.7203
15883TIP3   OH269139   5.055   5.316   1.707  0.0182 -0.0446 -0.5075
15883TIP3    H169140   4.982   5.338   1.763 -0.4151 -0.2517 -0.9806
15883TIP3    H269141   5.047   5.375   1.632  0.3373 -0.0671 -0.5632
15884TIP3   OH269142   3.173   1.127   4.552 -0.1407 -0.4449  0.0815
15884TIP3    H169143   3.184   1.049   4.498 -0.0667  0.1715 -0.8215
15884TIP3    H269144   3.243   1.122   4.617  1.3790  0.0578 -1.4473
15885TIP3   OH269145   0.858   5.595   2.752 -0.2416  0.1447 -0.3566
15885TIP3    H169146   0.782   5.639   2.790 -0.5590  0.3290 -1.1852
15885TIP3    H269147   0.924   5.599   2.821 -1.0214 -0.1471  0.4380
15886TIP3   OH269148   3.623   6.256   5.484  0.2894  0.2653 -0.0008
15886TIP3    H169149   3.549   6.317   5.479  0.1910  0.0791 -1.2154
15886TIP3    H269150   3.635   6.239   5.577 -1.8073 -0.4296  0.1870
15887TIP3   OH269151   2.746   1.116  17.113 -0.1996 -0.8281  0.2502
15887TIP3    H169152   2.796   1.042  17.147 -1.5109 -1.3457  1.1202
15887TIP3    H269153   2.668   1.120  17.168 -0.9155  0.2215 -0.7911
15888TIP3   OH269154   4.601   0.426  13.377  0.0694 -0.1234  0.2044
15888TIP3    H169155   4.572   0.335  13.383 -0.5390  0.0541  0.0619
15888TIP3    H269156   4.519   0.476  13.369  0.1589  0.6912  3.1888
15889TIP3   OH269157   2.587   1.067   1.772 -0.5197  0.1054 -0.5227
15889TIP3    H169158   2.554   1.141   1.822 -1.3710 -0.5010 -0.1543
15889TIP3    H269159   2.626   1.106   1.694 -1.5087  0.9045 -0.6417
15890TIP3   OH269160   1.642   4.876  11.184  0.0026 -0.3847  0.2206
15890TIP3    H169161   1.585   4.927  11.127 -0.6551 -1.0696  0.2407
15890TIP3    H269162   1.587   4.803  11.214  1.4964 -2.3833 -1.5860
15891TIP3   OH269163   5.643   5.310  13.452  0.6766 -0.6459 -0.1861
15891TIP3    H169164   5.731   5.276  13.472  0.5208  0.2619  2.4852
15891TIP3    H269165   5.658   5.399  13.420  0.7818 -1.0874 -1.4107
15892TIP3   OH269166   2.303   1.564  13.632 -0.7028  0.0387  1.0335
15892TIP3    H169167   2.286   1.526  13.545 -0.0145  0.2156  0.8095
15892TIP3    H269168   2.220   1.556  13.678 -1.8702  2.2609 -0.4902
15893TIP3   OH269169   3.626   1.241   2.497  0.6157  0.0009 -0.5432
15893TIP3    H169170   3.606   1.166   2.554  2.7193  0.1259  0.4760
15893TIP3    H269171   3.620   1.317   2.555  1.9127  0.2252 -0.6730
15894TIP3   OH269172   5.865   2.885   5.525  0.2061  0.2883  0.2696
15894TIP3    H169173   5.819   2.836   5.457  2.2300 -2.6246  0.7740
15894TIP3    H269174   5.796   2.927   5.576 -1.4977  0.5231 -2.0510
15895TIP3   OH269175   1.760   5.610  15.069 -0.0490  0.3188 -0.3109
15895TIP3    H169176   1.681   5.579  15.024 -0.0571  0.2310 -0.2367
15895TIP3    H269177   1.772   5.549  15.141 -0.5315  0.9706  0.3264
15896TIP3   OH269178   4.608   5.304  14.537 -0.0705 -0.4023 -0.1606
15896TIP3    H169179   4.626   5.247  14.462 -0.2960 -2.2273  1.0915
15896TIP3    H269180   4.515   5.325  14.530 -0.3414 -1.4338  0.1307
15897TIP3   OH269181   6.300   3.662   3.596  0.0016  0.0266 -0.1554
15897TIP3    H169182   6.368   3.621   3.543 -0.5836 -0.3698 -0.6175
15897TIP3    H269183   6.332   3.751   3.612  0.8897 -0.3362  0.1342
15898TIP3   OH269184   3.108   0.655  16.881  0.3106 -0.1182  0.0712
15898TIP3    H169185   3.148   0.603  16.810  0.8484 -2.5748  2.0482
15898TIP3    H269186   3.156   0.738  16.878  0.7390 -0.3730 -2.0391
15899TIP3   OH269187   4.422   2.107  13.171  0.3057  0.0849 -0.0494
15899TIP3    H169188   4.488   2.049  13.210  0.8600  0.8561  0.1948
15899TIP3    H269189   4.458   2.195  13.183 -1.8345  0.7544  2.2560
15900TIP3   OH269190   3.254   0.929   0.786 -0.3629  0.0343  0.4582
15900TIP3    H169191   3.250   1.024   0.790  0.8907  0.1014  0.7831
15900TIP3    H269192   3.278   0.909   0.696 -1.2636 -0.0170  0.2230
15901TIP3   OH269193   5.944   3.422   4.000  0.0776 -0.1404  0.3943
15901TIP3    H169194   5.965   3.329   3.992  1.3911  0.2692 -1.7502
15901TIP3    H269195   5.873   3.436   3.938  1.1409  0.5922 -0.7088
15902TIP3   OH269196   4.829   5.718   6.705 -0.3075  0.4977 -0.1586
15902TIP3    H169197   4.780   5.789   6.663 -0.9740 -0.4105 -0.9482
15902TIP3    H269198   4.826   5.646   6.643 -1.0674 -0.7954  1.2920
15903TIP3   OH269199   2.493   0.141  11.788 -0.1287 -0.1839  0.5015
15903TIP3    H169200   2.584   0.149  11.817 -0.0631 -2.1875  0.9957
15903TIP3    H269201   2.498   0.087  11.710 -0.8713  0.1322  0.2332
15904TIP3   OH269202   1.037   3.659   3.374  0.0002  0.1307  0.1299
15904TIP3    H169203   1.109   3.629   3.319  0.9728  0.2419  1.3131
15904TIP3    H269204   0.961   3.611   3.341  0.9294 -1.2998 -0.0190
15905TIP3   OH269205   6.448   5.869   3.036  0.1588 -0.5969  0.3322
15905TIP3    H169206   6.466   5.821   2.955 -0.7845  1.2767 -1.0746
15905TIP3    H269207   6.520   5.932   3.043 -0.4552  0.1262  0.2241
15906TIP3   OH269208   2.863   5.178  15.032 -0.0920 -0.2752 -0.3437
15906TIP3    H169209   2.888   5.085  15.036 -0.7140 -0.3989  1.2966
15906TIP3    H269210   2.944   5.225  15.050  0.2556 -0.4778 -1.3073
15907TIP3   OH269211   1.001   2.534   3.678 -0.2555  0.1315  0.1416
15907TIP3    H169212   1.006   2.447   3.639 -0.6889  0.6572 -1.1318
15907TIP3    H269213   0.924   2.574   3.638  0.8202  1.6647 -0.5024
15908TIP3   OH269214   3.136   5.810   2.544  0.4603  0.7131 -0.4020
15908TIP3    H169215   3.223   5.786   2.513  0.2300 -1.2436  0.2933
15908TIP3    H269216   3.125   5.759   2.624  0.1931  3.8746  1.7906
15909TIP3   OH269217   0.600   4.026  14.620  0.2697 -0.2018  0.4347
15909TIP3    H169218   0.693   4.003  14.622  0.5812  0.8028 -0.7893
15909TIP3    H269219   0.559   3.966  14.682  1.5528 -1.5040  0.0862
15910TIP3   OH269220   4.266   4.696  15.856  0.1815 -0.4353  0.7210
15910TIP3    H169221   4.336   4.747  15.814  0.0167  0.0071  0.9779
15910TIP3    H269222   4.294   4.688  15.948  1.3958 -2.8656  0.2139
15911TIP3   OH269223   4.055   0.097  12.953 -0.3915  0.4894 -0.0211
15911TIP3    H169224   3.960   0.090  12.951 -0.4403 -0.1392  2.1740
15911TIP3    H269225   4.083   0.072  12.865 -2.1423 -1.7224 -0.0479
15912TIP3   OH269226   5.391   1.218  13.513  0.2086  0.3155  0.6302
15912TIP3    H169227   5.461   1.282  13.529 -1.7019  2.5444  0.7819
15912TIP3    H269228   5.355   1.243  13.427 -0.5815 -0.5674  0.6906
15913TIP3   OH269229   2.128   2.970   2.083 -0.1188  0.1384  0.1586
15913TIP3    H169230   2.169   2.946   2.166  0.1876  1.9453  0.5831
15913TIP3    H269231   2.193   2.948   2.016  0.3283  0.2063  0.5654
15914TIP3   OH269232   1.762   5.672   1.205 -0.0007 -0.4718 -0.1208
15914TIP3    H169233   1.683   5.673   1.150  0.5465  0.8479 -0.9289
15914TIP3    H269234   1.729   5.691   1.293 -0.2810  5.3913 -1.0970
15915TIP3   OH269235   2.318   2.255  15.722  0.0277  0.3284 -0.8902
15915TIP3    H169236   2.238   2.299  15.693 -0.1247  0.6661  0.0135
15915TIP3    H269237   2.334   2.188  15.655 -1.2602 -0.0454 -0.8489
15916TIP3   OH269238   6.790   0.804  13.594 -0.1700 -0.3863  0.3123
15916TIP3    H169239   6.754   0.800  13.506 -0.5370  0.6752  0.4066
15916TIP3    H269240   6.767   0.720  13.633  0.0683 -0.9015 -0.6166
15917TIP3   OH269241   4.691   3.141   0.255 -0.2569  0.1284  0.0884
15917TIP3    H169242   4.682   3.236   0.247 -0.1502  0.0183 -1.6675
15917TIP3    H269243   4.782   3.124   0.230 -0.7533 -0.5784 -1.3108
15918TIP3   OH269244   0.148   1.269  15.965  0.4633  0.2579 -0.6341
15918TIP3    H169245   0.078   1.243  16.025 -0.3026  0.4820 -1.4155
15918TIP3    H269246   0.104   1.286  15.882  1.4826  0.1653 -1.2126
15919TIP3   OH269247   2.470   6.722  16.456  0.7029 -0.0417  0.4917
15919TIP3    H169248   2.524   6.789  16.414 -0.8314  1.5107  0.8505
15919TIP3    H269249   2.430   6.675  16.383  1.6460 -0.4531  0.2311
15920TIP3   OH269250   1.462   0.052  10.674 -0.0906  0.3640  0.3130
15920TIP3    H169251   1.542   0.082  10.630  0.5886 -1.1869  0.3971
15920TIP3    H269252   1.394   0.060  10.607  0.3611  0.7041 -0.1153
15921TIP3   OH269253   2.155   5.561   5.067  0.3906  0.4663 -0.3040
15921TIP3    H169254   2.219   5.615   5.020  1.1012  1.0389  1.2687
15921TIP3    H269255   2.157   5.594   5.157 -0.5426 -0.9553  0.2704
15922TIP3   OH269256   6.601   0.824   0.474 -0.6337  0.0435  0.0797
15922TIP3    H169257   6.659   0.867   0.411  0.3000  0.2139  1.0393
15922TIP3    H269258   6.537   0.892   0.498 -0.5193  0.2096 -0.0830
15923TIP3   OH269259   0.954   1.912  13.183  1.1234  0.4210 -0.3007
15923TIP3    H169260   1.045   1.939  13.171  1.3812 -1.2842 -3.4023
15923TIP3    H269261   0.946   1.832  13.130 -1.0254 -2.1964  3.5169
15924TIP3   OH269262   3.342   3.622  12.195 -0.6223  0.5650  0.5730
15924TIP3    H169263   3.285   3.559  12.240  1.9791 -1.9941  0.6081
15924TIP3    H269264   3.358   3.582  12.109 -1.1085  2.6555 -0.5485
15925TIP3   OH269265   1.407   4.808  15.787 -0.7487 -0.6414 -0.1166
15925TIP3    H169266   1.405   4.773  15.876  0.2999  0.6030  0.4304
15925TIP3    H269267   1.490   4.776  15.751  0.9054  2.1519  0.8489
15926TIP3   OH269268   6.780   4.536  16.723 -0.3553  0.0199  0.8155
15926TIP3    H169269   6.743   4.618  16.756  0.1946 -0.5044  2.8859
15926TIP3    H269270   6.705   4.478  16.713 -0.9259  1.0903 -1.8999
15927TIP3   OH269271   1.768   2.673   0.311 -0.5615 -0.1104 -0.3656
15927TIP3    H169272   1.715   2.738   0.356 -2.0536 -0.3754 -1.6621
15927TIP3    H269273   1.789   2.713   0.227  0.9141 -0.2130 -0.0767
15928TIP3   OH269274   3.087   6.653  12.066  0.0846  0.2763  0.1716
15928TIP3    H169275   3.131   6.586  12.119  1.0295  2.2135  2.0030
15928TIP3    H269276   3.008   6.676  12.116 -0.8142 -0.2143 -0.9884
15929TIP3   OH269277   0.138   0.345  12.060 -0.1772 -0.3311 -0.3981
15929TIP3    H169278   0.156   0.291  11.983  1.1273 -1.0131  0.3466
15929TIP3    H269279   0.096   0.285  12.122  2.4407 -0.9611  0.9358
15930TIP3   OH269280   5.386   3.960   6.423  0.6090 -0.0834 -0.3128
15930TIP3    H169281   5.466   4.007   6.444  0.5529  0.6509 -1.5939
15930TIP3    H269282   5.353   4.003   6.344 -0.4857 -1.0470 -0.4168
15931TIP3   OH269283   6.008   4.139  16.640  0.0607  0.1498  0.0125
15931TIP3    H169284   5.990   4.181  16.724 -0.5322  2.3057 -1.1435
15931TIP3    H269285   6.062   4.201  16.592  1.4336 -1.5689 -0.8011
15932TIP3   OH269286   3.485   4.671   1.819  0.3606  0.5269  0.4008
15932TIP3    H169287   3.436   4.589   1.816  0.8808  0.0535  2.8860
15932TIP3    H269288   3.425   4.735   1.858  0.4684  0.9509 -0.1048
15933TIP3   OH269289   1.438   2.103  12.233  0.1866  0.3688 -0.2971
15933TIP3    H169290   1.528   2.130  12.215 -0.3730  1.9987 -0.8582
15933TIP3    H269291   1.401   2.084  12.146  0.2834 -1.3687  0.0150
15934TIP3   OH269292   5.577   6.362   4.290  0.0283 -0.2811 -0.0266
15934TIP3    H169293   5.553   6.354   4.382 -3.2141 -0.9550 -0.7866
15934TIP3    H269294   5.559   6.454   4.269  1.2480 -0.0030  0.0990
15935TIP3   OH269295   0.006   0.612   5.532 -0.0333  0.1458  0.0615
15935TIP3    H169296   0.042   0.618   5.620  3.3027  0.4638 -1.1664
15935TIP3    H269297  -0.061   0.681   5.529 -0.3598  0.0100  2.3208
15936TIP3   OH269298   0.987   3.541   1.328  0.2066 -0.3361 -0.4091
15936TIP3    H169299   1.057   3.578   1.382  1.6864  2.0387 -3.6040
15936TIP3    H269300   0.906   3.578   1.365  0.5535 -2.2741  2.6769
15937TIP3   OH269301   6.227   5.042  11.721  0.1027  0.3824 -0.0007
15937TIP3    H169302   6.191   4.954  11.731 -1.1575  0.9047  0.1507
15937TIP3    H269303   6.172   5.084  11.655  1.7637  0.5056 -1.3833
15938TIP3   OH269304   6.513   4.465   6.261 -0.3170 -0.3093 -0.0813
15938TIP3    H169305   6.491   4.555   6.238 -0.6489 -0.3455  0.0899
15938TIP3    H269306   6.605   4.470   6.288 -0.5533  0.1237  0.6850
15939TIP3   OH269307   0.607   0.015  13.132  0.0841  0.2582  0.0362
15939TIP3    H169308   0.562   0.008  13.048  2.5650  3.2913 -1.7449
15939TIP3    H269309   0.557   0.079  13.181 -0.0417  0.2777 -0.1168
15940TIP3   OH269310   3.439   6.331   2.822 -1.1909 -0.0030  0.6722
15940TIP3    H169311   3.367   6.338   2.760  0.7905  3.3234 -1.5835
15940TIP3    H269312   3.487   6.252   2.795 -0.5232  1.2261 -2.0615
15941TIP3   OH269313   1.896   0.925   1.123 -0.2606  0.8376  0.3213
15941TIP3    H169314   1.939   0.844   1.151 -1.8750  0.0696  0.7204
15941TIP3    H269315   1.967   0.983   1.099  0.9371 -1.1399 -1.2007
15942TIP3   OH269316   2.408   4.417  15.337 -0.1263 -0.4016  0.1908
15942TIP3    H169317   2.327   4.370  15.321 -1.2523  1.0781  1.2133
15942TIP3    H269318   2.393   4.504  15.300 -0.4781  1.0749  3.4213
15943TIP3   OH269319   0.701   0.708   3.049 -0.0345 -0.1040 -0.0322
15943TIP3    H169320   0.739   0.735   3.133  0.5760  2.3207 -0.9845
15943TIP3    H269321   0.763   0.644   3.014  1.6545  1.5147 -0.1709
15944TIP3   OH269322   4.077   1.630   0.854  0.4482  0.3206  0.5912
15944TIP3    H169323   4.093   1.704   0.794  2.1626 -0.7127 -0.3293
15944TIP3    H269324   4.093   1.552   0.800 -3.8192 -0.9231  0.8002
15945TIP3   OH269325   5.688   4.199   3.598 -0.3134  0.0448  0.0434
15945TIP3    H169326   5.707   4.259   3.527 -1.4277  0.2827 -0.0783
15945TIP3    H269327   5.682   4.113   3.557 -1.0307  0.1929 -0.1670
15946TIP3   OH269328   4.626   1.896  12.915  0.2033 -0.9182 -0.1904
15946TIP3    H169329   4.560   1.962  12.894  1.3905 -0.0468 -1.3619
15946TIP3    H269330   4.596   1.857  12.997 -0.5053  1.1251  0.5806
15947TIP3   OH269331   1.863   6.591  12.894 -0.4249 -0.5454 -0.2212
15947TIP3    H169332   1.886   6.559  12.807  0.9625 -0.6294  0.1381
15947TIP3    H269333   1.915   6.536  12.953  0.2886  0.8764  0.5259
15948TIP3   OH269334   0.324   4.943  14.041  0.3347  0.1884 -0.8065
15948TIP3    H169335   0.340   4.934  13.947 -0.0159  1.7980 -1.0319
15948TIP3    H269336   0.243   4.894  14.057  0.5551 -0.3366 -1.2733
15949TIP3   OH269337   6.384   6.214  14.418 -0.2927  0.2240  0.7932
15949TIP3    H169338   6.469   6.255  14.430  0.1779 -0.1028 -1.1596
15949TIP3    H269339   6.327   6.258  14.481  1.5823 -0.5192  3.1580
15950TIP3   OH269340   2.998   4.979   5.763  0.7336  0.1227  0.4406
15950TIP3    H169341   3.049   5.047   5.720  1.3406  0.7511  2.0592
15950TIP3    H269342   2.917   5.024   5.790  0.3091 -0.2883 -0.1305
15951TIP3   OH269343   3.478   5.066   3.297  0.1475 -0.5793  0.3794
15951TIP3    H169344   3.544   5.132   3.278  0.3744 -0.9364 -0.0859
15951TIP3    H269345   3.431   5.054   3.215  1.4182 -2.4449 -0.1464
15952TIP3   OH269346   0.718   4.665  13.082  0.0679  0.6359  0.0482
15952TIP3    H169347   0.690   4.653  13.173  1.8568 -0.0670  0.5431
15952TIP3    H269348   0.735   4.576  13.050 -0.5375  0.8794 -0.9843
15953TIP3   OH269349   4.490   6.426  14.924  0.1453 -0.0976  0.5558
15953TIP3    H169350   4.410   6.448  14.972 -0.7136 -0.7679 -0.5227
15953TIP3    H269351   4.526   6.511  14.898  0.4614  0.2597  2.0934
15954TIP3   OH269352   6.734   2.515   3.935  0.2108  0.0782  0.0267
15954TIP3    H169353   6.670   2.584   3.952  1.5867  1.3071  0.4804
15954TIP3    H269354   6.786   2.511   4.015  1.7332  0.2999 -0.9042
15955TIP3   OH269355   6.763   4.971  10.373  0.4104 -0.6118  0.4721
15955TIP3    H169356   6.773   5.033  10.301 -3.2677 -0.3158  0.0450
15955TIP3    H269357   6.807   4.892  10.342  0.1712 -0.0353 -1.5105
15956TIP3   OH269358   0.949   1.649   3.122 -0.2180  0.6451  0.0211
15956TIP3    H169359   0.947   1.560   3.158  0.7524  0.3703 -0.5514
15956TIP3    H269360   0.862   1.685   3.141 -0.4730 -0.2689  0.6491
15957TIP3   OH269361   4.903   2.066  17.058 -0.3766  0.6459 -0.0811
15957TIP3    H169362   4.930   2.126  16.988 -2.3568 -0.3776 -1.8452
15957TIP3    H269363   4.894   2.121  17.135  2.0338  1.7978 -0.5285
15958TIP3   OH269364   3.237   4.891  11.845 -0.6813 -0.0393 -0.6394
15958TIP3    H169365   3.262   4.972  11.800 -1.2045  0.7427  0.4102
15958TIP3    H269366   3.275   4.901  11.933 -1.5458 -0.5043 -0.2043
15959TIP3   OH269367   3.542   4.774  15.727  0.7578  0.5759 -0.0870
15959TIP3    H169368   3.547   4.858  15.772 -2.5880  2.5209 -2.8312
15959TIP3    H269369   3.464   4.732  15.764  0.6537  0.0974 -0.8215
15960TIP3   OH269370   1.493   1.041   4.820  0.5206  0.1283  0.0917
15960TIP3    H169371   1.473   1.135   4.816 -0.3916  0.1835  3.0867
15960TIP3    H269372   1.437   1.002   4.753  0.6020  1.6642 -0.9170
15961TIP3   OH269373   3.145   2.603  11.413 -0.0736 -0.3943  0.0607
15961TIP3    H169374   3.182   2.517  11.433 -0.0795 -0.5455 -0.5715
15961TIP3    H269375   3.211   2.645  11.357  0.4536  0.4591  1.2555
15962TIP3   OH269376   1.604   5.460  14.027  0.3864  0.3068 -0.2528
15962TIP3    H169377   1.655   5.491  14.102 -2.4220  1.9467  1.1129
15962TIP3    H269378   1.578   5.371  14.051  0.3823  0.4349  0.2246
15963TIP3   OH269379   3.854   5.753  14.145  0.3514 -0.0278  0.0136
15963TIP3    H169380   3.847   5.839  14.102  0.1019 -0.9465 -1.9141
15963TIP3    H269381   3.917   5.705  14.092  1.5763 -0.6032  1.9036
15964TIP3   OH269382   2.172   2.148   6.173 -0.2482  0.2846 -0.1317
15964TIP3    H169383   2.196   2.184   6.259  0.5398 -1.7565  0.5689
15964TIP3    H269384   2.204   2.058   6.175 -1.7065 -0.3405 -1.9594
15965TIP3   OH269385   2.120   5.090  13.678  0.5287  0.0626 -0.4158
15965TIP3    H169386   2.073   5.006  13.672 -1.8970  1.4048 -2.2042
15965TIP3    H269387   2.050   5.156  13.680  2.3489  2.1261 -1.2208
15966TIP3   OH269388   4.036   5.673  11.612  0.1891 -0.7377  0.1795
15966TIP3    H169389   3.942   5.653  11.615  0.1779 -0.9192 -0.9423
15966TIP3    H269390   4.068   5.652  11.700 -0.6443 -1.5717  0.2933
15967TIP3   OH269391   0.287   1.518  12.156  0.2217 -0.0449 -0.2841
15967TIP3    H169392   0.351   1.470  12.104 -0.3717 -0.3171 -0.7805
15967TIP3    H269393   0.202   1.486  12.125 -0.1539 -0.0529  0.6996
15968TIP3   OH269394   5.563   3.448   2.354  0.8217  0.2798 -0.0854
15968TIP3    H169395   5.659   3.450   2.364  0.8907  2.1979 -0.7566
15968TIP3    H269396   5.548   3.400   2.273  1.2681  0.7004 -0.4231
15969TIP3   OH269397   0.109   3.768   1.925  0.0789  0.2062 -0.4014
15969TIP3    H169398   0.078   3.680   1.906  3.4916 -1.0460 -0.9749
15969TIP3    H269399   0.170   3.756   1.998 -0.7169  2.4250  0.7101
15970TIP3   OH269400   4.798   2.804  15.377  0.6317 -0.0862 -0.1665
15970TIP3    H169401   4.766   2.768  15.295  2.1199  0.6245 -1.1023
15970TIP3    H269402   4.795   2.730  15.438 -0.8119 -0.5320 -0.7433
15971TIP3   OH269403   0.548   1.876   0.771  0.1253  0.0980  0.1510
15971TIP3    H169404   0.542   1.972   0.773  0.7864  0.1255  0.7598
15971TIP3    H269405   0.468   1.846   0.815  0.2996  0.3788  0.6607
15972TIP3   OH269406   2.535   4.367   1.714 -0.5239  0.6093 -0.0284
15972TIP3    H169407   2.460   4.410   1.757  0.3624  1.4545  0.7208
15972TIP3    H269408   2.611   4.399   1.761  0.4589  1.0905 -1.8435
15973TIP3   OH269409   2.085   3.025  15.506 -0.6047 -0.5105 -0.2235
15973TIP3    H169410   2.115   3.095  15.563 -1.0850 -0.9594  0.6060
15973TIP3    H269411   2.006   3.060  15.464 -0.0498 -0.0492 -0.9024
15974TIP3   OH269412   4.272   3.785   2.330  0.2868 -0.2859 -0.2678
15974TIP3    H169413   4.293   3.771   2.423  1.8583  0.4500 -0.4671
15974TIP3    H269414   4.337   3.732   2.283 -0.8964 -1.1638 -0.9747
15975TIP3   OH269415   6.590   2.473   5.771 -0.3459  0.3885 -0.4197
15975TIP3    H169416   6.635   2.440   5.848 -0.8652 -0.5222 -0.4983
15975TIP3    H269417   6.499   2.445   5.781 -0.4434  0.3433 -1.3014
15976TIP3   OH269418   5.174   4.233   4.236 -0.0960  0.2304 -0.0307
15976TIP3    H169419   5.249   4.226   4.295  0.6443 -0.6917 -1.0319
15976TIP3    H269420   5.159   4.327   4.227  0.1114  0.3988  1.1851
15977TIP3   OH269421   4.031   3.457   5.039  0.3001 -0.0550 -0.4161
15977TIP3    H169422   4.111   3.443   5.089 -0.0550 -1.1267 -0.1279
15977TIP3    H269423   4.028   3.551   5.024  1.6301 -0.0031 -0.4625
15978TIP3   OH269424   6.782   2.643  11.851 -0.5870  1.1201  0.0171
15978TIP3    H169425   6.716   2.575  11.836 -1.5714  2.0292  0.0984
15978TIP3    H269426   6.812   2.627  11.941  2.8113 -2.1984 -1.4601
15979TIP3   OH269427   1.078   3.344  15.909  0.0964 -0.0779  0.3141
15979TIP3    H169428   1.152   3.384  15.953  0.0495 -0.3772  0.6607
15979TIP3    H269429   1.096   3.250  15.910 -0.0094 -0.1080 -0.1103
15980TIP3   OH269430   6.359   0.721  13.664 -0.1322 -0.0795 -0.0172
15980TIP3    H169431   6.404   0.637  13.654  0.5007  0.1783  0.5166
15980TIP3    H269432   6.272   0.698  13.696 -0.3843 -0.5878 -1.0241
15981TIP3   OH269433   1.971   5.155  13.416 -0.2402 -0.3690 -0.6575
15981TIP3    H169434   2.023   5.231  13.389  0.9566 -0.8613  0.1413
15981TIP3    H269435   2.020   5.119  13.490 -1.5179 -1.1238 -0.1576
15982TIP3   OH269436   0.266   5.050  16.228 -0.4628  0.1953 -0.3496
15982TIP3    H169437   0.327   5.059  16.155  0.8173 -0.2656  0.6258
15982TIP3    H269438   0.242   4.957  16.227 -1.0673  0.3504 -0.6560
15983TIP3   OH269439   5.472   5.949  13.341 -0.1748 -0.2358 -0.4171
15983TIP3    H169440   5.399   5.999  13.377  0.5882 -0.2577  1.2452
15983TIP3    H269441   5.481   5.981  13.251 -1.3205  0.7770 -0.1945
15984TIP3   OH269442   0.470   5.089  13.092  0.7540 -0.1694  0.3790
15984TIP3    H169443   0.560   5.057  13.090  0.3253 -1.5036  1.3749
15984TIP3    H269444   0.464   5.146  13.015  2.3810 -0.1943  0.1841
15985TIP3   OH269445   4.539   6.041   5.773  0.1040 -0.0607  0.2363
15985TIP3    H169446   4.490   5.991   5.839 -0.3904 -1.0891 -0.8707
15985TIP3    H269447   4.623   6.060   5.815 -0.3726 -0.2789  1.3293
15986TIP3   OH269448   3.443   3.811   3.670  0.2157  0.3886  0.7988
15986TIP3    H169449   3.421   3.880   3.733  0.1971  1.3768 -0.2486
15986TIP3    H269450   3.364   3.801   3.617  0.6069  0.3897  0.2054
15987TIP3   OH269451   1.114   3.577  13.591 -0.6491  0.0181  0.1753
15987TIP3    H169452   1.168   3.616  13.660  0.5933 -0.1375 -0.6873
15987TIP3    H269453   1.135   3.483  13.596 -0.0973  0.0830 -0.7919
15988TIP3   OH269454   0.256   2.364   6.461  0.7793  0.4888 -0.2011
15988TIP3    H169455   0.204   2.437   6.493 -0.5887 -0.9700  1.1390
15988TIP3    H269456   0.196   2.315   6.404  0.5838 -1.2127  1.3551
15989TIP3   OH269457   0.529   2.324  15.729  0.3647  0.1017 -0.1497
15989TIP3    H169458   0.500   2.269  15.657  1.1174  0.8307 -1.0334
15989TIP3    H269459   0.450   2.346  15.778  0.1450 -2.6625  0.9135
15990TIP3   OH269460   0.553   3.967   4.879 -0.1300 -0.1431 -0.2154
15990TIP3    H169461   0.607   3.911   4.824 -2.2750 -0.5156 -2.1043
15990TIP3    H269462   0.615   4.023   4.925  1.9484 -2.2590 -0.2654
15991TIP3   OH269463   5.391   5.687  11.341  0.0414 -0.2412 -0.5734
15991TIP3    H169464   5.299   5.684  11.314 -0.0697 -1.2607 -0.1334
15991TIP3    H269465   5.416   5.595  11.348  0.8168  0.0275  0.2381
15992TIP3   OH269466   6.499   4.821  13.002 -0.0881  0.4941  0.0153
15992TIP3    H169467   6.422   4.810  13.059 -0.6194 -0.5552 -0.8654
15992TIP3    H269468   6.566   4.766  13.042 -0.7608 -1.0401 -0.8360
15993TIP3   OH269469   2.280   1.392  10.324 -0.4370 -0.8126 -0.1941
15993TIP3    H169470   2.311   1.307  10.356 -0.4191 -1.0814 -0.9192
15993TIP3    H269471   2.256   1.376  10.233  0.2809  0.1289 -0.5637
15994TIP3   OH269472   4.701   2.054   3.783 -0.4401 -0.3665  0.2972
15994TIP3    H169473   4.652   2.136   3.786  2.5371  1.7378 -2.2136
15994TIP3    H269474   4.680   2.016   3.698  2.4710  0.9231 -1.1497
15995TIP3   OH269475   6.539   1.815   3.638  0.1080 -0.4084 -0.4254
15995TIP3    H169476   6.468   1.752   3.626 -1.9661  1.4208  1.2926
15995TIP3    H269477   6.506   1.895   3.598  1.7364  0.2075 -0.6017
15996TIP3   OH269478   5.830   6.650  14.309 -0.0336  0.0307 -0.1045
15996TIP3    H169479   5.829   6.581  14.376 -4.5918 -1.5389 -1.4159
15996TIP3    H269480   5.805   6.729  14.356  0.7818 -0.1767  0.6931
15997TIP3   OH269481   5.763   0.376  17.024 -0.5016  0.2885 -0.3062
15997TIP3    H169482   5.695   0.401  17.088 -1.9266 -2.1369 -0.7413
15997TIP3    H269483   5.718   0.377  16.940 -0.1139 -1.6746 -0.5685
15998TIP3   OH269484   4.464   3.954   0.850 -0.1158 -0.1767 -0.2367
15998TIP3    H169485   4.461   3.863   0.880  3.5207  0.4560  2.7708
15998TIP3    H269486   4.429   4.005   0.922 -1.1573  0.9677 -1.4835
15999TIP3   OH269487   4.638   2.354  16.454 -0.0360 -0.3627  0.0473
15999TIP3    H169488   4.585   2.408  16.513  0.4424  0.0762  0.0788
15999TIP3    H269489   4.608   2.265  16.470 -0.0603 -0.2223  0.7963
16000TIP3   OH269490   1.931   3.960   5.473 -0.3091 -0.4821 -0.1211
16000TIP3    H169491   1.921   3.978   5.380  0.2498 -1.3107 -0.3536
16000TIP3    H269492   2.016   3.916   5.480 -0.1120  0.0236  0.8430
16001TIP3   OH269493   1.514   5.641   3.425  0.9068  0.3181 -0.7359
16001TIP3    H169494   1.451   5.708   3.450 -0.3124 -0.4998 -1.5084
16001TIP3    H269495   1.553   5.674   3.344  1.0225  0.5275 -0.5973
16002TIP3   OH269496   0.905   6.160   0.046 -0.5381 -0.0830 -0.2108
16002TIP3    H169497   0.921   6.134  -0.044  1.5221  2.7404 -0.7997
16002TIP3    H269498   0.816   6.195   0.045 -1.5966 -2.5869 -0.4034
16003TIP3   OH269499   3.337   1.490   4.015  0.0647 -0.1495  0.2902
16003TIP3    H169500   3.356   1.514   4.106  0.3630 -1.4069  0.5849
16003TIP3    H269501   3.411   1.523   3.965  2.3162 -3.3945  1.1744
16004TIP3   OH269502   0.038   3.780   2.312 -0.3242  0.1657  0.1506
16004TIP3    H169503   0.112   3.826   2.272 -0.0276 -0.1771  0.3108
16004TIP3    H269504  -0.039   3.819   2.269  0.0163 -0.7477 -1.3640
16005TIP3   OH269505   0.783   1.010  15.814 -0.6388  0.1619  0.1777
16005TIP3    H169506   0.733   1.017  15.732  1.3071  1.5527 -0.9526
16005TIP3    H269507   0.774   1.096  15.855  2.8003  1.4052 -1.3313
16006TIP3   OH269508   3.747   3.888   3.713  0.1569  0.2030  0.5767
16006TIP3    H169509   3.657   3.870   3.684 -0.4562  1.2939  1.7079
16006TIP3    H269510   3.750   3.853   3.802  0.9924 -0.1886  0.4019
16007TIP3   OH269511   1.109   2.435  16.410  0.9115 -0.6853 -0.3786
16007TIP3    H169512   1.108   2.359  16.467  1.0406 -0.8836 -0.6360
16007TIP3    H269513   1.059   2.409  16.333  0.9170 -0.4945 -0.4484
16008TIP3   OH269514   0.568   2.789  16.802 -0.2872 -0.1273 -0.1537
16008TIP3    H169515   0.641   2.813  16.745 -0.5065  0.4358 -0.1996
16008TIP3    H269516   0.558   2.864  16.861 -1.0460 -0.0591 -0.3634
16009TIP3   OH269517   3.002   3.917   6.040 -0.2534  0.0029 -0.6114
16009TIP3    H169518   2.925   3.939   6.092 -0.4822 -0.6186 -0.6853
16009TIP3    H269519   3.075   3.951   6.091 -0.5396  0.1516 -0.2985
16010TIP3   OH269520   0.486   1.958  15.376  0.6800 -0.7512  0.0092
16010TIP3    H169521   0.523   1.964  15.288  0.0090  0.1343 -0.2385
16010TIP3    H269522   0.412   1.898  15.368 -1.1239  1.3947 -0.7320
16011TIP3   OH269523   5.484   0.592  12.370  0.3752 -0.3027  0.1335
16011TIP3    H169524   5.486   0.498  12.350 -0.9467 -0.4553  0.6143
16011TIP3    H269525   5.489   0.634  12.284 -1.1961 -0.8738 -0.2736
16012TIP3   OH269526   2.050   2.117   3.293 -0.3295  0.4998  0.2899
16012TIP3    H169527   2.071   2.058   3.366 -1.4673 -0.0182  0.2203
16012TIP3    H269528   2.126   2.174   3.286  0.6776 -0.7393  0.5895
16013TIP3   OH269529   0.374   3.218  14.392 -0.5514  0.0783  1.1077
16013TIP3    H169530   0.373   3.259  14.305 -1.0405 -1.7596  0.1889
16013TIP3    H269531   0.363   3.291  14.453 -0.0593  1.4479 -0.3453
16014TIP3   OH269532   2.220   2.312   3.731 -0.4772  0.9392  0.0795
16014TIP3    H169533   2.187   2.311   3.821 -0.3651  1.0630  0.1230
16014TIP3    H269534   2.144   2.289   3.677 -0.2939 -0.1758  0.2753
16015TIP3   OH269535   2.183   3.043   4.301 -0.3418 -0.2205  0.2871
16015TIP3    H169536   2.174   3.053   4.395 -1.6322  1.8807 -0.0162
16015TIP3    H269537   2.166   3.130   4.265  0.8383 -0.7959 -1.8510
16016TIP3   OH269538   4.919   2.065   2.543  0.2151  0.5286 -0.0425
16016TIP3    H169539   4.950   2.152   2.515 -1.0574  0.3092 -2.4258
16016TIP3    H269540   4.990   2.030   2.596  2.9173  1.1251 -2.9513
16017TIP3   OH269541   2.199   1.405  14.093 -0.5775  0.3674 -0.6829
16017TIP3    H169542   2.269   1.469  14.085  0.9320 -0.9743  1.1945
16017TIP3    H269543   2.151   1.430  14.172  1.1190 -1.7076  1.1324
16018TIP3   OH269544   4.928   1.931   1.142 -0.0670  0.0803  0.4063
16018TIP3    H169545   4.988   1.866   1.177  1.5343  1.4746  0.3660
16018TIP3    H269546   4.878   1.960   1.219  1.6778  1.3065  1.1439
16019TIP3   OH269547   4.628   6.179  15.000 -0.6576 -0.1195 -0.6253
16019TIP3    H169548   4.610   6.255  14.944  0.0818  1.2504  0.9055
16019TIP3    H269549   4.578   6.195  15.080  2.0473  0.5049  1.0722
16020TIP3   OH269550   4.529   2.224   5.921  0.1951  0.3266  0.6746
16020TIP3    H169551   4.620   2.225   5.892 -0.1295  0.3934 -0.3804
16020TIP3    H269552   4.478   2.237   5.841 -0.7804 -0.8551  1.0694
16021TIP3   OH269553   4.468   3.966  11.787  0.0998 -0.0964 -0.5591
16021TIP3    H169554   4.498   3.991  11.874  2.1317  0.2577 -1.2903
16021TIP3    H269555   4.399   3.902  11.802 -0.5366  0.9610  1.3057
16022TIP3   OH269556   2.532   3.975   5.255  0.1683 -0.4815 -0.2979
16022TIP3    H169557   2.593   3.972   5.329 -0.4650  2.4765  0.5094
16022TIP3    H269558   2.453   4.015   5.291 -0.7618 -0.4554 -2.2312
16023TIP3   OH269559   3.857   5.027   5.298  0.0475  0.3191  0.2253
16023TIP3    H169560   3.810   5.102   5.335 -0.0196  0.4430 -0.1050
16023TIP3    H269561   3.886   5.058   5.212  1.2220  0.4414  0.6481
16024TIP3   OH269562   3.744   2.199  14.846  0.6756 -0.4233 -0.2070
16024TIP3    H169563   3.822   2.163  14.804  0.7862  0.3661 -0.6874
16024TIP3    H269564   3.776   2.241  14.925  0.8574  0.6371 -0.8343
16025TIP3   OH269565   5.182   6.497   1.539  0.1412 -0.0088 -0.5944
16025TIP3    H169566   5.203   6.571   1.596  0.6449 -0.6396  0.0599
16025TIP3    H269567   5.197   6.529   1.450  0.8731  0.5112 -0.2927
16026TIP3   OH269568   2.329   0.431  12.950 -0.3038 -0.1787 -0.1716
16026TIP3    H169569   2.340   0.347  12.906 -1.7949 -0.3537 -0.2583
16026TIP3    H269570   2.413   0.446  12.993  2.1080  1.0285 -4.6659
16027TIP3   OH269571   3.621   2.351   3.325  0.0901  0.4162  0.6666
16027TIP3    H169572   3.655   2.434   3.293 -1.1181  0.7214  0.1230
16027TIP3    H269573   3.558   2.375   3.393  0.9561 -0.1376  1.6975
16028TIP3   OH269574   5.968   1.860  12.339 -0.0697 -0.0377 -0.5841
16028TIP3    H169575   5.992   1.928  12.277 -1.7091  0.1388 -1.0914
16028TIP3    H269576   6.040   1.858  12.402  0.7052  1.1326 -1.3901
16029TIP3   OH269577   4.346   4.819  11.995  0.4535 -0.2443  0.2087
16029TIP3    H169578   4.402   4.796  11.922  1.2456  0.1380  0.6849
16029TIP3    H269579   4.349   4.742  12.053  0.2880 -0.3201  0.1167
16030TIP3   OH269580   1.114   2.062   1.320 -0.0613 -0.6144 -0.1364
16030TIP3    H169581   1.088   2.003   1.391  1.7062 -1.0006  0.2270
16030TIP3    H269582   1.039   2.061   1.260 -1.1520 -1.1067  1.1913
16031TIP3   OH269583   2.146   3.362   5.636 -0.2035  0.9908  0.2067
16031TIP3    H169584   2.115   3.274   5.615  2.5418 -0.4843  1.8888
16031TIP3    H269585   2.097   3.386   5.715  1.0108 -0.2884  1.4104
16032TIP3   OH269586   1.026   0.530  10.848  0.3468  0.3519 -0.4077
16032TIP3    H169587   1.046   0.616  10.811 -0.1831  0.4484 -0.4778
16032TIP3    H269588   1.009   0.474  10.772  1.1901  0.0496 -0.3864
16033TIP3   OH269589   0.741   1.002  11.702 -0.3661 -0.0416  0.5688
16033TIP3    H169590   0.714   0.944  11.773  0.6034 -2.5832 -1.0147
16033TIP3    H269591   0.721   0.953  11.622  0.6366  1.7751 -0.8790
16034TIP3   OH269592   6.680   1.808   4.602  0.5462 -0.0751  0.3014
16034TIP3    H169593   6.597   1.856   4.596  1.5852  2.0058  1.3461
16034TIP3    H269594   6.718   1.814   4.515 -0.4157 -1.1170 -0.2084
16035TIP3   OH269595   1.601   5.632   1.677 -0.4913  0.3517  0.6722
16035TIP3    H169596   1.535   5.639   1.745 -0.5873  1.6257  0.4633
16035TIP3    H269597   1.557   5.587   1.605 -0.9959  0.7886  0.7061
16036TIP3   OH269598   0.034   6.540   5.899  0.1607  0.0835  0.5936
16036TIP3    H169599   0.044   6.576   5.987  0.8272 -1.0984  1.0271
16036TIP3    H269600   0.098   6.469   5.895  1.1430  1.0050 -1.3377
16037TIP3   OH269601   6.237   3.508  16.169 -0.0871  0.3328  0.1336
16037TIP3    H169602   6.215   3.563  16.094 -0.8732  1.4452  1.1551
16037TIP3    H269603   6.274   3.428  16.130 -1.0048  0.6485 -1.4437
16038TIP3   OH269604   5.141   1.934  15.326  0.4002 -0.0046 -0.1376
16038TIP3    H169605   5.080   1.909  15.395  0.3065 -0.9606 -0.5466
16038TIP3    H269606   5.093   1.998  15.273  0.0597 -0.1131  0.0366
16039TIP3   OH269607   6.173   4.093  13.658  0.4448  0.3976 -0.3696
16039TIP3    H169608   6.110   4.146  13.610  0.6400  0.1639 -0.8988
16039TIP3    H269609   6.258   4.131  13.636  0.9548 -2.1986 -3.6606
16040TIP3   OH269610   3.128   3.830   4.158  0.0690  0.3362  0.4058
16040TIP3    H169611   3.090   3.757   4.109  1.7038 -1.2697  1.4572
16040TIP3    H269612   3.204   3.857   4.107 -0.6204  1.4902 -0.0719
16041TIP3   OH269613   0.577   5.436   2.599 -0.2315 -0.1371  0.5815
16041TIP3    H169614   0.511   5.483   2.651 -1.1287 -0.1498 -0.5155
16041TIP3    H269615   0.659   5.450   2.646 -0.4010  2.8098  0.1558
16042TIP3   OH269616   0.394   0.515   1.704  0.2442  0.3308 -0.0654
16042TIP3    H169617   0.372   0.422   1.700  1.8686 -0.0439 -1.1802
16042TIP3    H269618   0.455   0.522   1.777  0.6174  0.4018 -0.3817
16043TIP3   OH269619   1.129   6.648   2.505 -0.2659 -0.7232 -0.5630
16043TIP3    H169620   1.182   6.684   2.576 -0.6727 -2.2538  0.5700
16043TIP3    H269621   1.101   6.724   2.455  2.4684  0.2129 -0.8563
16044TIP3   OH269622   5.360   6.744   3.470  0.0629  0.1685 -0.1217
16044TIP3    H169623   5.396   6.689   3.400  0.6785  0.7000 -0.2357
16044TIP3    H269624   5.422   6.735   3.542 -1.2552 -1.4364  0.8804
16045TIP3   OH269625   1.218   6.334   3.989  0.0425 -0.4054 -0.4928
16045TIP3    H169626   1.272   6.333   4.068 -0.2275  3.0163 -0.0949
16045TIP3    H269627   1.280   6.355   3.919 -0.2584  0.2963 -0.5556
16046TIP3   OH269628   5.720   5.175  15.860 -0.4582  0.1523  0.1903
16046TIP3    H169629   5.733   5.269  15.854  0.7664 -0.0732 -2.0792
16046TIP3    H269630   5.806   5.138  15.838 -1.5558 -1.4600 -1.7317
16047TIP3   OH269631   6.342   3.735   1.757 -0.3624 -0.5766 -0.4969
16047TIP3    H169632   6.330   3.744   1.852 -0.1783  0.6730 -0.5720
16047TIP3    H269633   6.280   3.798   1.719  0.1515 -0.4595 -1.1714
16048TIP3   OH269634   3.896   1.267   3.000 -0.0111 -0.2255 -0.0676
16048TIP3    H169635   3.919   1.358   3.019 -0.0996 -0.4958  1.4651
16048TIP3    H269636   3.824   1.274   2.937  1.5036  0.6938 -1.8099
16049TIP3   OH269637   2.115   2.822   5.033 -0.4665 -0.0684  0.2405
16049TIP3    H169638   2.198   2.778   5.016  0.1104  0.8019  0.7673
16049TIP3    H269639   2.049   2.758   5.005  0.3640  0.0083 -2.1673
16050TIP3   OH269640   1.046   4.376  11.272  0.1117  0.0248  0.1063
16050TIP3    H169641   1.014   4.290  11.243  1.4472 -0.7068  0.7161
16050TIP3    H269642   1.123   4.391  11.218 -1.0348  1.6485 -1.1769
16051TIP3   OH269643   3.607   6.225   0.158 -0.2112 -0.3475  0.4174
16051TIP3    H169644   3.624   6.319   0.154  1.0067 -0.5211  1.0262
16051TIP3    H269645   3.581   6.209   0.248 -0.9411 -0.5333  0.1867
16052TIP3   OH269646   2.947   1.881   5.473 -0.3626  0.2313 -0.4645
16052TIP3    H169647   2.867   1.831   5.485  0.3709 -0.4879  1.7644
16052TIP3    H269648   2.944   1.948   5.541  1.5815 -0.7170  0.6210
16053TIP3   OH269649   4.879   2.820  16.677  0.0092  0.0765  0.1668
16053TIP3    H169650   4.943   2.816  16.748  1.5163  0.8877 -1.0828
16053TIP3    H269651   4.850   2.729  16.666  1.1681 -0.3719  0.5911
16054TIP3   OH269652   2.747   3.980  14.191  0.0161 -0.1032 -0.0020
16054TIP3    H169653   2.674   3.966  14.250 -0.9556  2.6898 -0.3886
16054TIP3    H269654   2.824   3.981  14.248 -0.4399 -1.1731  0.6636
16055TIP3   OH269655   2.818   3.666   3.740 -0.1752  0.3608 -0.0483
16055TIP3    H169656   2.829   3.572   3.724 -1.0907  0.0982  0.8332
16055TIP3    H269657   2.741   3.690   3.689 -0.5068  0.4369  0.4900
16056TIP3   OH269658   1.324   3.696  16.801  0.7095  0.2748 -0.1171
16056TIP3    H169659   1.314   3.778  16.754 -0.9085 -0.2948 -0.8449
16056TIP3    H269660   1.320   3.720  16.893 -1.3041  0.8784 -0.3244
16057TIP3   OH269661   0.018   3.052   3.290  0.1579  0.4484  0.2849
16057TIP3    H169662  -0.060   3.062   3.345  0.5182 -0.4759  1.0060
16057TIP3    H269663   0.078   3.000   3.344  1.2155  1.0269 -0.3151
16058TIP3   OH269664   4.626   1.254  14.820 -0.6108  0.1910 -0.0118
16058TIP3    H169665   4.630   1.268  14.915  0.0192  1.4387 -0.1936
16058TIP3    H269666   4.673   1.173  14.805  0.2673  0.5661  0.6469
16059TIP3   OH269667   4.293   3.335  14.729  0.2543 -0.0418 -0.5569
16059TIP3    H169668   4.309   3.315  14.821  0.0097  2.6361  0.1431
16059TIP3    H269669   4.346   3.413  14.712  0.3181 -0.4958 -2.7181
16060TIP3   OH269670   2.365   4.157   5.391  0.0191  0.0238 -0.9305
16060TIP3    H169671   2.306   4.203   5.331  1.8308  3.1511 -0.5411
16060TIP3    H269672   2.343   4.191   5.478 -0.8946 -2.5939 -0.0440
16061TIP3   OH269673   6.772   2.747   3.209  0.2168 -0.0323 -0.5038
16061TIP3    H169674   6.710   2.682   3.241 -2.5814  1.4361 -2.5441
16061TIP3    H269675   6.802   2.792   3.288 -0.1632 -1.7156  0.6562
16062TIP3   OH269676   1.402   1.671  14.397 -0.2033  0.2622  0.2116
16062TIP3    H169677   1.492   1.677  14.365  0.5733  0.9789  2.3506
16062TIP3    H269678   1.389   1.577  14.412  0.6253  0.2651  1.0091
16063TIP3   OH269679   6.032   5.971   1.027 -0.2682  0.1232 -0.0417
16063TIP3    H169680   5.987   5.895   1.063  0.0904  0.2638  0.7201
16063TIP3    H269681   5.963   6.036   1.014 -0.3999  0.0727  0.3990
16064TIP3   OH269682   2.553   5.952   4.489 -0.5134  0.1457  0.2395
16064TIP3    H169683   2.479   5.919   4.439 -0.6419 -1.1419  1.2066
16064TIP3    H269684   2.626   5.894   4.466  0.2086  1.3513 -0.6440
16065TIP3   OH269685   5.137   4.746  16.737 -0.2487  0.0900 -0.6562
16065TIP3    H169686   5.132   4.695  16.656  0.5824 -0.4357 -0.3890
16065TIP3    H269687   5.178   4.687  16.800 -0.1540  0.7655 -0.0753
16066TIP3   OH269688   6.733   2.031   3.488  0.2288 -0.2087  0.6194
16066TIP3    H169689   6.797   1.979   3.536 -0.5383  0.5466  2.5560
16066TIP3    H269690   6.659   1.972   3.476  0.3161 -0.3151  0.6012
16067TIP3   OH269691   2.331   5.702   6.454  0.0069  0.2857 -0.5352
16067TIP3    H169692   2.267   5.762   6.416 -0.0663  1.3577  1.1598
16067TIP3    H269693   2.281   5.626   6.480 -0.3643  0.5833 -0.3717
16068TIP3   OH269694   2.428   1.744   4.102 -0.2700  0.3349  0.3404
16068TIP3    H169695   2.454   1.740   4.010  0.3341 -2.9284  0.5253
16068TIP3    H269696   2.506   1.778   4.148  0.0655  0.2634 -0.1698
16069TIP3   OH269697   4.564   3.097   1.637  0.5423  0.4320 -0.0864
16069TIP3    H169698   4.564   3.144   1.553 -2.1122 -0.4512 -0.6803
16069TIP3    H269699   4.588   3.163   1.702  0.9874  1.5468 -1.3343
16070TIP3   OH269700   3.858   3.567   2.305 -0.2529 -0.0902  0.5806
16070TIP3    H169701   3.937   3.530   2.345  0.4474  1.7961  1.0245
16070TIP3    H269702   3.801   3.585   2.379 -0.8089 -0.7172  0.3191
16071TIP3   OH269703   0.760   3.993  11.577  0.5548  0.6545 -0.1990
16071TIP3    H169704   0.720   4.064  11.628 -1.8139 -0.4901 -0.3424
16071TIP3    H269705   0.843   3.977  11.621 -0.1500  1.6088  1.5959
16072TIP3   OH269706   5.578   1.001  13.164  0.2293  0.4788 -0.0097
16072TIP3    H169707   5.500   0.983  13.216  0.7889  3.0642  1.8752
16072TIP3    H269708   5.543   1.030  13.079 -0.8295  0.9408  0.5654
16073TIP3   OH269709   6.680   1.236   1.586  0.4379 -0.2441 -0.1408
16073TIP3    H169710   6.649   1.181   1.513  0.7305  1.5169 -1.6541
16073TIP3    H269711   6.775   1.223   1.587  0.6104  0.8174 -1.0429
16074TIP3   OH269712   4.662   3.301   1.410 -0.4731  0.1321  0.1712
16074TIP3    H169713   4.744   3.255   1.389  0.7303  2.2627 -0.1208
16074TIP3    H269714   4.690   3.375   1.465 -2.3053  0.5138  0.6400
16075TIP3   OH269715   3.138   2.639  16.205 -0.5091 -0.3085  0.1242
16075TIP3    H169716   3.152   2.687  16.124 -0.8176  1.2014  0.9448
16075TIP3    H269717   3.220   2.650  16.253 -0.4782 -0.8562  0.2060
16076TIP3   OH269718   0.418   0.206   0.464 -0.1716  0.4158  0.0017
16076TIP3    H169719   0.392   0.174   0.378  0.8933 -2.9652  0.8032
16076TIP3    H269720   0.336   0.215   0.512 -0.5802 -0.5144 -0.4993
16077TIP3   OH269721   2.769   3.092   4.829  0.4439  0.1426 -0.8513
16077TIP3    H169722   2.768   3.164   4.766  0.9542  2.3196  1.4185
16077TIP3    H269723   2.825   3.124   4.900 -0.0712 -2.1477  0.7014
16078TIP3   OH269724   6.205   0.071   0.158 -0.5056  0.0668  0.1938
16078TIP3    H169725   6.291   0.096   0.192  1.4742 -1.7665 -2.9184
16078TIP3    H269726   6.181   0.141   0.098 -1.5692  0.8603  1.4796
16079TIP3   OH269727   5.571   5.568  14.804 -0.5074  0.1969 -0.4523
16079TIP3    H169728   5.488   5.521  14.810 -0.0259 -0.6559 -0.3870
16079TIP3    H269729   5.553   5.654  14.842 -1.3548  0.0098 -0.4268
16080TIP3   OH269730   3.881   0.795   0.547  0.5016 -0.5869 -0.0269
16080TIP3    H169731   3.873   0.701   0.567 -2.9940 -0.5951 -0.9060
16080TIP3    H269732   3.889   0.798   0.452  0.3351  0.0333 -0.0203
16081TIP3   OH269733   0.190   5.069  10.276  0.0255  0.2972 -0.1504
16081TIP3    H169734   0.212   5.161  10.261  1.0885 -0.1956 -2.0667
16081TIP3    H269735   0.273   5.027  10.297 -0.1717 -0.4575 -0.7816
16082TIP3   OH269736   0.186   6.383   4.388  0.2438 -0.0404  0.3327
16082TIP3    H169737   0.250   6.421   4.447  1.3399 -2.0113  0.4818
16082TIP3    H269738   0.152   6.306   4.434 -3.8038  1.9392  1.1464
16083TIP3   OH269739   6.061   5.553   0.851 -0.4384  0.1281  0.1433
16083TIP3    H169740   5.982   5.602   0.872 -0.4409  0.6759 -1.0860
16083TIP3    H269741   6.033   5.462   0.843 -1.0307  0.3741 -0.6813
16084TIP3   OH269742   2.204   2.977  16.736  0.0994  0.0963 -0.1158
16084TIP3    H169743   2.193   2.885  16.710  1.1584  0.1114 -0.6672
16084TIP3    H269744   2.277   3.008  16.683  0.9115  0.7595  1.3497
16085TIP3   OH269745   1.309   4.455  14.259 -0.4830 -0.7157 -0.2363
16085TIP3    H169746   1.376   4.433  14.194 -0.2836 -2.5052  0.5427
16085TIP3    H269747   1.231   4.407  14.231 -1.0558  0.2165 -0.3206
16086TIP3   OH269748   2.110   5.249  15.044 -0.0712  0.1518  0.5046
16086TIP3    H169749   2.092   5.212  14.957 -2.0039  0.0797  0.8859
16086TIP3    H269750   2.158   5.180  15.090  0.9409  0.1768 -0.4796
16087TIP3   OH269751   0.489   3.382   5.332 -0.0993  0.4114  0.0635
16087TIP3    H169752   0.521   3.400   5.243  1.6180  3.0030  1.0630
16087TIP3    H269753   0.409   3.435   5.340 -1.1221 -1.0245 -0.3829
16088TIP3   OH269754   1.101   5.611   3.947 -0.4577 -0.3838 -0.3416
16088TIP3    H169755   1.070   5.699   3.928 -0.3368 -0.7428 -2.4506
16088TIP3    H269756   1.149   5.620   4.029  0.4522  1.7244 -1.0398
16089TIP3   OH269757   2.126   2.295  12.680  0.3532 -0.6406 -0.0384
16089TIP3    H169758   2.087   2.225  12.732  1.9139 -1.3913  0.2049
16089TIP3    H269759   2.122   2.264  12.590  1.7126 -1.4493  0.1390
16090TIP3   OH269760   2.922   0.412   5.625 -0.3527 -0.4576  0.5598
16090TIP3    H169761   2.953   0.502   5.638 -1.9558  0.5105 -1.6717
16090TIP3    H269762   2.877   0.390   5.706 -0.7648  1.1408  0.7908
16091TIP3   OH269763   6.370   4.337   2.415  0.2621  0.1175  0.9284
16091TIP3    H169764   6.344   4.398   2.484  0.6272 -1.9238  2.9755
16091TIP3    H269765   6.297   4.340   2.353 -0.0615  2.0490  1.3120
16092TIP3   OH269766   6.051   5.999  14.096 -0.2774 -0.0482 -0.4018
16092TIP3    H169767   6.016   6.080  14.133 -1.9798 -0.6277 -0.6891
16092TIP3    H269768   6.065   5.943  14.173  0.8370  0.4639 -0.2088
16093TIP3   OH269769   3.703   2.560  14.302  0.2634 -0.3090 -0.5451
16093TIP3    H169770   3.715   2.484  14.244  1.2736 -0.6359  0.0712
16093TIP3    H269771   3.773   2.551  14.367 -0.2630  0.5834  0.1517
16094TIP3   OH269772   2.982   4.340   0.265 -0.4662 -0.7955  0.4543
16094TIP3    H169773   3.077   4.336   0.273 -0.1579  1.3713 -1.0643
16094TIP3    H269774   2.957   4.419   0.314 -0.7949  1.3723 -2.8763
16095TIP3   OH269775   0.158   5.331  10.288 -0.6389 -0.4230 -0.1236
16095TIP3    H169776   0.196   5.419  10.287  0.8804 -1.0516 -0.9227
16095TIP3    H269777   0.094   5.333  10.359  0.7869  0.7486  1.1787
16096TIP3   OH269778   2.169   1.163   1.834  0.4838  0.1078 -0.3502
16096TIP3    H169779   2.124   1.153   1.750  2.4747 -0.1793 -1.4184
16096TIP3    H269780   2.178   1.258   1.845 -0.6299  0.1896  0.0562
16097TIP3   OH269781   4.578   5.763   3.538  0.5960  0.4137  0.0312
16097TIP3    H169782   4.502   5.787   3.592  0.3772  1.5099 -0.7349
16097TIP3    H269783   4.652   5.805   3.581  0.4339  1.2155 -0.4568
16098TIP3   OH269784   1.327   5.911   1.613  0.1443 -0.4730  0.0501
16098TIP3    H169785   1.389   5.968   1.568 -1.6407  0.5424 -1.2670
16098TIP3    H269786   1.280   5.866   1.543 -1.2294 -0.5236  0.9575
16099TIP3   OH269787   2.978   3.093  14.630  0.0878 -0.2726 -0.3701
16099TIP3    H169788   2.899   3.043  14.608 -0.0805  0.9126 -2.8298
16099TIP3    H269789   2.946   3.168  14.680 -0.5213  0.5509 -1.9043
16100TIP3   OH269790   0.626   1.827  12.530 -0.1481  0.2641  0.6659
16100TIP3    H169791   0.559   1.786  12.586 -1.0126  0.8305  0.0687
16100TIP3    H269792   0.709   1.798  12.568 -0.7118 -1.5616  0.6353
16101TIP3   OH269793   1.572   0.849  16.927  0.3228 -0.1722  0.4450
16101TIP3    H169794   1.511   0.842  16.854  0.4071 -0.1453  0.3724
16101TIP3    H269795   1.527   0.903  16.992  1.2210  1.9541 -0.5952
16102TIP3   OH269796   1.238   3.313  11.658 -1.1434 -0.0799 -0.0414
16102TIP3    H169797   1.269   3.375  11.592 -2.2067 -1.1175 -1.5871
16102TIP3    H269798   1.280   3.342  11.739  2.1515 -0.1414 -1.5532
16103TIP3   OH269799   4.327   0.741  13.544 -0.1443 -0.8192  0.1775
16103TIP3    H169800   4.354   0.687  13.469  3.6704 -0.1768  0.8613
16103TIP3    H269801   4.334   0.682  13.619 -1.9793 -0.9077  0.3303
16104TIP3   OH269802   2.419   0.688  16.845  0.7978 -0.1774  0.3706
16104TIP3    H169803   2.465   0.733  16.916  0.2823  0.1190  0.5204
16104TIP3    H269804   2.470   0.709  16.766 -0.4943  2.3489  0.1000
16105TIP3   OH269805   2.370   4.581   1.464  0.9528 -0.3265 -0.3583
16105TIP3    H169806   2.356   4.526   1.386  0.3256 -0.6055 -0.0546
16105TIP3    H269807   2.461   4.563   1.489  0.8869 -0.9087 -0.5116
16106TIP3   OH269808   1.688   0.402   2.092 -0.1070 -0.5287 -0.0682
16106TIP3    H169809   1.628   0.357   2.033 -0.6017  0.0416 -0.0129
16106TIP3    H269810   1.774   0.366   2.071 -0.5239 -1.7031  0.1867
16107TIP3   OH269811   0.894   6.384   3.606 -0.7737 -0.6947  0.1218
16107TIP3    H169812   0.883   6.324   3.680  0.3802 -1.5584 -0.3873
16107TIP3    H269813   0.988   6.398   3.599 -0.9632  0.4876 -0.3276
16108TIP3   OH269814   5.424   0.766  12.916  0.5560 -0.0497 -0.3370
16108TIP3    H169815   5.420   0.847  12.967  1.7782 -0.9856  1.3814
16108TIP3    H269816   5.389   0.789  12.831  0.5567  2.2019  0.2063
16109TIP3   OH269817   5.720   1.477   0.448  0.4054 -0.1775  0.0866
16109TIP3    H169818   5.766   1.397   0.421  0.4303 -0.0131 -0.3773
16109TIP3    H269819   5.627   1.453   0.445  0.0969  0.7957 -3.7324
16110TIP3   OH269820   1.134   4.416   0.067  0.0270  0.2395  0.3774
16110TIP3    H169821   1.100   4.506   0.063 -1.8972 -0.3898  1.5822
16110TIP3    H269822   1.142   4.397   0.160  2.2738 -0.2421  0.1538
16111TIP3   OH269823   1.168   6.535  14.855  0.1172  0.6447  0.4682
16111TIP3    H169824   1.191   6.490  14.936  2.8220  1.1500  0.0779
16111TIP3    H269825   1.197   6.476  14.786  0.0369  1.2600 -0.1017
16112TIP3   OH269826   5.458   6.198  12.324 -0.1869 -0.3295  0.4448
16112TIP3    H169827   5.396   6.136  12.362 -1.4050  1.3483  1.3208
16112TIP3    H269828   5.544   6.157  12.338 -0.9282 -1.7400  1.1245
16113TIP3   OH269829   0.330   3.015  14.865 -0.1549 -0.5089  0.1500
16113TIP3    H169830   0.281   3.037  14.944 -1.5700  0.4536 -0.9386
16113TIP3    H269831   0.349   2.921  14.874 -1.0531 -0.6115  1.2062
16114TIP3   OH269832   6.263   2.839   3.536 -0.6385 -0.2421  0.4519
16114TIP3    H169833   6.339   2.831   3.593 -0.2736  0.2069  0.0401
16114TIP3    H269834   6.232   2.749   3.524 -0.4310 -0.3829  0.9640
16115TIP3   OH269835   0.177   6.320  14.602  0.1721  0.1886 -0.3142
16115TIP3    H169836   0.220   6.275  14.529  0.7083 -0.7197  0.5369
16115TIP3    H269837   0.248   6.339  14.663 -0.7084 -2.5614  1.7634
16116TIP3   OH269838   1.370   6.007  10.967  0.4991  0.4828 -0.1346
16116TIP3    H169839   1.345   6.010  11.059  0.7855 -0.5410 -0.0075
16116TIP3    H269840   1.415   5.923  10.957 -0.4690  0.0724 -1.4310
16117TIP3   OH269841   5.417   1.539   6.258 -0.5461  0.2863  0.1220
16117TIP3    H169842   5.504   1.507   6.234 -0.2101  0.9334  0.4566
16117TIP3    H269843   5.430   1.631   6.280 -1.2312  0.2629  0.6590
16118TIP3   OH269844   6.111   3.255   5.485  0.1980  0.1521  0.1301
16118TIP3    H169845   6.024   3.272   5.450 -0.3792 -0.1990  1.3515
16118TIP3    H269846   6.107   3.283   5.577  1.0586 -0.7950  0.4851
16119TIP3   OH269847   2.859   2.448   0.256  0.0257  0.6456  0.0753
16119TIP3    H169848   2.880   2.429   0.347  0.9868 -0.0704 -0.2772
16119TIP3    H269849   2.809   2.530   0.259  0.6880  1.0224  1.1725
16120TIP3   OH269850   4.334   0.037  15.376 -0.4866 -0.2522 -0.1241
16120TIP3    H169851   4.257  -0.016  15.355  0.4243 -1.6839  0.0446
16120TIP3    H269852   4.298   0.121  15.407 -1.9995 -1.2155  0.8394
16121TIP3   OH269853   2.215   5.241  14.613  0.2777 -0.0840  0.1367
16121TIP3    H169854   2.207   5.155  14.655  0.7221 -0.4750 -0.5573
16121TIP3    H269855   2.299   5.237  14.568  0.0912  0.5582 -0.2734
16122TIP3   OH269856   5.876   3.460  15.262 -0.5427 -0.0965 -0.3113
16122TIP3    H169857   5.860   3.419  15.346  0.9244 -0.7889 -0.3438
16122TIP3    H269858   5.823   3.410  15.200 -2.0908  0.7859  0.2461
16123TIP3   OH269859   2.253   3.137   5.976  0.2293  0.1985 -0.0886
16123TIP3    H169860   2.166   3.139   6.015 -0.8321 -2.5411 -1.9973
16123TIP3    H269861   2.258   3.217   5.924 -1.5114  0.0175 -0.6077
16124TIP3   OH269862   3.911   5.866   2.809  0.6636 -0.4031 -0.0549
16124TIP3    H169863   3.984   5.859   2.871 -0.7854 -1.0482  1.6523
16124TIP3    H269864   3.863   5.784   2.819  0.7454 -0.8621 -2.6067
16125TIP3   OH269865   3.603   3.183   3.903 -0.0262 -0.0354  0.3562
16125TIP3    H169866   3.576   3.246   3.837  0.8859  0.9088  0.8688
16125TIP3    H269867   3.531   3.184   3.967 -0.4352 -0.2003 -0.0944
16126TIP3   OH269868   5.828   6.177   4.043 -0.3595  0.0870 -0.2592
16126TIP3    H169869   5.788   6.090   4.030 -1.7829  0.5034  1.0232
16126TIP3    H269870   5.848   6.180   4.136  0.4768  0.8407 -0.4511
16127TIP3   OH269871   3.877   2.663  15.992 -0.1399  0.1130  0.2125
16127TIP3    H169872   3.910   2.752  15.983 -0.1789 -0.0320 -2.1385
16127TIP3    H269873   3.938   2.610  15.940 -0.7348 -1.0708  0.6812
16128TIP3   OH269874   0.404   6.240  11.933 -0.1314  0.1804  0.2514
16128TIP3    H169875   0.349   6.311  11.965 -0.5405 -0.0359  0.0381
16128TIP3    H269876   0.342   6.171  11.908  0.1700  0.3104 -0.9349
16129TIP3   OH269877   6.155   1.664  15.799 -0.2648  0.8100 -0.4932
16129TIP3    H169878   6.231   1.620  15.837 -0.7608  0.3745  0.0089
16129TIP3    H269879   6.163   1.755  15.829 -0.1194  0.6925 -0.1743
16130TIP3   OH269880   6.047   2.571   1.997 -0.2284 -0.5733 -0.1218
16130TIP3    H169881   5.998   2.629   1.939  0.8751  0.9769  0.4164
16130TIP3    H269882   6.026   2.602   2.085  1.5639  0.0615  0.1288
16131TIP3   OH269883   4.086   4.212  10.614 -0.7621  0.1478  0.7335
16131TIP3    H169884   4.000   4.252  10.628 -0.0290  2.3549 -0.5705
16131TIP3    H269885   4.071   4.146  10.546 -1.1818  1.8309 -0.9026
16132TIP3   OH269886   5.515   1.679   0.864 -0.5203 -0.1233 -0.3485
16132TIP3    H169887   5.448   1.613   0.883 -0.2820 -0.0319  0.8821
16132TIP3    H269888   5.484   1.721   0.784 -1.1370 -1.1223 -0.6557
16133TIP3   OH269889   1.291   0.857   3.845  0.3060 -0.2716  0.0142
16133TIP3    H169890   1.384   0.875   3.860  0.2583 -0.7474  0.9460
16133TIP3    H269891   1.290   0.805   3.765  0.7569  0.5825 -0.5576
16134TIP3   OH269892   4.849   0.065  14.276  0.1448  0.1636 -0.1538
16134TIP3    H169893   4.836  -0.027  14.254  0.0385  0.1518 -0.0439
16134TIP3    H269894   4.842   0.068  14.372  0.6221  0.2120 -0.1178
16135TIP3   OH269895   3.811   1.488   4.374  0.5064  0.2075 -0.2916
16135TIP3    H169896   3.877   1.533   4.321 -1.0270  2.4514 -0.4288
16135TIP3    H269897   3.818   1.528   4.461  0.0926 -0.3727  0.0194
16136TIP3   OH269898   6.594   5.448   2.671  0.3213 -0.4708 -0.0252
16136TIP3    H169899   6.685   5.421   2.663  0.6704  0.5252  0.5624
16136TIP3    H269900   6.586   5.524   2.614 -0.0548 -0.3253  0.2180
16137TIP3   OH269901   3.237   5.890  15.995 -0.5601 -0.3013 -0.0258
16137TIP3    H169902   3.308   5.920  15.938 -0.0400  0.0056  0.7629
16137TIP3    H269903   3.245   5.794  15.994  0.3494 -0.2469  0.6308
16138TIP3   OH269904   6.341   1.278   1.986  0.6521 -0.9487 -0.8280
16138TIP3    H169905   6.421   1.293   1.935  0.8104  0.9174 -0.0791
16138TIP3    H269906   6.362   1.201   2.040  1.3869 -1.3849 -1.7047
16139TIP3   OH269907   4.104   3.322   3.453 -0.1635  0.5929 -0.0735
16139TIP3    H169908   4.159   3.272   3.513  1.3523  0.4337 -1.5311
16139TIP3    H269909   4.117   3.413   3.479  0.9431  0.5666 -0.5096
16140TIP3   OH269910   0.882   6.266  14.015  0.3858 -0.4755  0.4609
16140TIP3    H169911   0.794   6.262  14.053 -0.5038  0.4676 -1.4008
16140TIP3    H269912   0.939   6.228  14.083 -1.4247 -1.0539  1.7299
16141TIP3   OH269913   6.060   0.228  15.683 -0.3548 -0.3888 -0.0553
16141TIP3    H169914   6.114   0.152  15.707 -0.0563 -0.8651 -2.0078
16141TIP3    H269915   5.973   0.207  15.715 -0.0204 -1.0246  0.4571
16142TIP3   OH269916   5.309   6.186  15.171  0.0143 -0.3209  0.2003
16142TIP3    H169917   5.319   6.174  15.266  0.8829  0.3691  0.2071
16142TIP3    H269918   5.234   6.246  15.162 -2.0034 -2.6671  0.2995
16143TIP3   OH269919   2.438   2.713  16.535 -0.2889  0.1718 -0.5626
16143TIP3    H169920   2.436   2.617  16.538  0.1453  0.1435 -1.1880
16143TIP3    H269921   2.345   2.738  16.534 -0.4080 -0.2303 -0.1865
16144TIP3   OH269922   3.151   3.551   1.227  0.1644 -0.0231 -0.1870
16144TIP3    H169923   3.205   3.628   1.206  0.9836 -0.2442  1.0089
16144TIP3    H269924   3.132   3.512   1.142  0.7781  0.8112 -0.7298
16145TIP3   OH269925   5.065   5.201   0.418 -0.1070  0.9334 -0.0812
16145TIP3    H169926   5.139   5.141   0.415 -0.6350  0.1965  0.9866
16145TIP3    H269927   5.014   5.180   0.340  0.3150  0.8034 -0.3283
16146TIP3   OH269928   6.325   0.169   1.162 -0.4166 -0.6744  0.4694
16146TIP3    H169929   6.249   0.213   1.124 -0.1291 -1.5970 -1.2850
16146TIP3    H269930   6.380   0.241   1.195 -0.9037  0.1577 -0.4707
16147TIP3   OH269931   3.873   4.504   0.278  0.0932 -0.0574  0.1309
16147TIP3    H169932   3.796   4.449   0.263  0.2020  0.0400 -0.8725
16147TIP3    H269933   3.892   4.494   0.371 -0.9032 -0.3801  0.3137
16148TIP3   OH269934   6.646   1.198  17.094 -0.6476  0.2485 -1.1264
16148TIP3    H169935   6.577   1.201  17.161 -0.7338 -0.2844 -1.1837
16148TIP3    H269936   6.708   1.132  17.127  0.6001  1.7337 -0.3612
16149TIP3   OH269937   1.073   6.325   0.726 -0.1500 -0.5788  0.2532
16149TIP3    H169938   1.037   6.414   0.730 -2.5667 -1.4775  0.4002
16149TIP3    H269939   1.050   6.287   0.811 -1.1733 -1.9998 -0.6212
16150TIP3   OH269940   4.172   0.984   0.364  0.0372  0.3192 -0.2358
16150TIP3    H169941   4.143   0.901   0.327 -0.9647 -0.2085  1.6221
16150TIP3    H269942   4.167   1.046   0.291  0.7430 -1.1878 -1.6461
16151TIP3   OH269943   2.532   6.821  14.297  0.1880  0.1570  0.4006
16151TIP3    H169944   2.605   6.873  14.262  1.3481  0.4045  2.9671
16151TIP3    H269945   2.525   6.746  14.238  0.1564  1.8672 -1.9180
16152TIP3   OH269946   4.770   4.351   2.630  0.0234 -0.3558  0.2797
16152TIP3    H169947   4.789   4.257   2.633  0.3649 -0.2675  2.9228
16152TIP3    H269948   4.851   4.393   2.655 -0.2915  0.6536 -0.3324
16153TIP3   OH269949   4.076   6.172   5.153  0.2338 -0.2952  0.3678
16153TIP3    H169950   4.121   6.124   5.222 -0.0590 -3.8039 -1.5900
16153TIP3    H269951   4.142   6.185   5.085 -0.3646 -0.4968 -0.2734
16154TIP3   OH269952   0.505   0.353  10.060 -0.4251 -0.1538  0.5889
16154TIP3    H169953   0.415   0.323  10.044 -0.6376  1.1281 -0.9406
16154TIP3    H269954   0.545   0.353   9.973  0.3214  1.4918  0.9069
16155TIP3   OH269955   5.643   4.810  11.947  0.2310  0.0309  0.1917
16155TIP3    H169956   5.691   4.744  11.897  0.3660  0.0867  0.2467
16155TIP3    H269957   5.552   4.781  11.944  0.5478 -1.3960  2.0726
16156TIP3   OH269958   1.559   5.605   3.874 -0.5975  0.5411 -0.1493
16156TIP3    H169959   1.612   5.622   3.797  0.1669  1.7294  0.6147
16156TIP3    H269960   1.470   5.594   3.840 -0.2110  0.6757 -1.2298
16157TIP3   OH269961   0.564   1.480   5.406 -0.4342 -0.1725  0.7663
16157TIP3    H169962   0.505   1.541   5.362  0.4965 -0.4091 -0.8916
16157TIP3    H269963   0.591   1.527   5.486 -2.0301  0.3400  1.0391
16158TIP3   OH269964   5.051   4.143   3.839 -0.2891  0.5560  0.0573
16158TIP3    H169965   5.108   4.096   3.900  0.2261  1.6072  0.3977
16158TIP3    H269966   5.034   4.079   3.769 -1.0815 -0.7561  1.3668
16159TIP3   OH269967   4.732   0.817  12.858  0.0785  0.1932  0.5713
16159TIP3    H169968   4.735   0.758  12.783  1.7381  0.6392  0.2566
16159TIP3    H269969   4.760   0.763  12.932 -3.1535 -0.7146  1.2742
16160TIP3   OH269970   1.717   0.290  15.871 -0.5333 -0.3461  0.0659
16160TIP3    H169971   1.666   0.210  15.888  0.6245 -0.8172  1.5409
16160TIP3    H269972   1.736   0.325  15.958  3.6391 -1.5062 -0.1528
16161TIP3   OH269973   3.723   1.634  16.603  0.2230  0.2571  0.1998
16161TIP3    H169974   3.690   1.724  16.595  1.9130  0.8801 -0.2057
16161TIP3    H269975   3.678   1.599  16.680 -0.9072  1.2453  0.0139
16162TIP3   OH269976   5.252   3.688   2.474  0.1407 -0.2523 -0.1909
16162TIP3    H169977   5.337   3.695   2.517 -0.5613  0.2349  1.1824
16162TIP3    H269978   5.216   3.605   2.505 -0.5919  0.3467  0.5984
16163TIP3   OH269979   2.740   0.194   2.070  0.0138  0.9756  0.0590
16163TIP3    H169980   2.797   0.271   2.079 -1.0372  1.5647  2.3975
16163TIP3    H269981   2.695   0.187   2.154 -0.9570 -1.4156 -0.5649
16164TIP3   OH269982   3.430   1.970   2.252  0.1367 -0.2050 -0.3699
16164TIP3    H169983   3.407   1.880   2.273  0.8367  0.0589  1.6898
16164TIP3    H269984   3.476   2.002   2.329 -0.6992  2.1398 -0.7647
16165TIP3   OH269985   0.690   4.384   3.205 -0.9375  0.1321  0.1495
16165TIP3    H169986   0.663   4.309   3.153 -2.3291  0.9295 -0.3290
16165TIP3    H269987   0.673   4.358   3.295 -0.7620 -0.3795  0.0380
16166TIP3   OH269988   6.407   0.133  10.595  0.2563 -0.5292 -0.1566
16166TIP3    H169989   6.383   0.146  10.687 -1.6950 -0.5765 -0.6055
16166TIP3    H269990   6.503   0.133  10.594  0.3117  0.3222  1.7467
16167TIP3   OH269991   4.438   1.732   1.879 -0.1122  0.7952 -0.3132
16167TIP3    H169992   4.391   1.814   1.865 -2.4066 -0.3396  0.1934
16167TIP3    H269993   4.370   1.664   1.875  1.6774 -1.0904 -0.6564
16168TIP3   OH269994   5.424   2.111  13.325 -0.5768  0.3870  0.2416
16168TIP3    H169995   5.472   2.153  13.396  0.7091 -1.0355  0.2776
16168TIP3    H269996   5.469   2.027  13.313 -0.8161  0.5368 -2.1775
16169TIP3   OH269997   6.361   1.763   5.109 -0.3281 -0.1441  0.5495
16169TIP3    H169998   6.447   1.803   5.103 -0.6132  0.3360 -1.0499
16169TIP3    H269999   6.371   1.693   5.173  0.8615  0.8010  1.4494
16170TIP3   OH270000   0.297   1.112   3.833 -0.3057  0.5094  0.3082
16170TIP3    H170001   0.258   1.084   3.750  0.6389 -0.6483  0.2168
16170TIP3    H270002   0.375   1.161   3.808 -1.0020  1.7549  0.5064
16171TIP3   OH270003   2.372   1.114   0.596 -0.3519  0.0548  0.2386
16171TIP3    H170004   2.360   1.199   0.638 -1.4722 -0.3736  0.8497
16171TIP3    H270005   2.287   1.096   0.554  0.0285 -0.5449 -0.2908
16172TIP3   OH270006   5.935   4.210   2.333 -0.1766  0.3672  0.7547
16172TIP3    H170007   5.905   4.123   2.308  1.3830  0.3017 -1.1414
16172TIP3    H270008   5.868   4.269   2.298  0.1032  0.0436 -0.3874
16173TIP3   OH270009   3.796   1.161  11.526  0.3965 -0.2113 -0.2134
16173TIP3    H170010   3.875   1.210  11.547  0.1552  0.5102 -0.9401
16173TIP3    H270011   3.741   1.223  11.478 -0.0481 -1.0981 -0.8864
16174TIP3   OH270012   1.192   5.015  10.288  0.5309 -0.5823 -0.0364
16174TIP3    H170013   1.137   5.077  10.335 -1.8324 -2.3476 -0.3125
16174TIP3    H270014   1.218   5.061  10.209  1.3882  1.0663  1.1357
16175TIP3   OH270015   5.219   1.947  12.405  0.2628  0.0394 -0.4150
16175TIP3    H170016   5.193   1.889  12.333  1.6082  0.4570 -1.2875
16175TIP3    H270017   5.263   1.890  12.467 -4.3261 -1.1586  2.2386
16176TIP3   OH270018   3.119   4.294   5.984  0.0636 -0.6720 -0.1208
16176TIP3    H170019   3.069   4.265   6.060  2.2926 -1.8387  0.9541
16176TIP3    H270020   3.065   4.364   5.946 -0.6591  0.6704  3.0937
16177TIP3   OH270021   5.753   4.213   2.594  0.0417  0.3246  1.0921
16177TIP3    H170022   5.844   4.184   2.582 -0.8349 -1.5850 -2.2087
16177TIP3    H270023   5.706   4.133   2.618 -1.1600  0.7850  0.3188
16178TIP3   OH270024   4.710   0.682  16.162  0.4230  0.1833  0.4155
16178TIP3    H170025   4.647   0.682  16.090  1.2332 -1.4084 -0.3421
16178TIP3    H270026   4.666   0.729  16.233 -1.7510 -1.1587  0.0334
16179TIP3   OH270027   1.894   0.022   3.108 -0.5736 -0.5624  0.5010
16179TIP3    H170028   1.812   0.069   3.118 -0.3654 -0.3094  1.0276
16179TIP3    H270029   1.947   0.078   3.051 -1.3664 -1.5088 -1.2676
16180TIP3   OH270030   1.372   6.019   6.538 -0.5169  0.2020  0.9013
16180TIP3    H170031   1.292   6.017   6.485  0.3403 -0.0686 -0.4217
16180TIP3    H270032   1.419   6.096   6.507  0.4909 -0.5591  0.5053
16181TIP3   OH270033   4.945   3.706  17.027  0.3419  0.3774  0.0274
16181TIP3    H170034   4.897   3.650  17.088  0.0662  1.3465  0.7075
16181TIP3    H270035   4.926   3.669  16.941  1.9272 -1.9401  0.5654
16182TIP3   OH270036   2.285   3.708   2.213 -0.3421 -0.5860  0.1789
16182TIP3    H170037   2.316   3.697   2.123 -0.6804  0.2767 -0.0597
16182TIP3    H270038   2.190   3.716   2.204 -0.3453 -0.1385  0.5717
16183TIP3   OH270039   1.187   6.424  13.335  0.0498 -0.2239 -0.5859
16183TIP3    H170040   1.191   6.477  13.414 -0.7815  1.4871 -1.6256
16183TIP3    H270041   1.093   6.407  13.322 -0.0197  1.0819 -2.1400
16184TIP3   OH270042   5.823   4.642  15.725 -0.1545  0.3158  0.0719
16184TIP3    H170043   5.789   4.593  15.651 -1.4015  0.8518  0.2677
16184TIP3    H270044   5.812   4.584  15.800 -0.8739  0.5679  0.1706
16185TIP3   OH270045   1.962   0.122   2.806  0.0482  0.6021 -0.1059
16185TIP3    H170046   1.872   0.151   2.821  0.1206  1.2628 -0.8891
16185TIP3    H270047   2.016   0.197   2.827  0.3021  0.7433 -1.1909
16186TIP3   OH270048   0.862   1.969  12.031 -0.4904 -0.1907  0.0556
16186TIP3    H170049   0.807   2.008  11.963 -0.8929  0.5382  0.7812
16186TIP3    H270050   0.802   1.952  12.103 -0.2711 -1.9462 -0.1375
16187TIP3   OH270051   5.425   1.921  15.851  0.0489 -0.0520  0.1232
16187TIP3    H170052   5.507   1.900  15.806  0.7151  0.6354  0.9744
16187TIP3    H270053   5.390   1.836  15.878 -0.6975 -0.5581 -2.1526
16188TIP3   OH270054   3.759   4.673  15.591 -0.0922  0.1416  0.1532
16188TIP3    H170055   3.685   4.710  15.640 -2.1930  0.0876 -2.7111
16188TIP3    H270056   3.812   4.750  15.567 -1.6557  0.7982 -1.4238
16189TIP3   OH270057   0.381   3.375  11.441  0.1968 -0.1496 -0.0623
16189TIP3    H170058   0.451   3.439  11.448  0.2746 -0.3031  0.6230
16189TIP3    H270059   0.339   3.375  11.527 -2.2024  1.6715 -1.0814
16190TIP3   OH270060   4.431   0.848   1.975  0.3323  0.3821 -0.1065
16190TIP3    H170061   4.419   0.759   1.941 -1.7927  0.5926  0.0158
16190TIP3    H270062   4.472   0.896   1.902 -0.1753 -0.2418 -0.8176
16191TIP3   OH270063   1.567   2.891  14.760 -0.3224 -0.0621  0.0366
16191TIP3    H170064   1.555   2.985  14.743 -0.2056  0.0364  0.4909
16191TIP3    H270065   1.639   2.865  14.703  0.0358  0.2568  0.3379
16192TIP3   OH270066   5.167   3.013   1.495 -0.3392 -0.4776 -0.5440
16192TIP3    H170067   5.195   3.104   1.495  0.8913 -0.8350 -0.3369
16192TIP3    H270068   5.091   3.010   1.553  1.4454 -0.0967  1.9346
16193TIP3   OH270069   4.594   3.307   3.501 -0.2440 -0.2358 -0.0421
16193TIP3    H170070   4.600   3.219   3.465 -0.9387 -1.0189  1.6567
16193TIP3    H270071   4.551   3.296   3.586 -0.4620  1.7540  0.1653
16194TIP3   OH270072   4.809   6.292   3.734 -0.1137 -0.5742 -0.1883
16194TIP3    H170073   4.753   6.248   3.798  0.8970 -1.2475  0.2598
16194TIP3    H270074   4.788   6.385   3.744  0.0998 -0.6599  1.1976
16195TIP3   OH270075   3.473   2.227   0.010 -0.3161 -0.5664  0.0007
16195TIP3    H170076   3.510   2.293  -0.048 -1.1247 -0.3915 -0.3292
16195TIP3    H270077   3.445   2.276   0.087  1.4188 -0.8984  0.8814
16196TIP3   OH270078   6.581   2.586  14.912  0.0475  0.1599 -0.4176
16196TIP3    H170079   6.619   2.544  14.835 -0.0132 -0.0338 -0.3419
16196TIP3    H270080   6.512   2.526  14.941 -1.1149  1.0584 -1.2424
16197TIP3   OH270081   2.244   3.324   2.045 -0.6808  0.2233 -0.0742
16197TIP3    H170082   2.268   3.415   2.028 -2.1428  1.0670  1.9590
16197TIP3    H270083   2.149   3.322   2.034 -0.6464 -1.0960 -0.2275
16198TIP3   OH270084   3.215   5.918   3.284  0.0230  0.4361  0.0268
16198TIP3    H170085   3.275   5.958   3.221  0.9183 -0.5298  0.2413
16198TIP3    H270086   3.271   5.862   3.338 -1.1194 -0.7705 -0.0013
16199TIP3   OH270087   3.461   0.653  15.953  0.0040 -0.5409  0.3986
16199TIP3    H170088   3.442   0.559  15.960  3.0784 -1.1935  1.7930
16199TIP3    H270089   3.537   0.658  15.896 -0.1622  1.1469  0.2652
16200TIP3   OH270090   2.805   0.679  12.135  0.7376  0.4535 -0.5631
16200TIP3    H170091   2.755   0.652  12.213  1.0785  3.5299  0.8732
16200TIP3    H270092   2.739   0.687  12.066  0.2483 -1.2511 -0.3328
16201TIP3   OH270093   1.417   1.830   2.991  0.2800  0.3359 -0.0799
16201TIP3    H170094   1.374   1.911   2.965  0.3796  1.1080  1.9930
16201TIP3    H270095   1.358   1.790   3.054  0.8599 -0.5320 -0.0651
16202TIP3   OH270096   4.099   1.995  16.019  0.4172  0.8434 -0.2080
16202TIP3    H170097   4.014   2.038  16.026  0.9203  2.0151 -1.0601
16202TIP3    H270098   4.084   1.906  16.051 -1.4895  0.5494 -1.7513
16203TIP3   OH270099   3.167   3.172   0.350 -0.3117 -0.3745  0.6391
16203TIP3    H170100   3.255   3.175   0.313  0.2468  0.9399  1.9912
16203TIP3    H270101   3.167   3.093   0.404  1.1876  1.2227  3.1833
16204TIP3   OH270102   5.588   5.848   2.819 -0.7783 -0.0283 -0.7393
16204TIP3    H170103   5.507   5.898   2.825 -1.4483 -1.0529 -1.0277
16204TIP3    H270104   5.615   5.858   2.727 -0.2480  0.8047 -0.4987
16205TIP3   OH270105   2.807   1.527   4.715 -0.2370  1.1169 -0.0548
16205TIP3    H170106   2.883   1.482   4.751 -0.9190  0.6770  0.8968
16205TIP3    H270107   2.832   1.552   4.626  0.5940 -0.0401 -0.1547
16206TIP3   OH270108   2.683   6.124   3.387  0.1632  0.1776 -0.0162
16206TIP3    H170109   2.761   6.144   3.439  0.3089  1.9867 -0.8533
16206TIP3    H270110   2.610   6.149   3.443  0.1969 -0.8118  0.4839
16207TIP3   OH270111   2.036   4.665  15.885 -0.3528 -0.5511 -0.0488
16207TIP3    H170112   1.977   4.693  15.955 -1.1773  0.1098 -0.9706
16207TIP3    H270113   2.092   4.599  15.925  0.6010  1.2693  1.8154
16208TIP3   OH270114   3.737   0.700   2.608 -0.3938  0.4074  0.0608
16208TIP3    H170115   3.652   0.662   2.631 -0.3100 -0.5227 -1.0665
16208TIP3    H270116   3.740   0.697   2.512  1.6265 -1.3370  0.0940
16209TIP3   OH270117   4.005   4.268  14.979  0.1814  0.0937 -0.4225
16209TIP3    H170118   3.936   4.329  15.007 -0.2820 -0.0821 -1.1509
16209TIP3    H270119   3.999   4.267  14.883  0.9035 -0.2705 -0.4697
16210TIP3   OH270120   0.711   3.813   6.341  0.5411  0.1251  0.3848
16210TIP3    H170121   0.646   3.879   6.367 -0.7443 -0.8113 -0.3057
16210TIP3    H270122   0.788   3.833   6.394 -0.2981  1.2934  1.2284
16211TIP3   OH270123   4.215   0.250  13.168 -0.0625  0.0077 -0.0561
16211TIP3    H170124   4.216   0.210  13.255  0.5202  1.2699  0.5367
16211TIP3    H270125   4.144   0.205  13.122  1.5012 -2.8318  0.0162
16212TIP3   OH270126   1.438   6.036  12.599 -0.0378  0.8424  0.0994
16212TIP3    H170127   1.445   6.131  12.609  3.4789  0.8233 -0.7898
16212TIP3    H270128   1.454   6.002  12.687 -0.8873  1.0542  0.3410
16213TIP3   OH270129   0.676   5.440  13.421  0.2167 -0.0951 -0.1842
16213TIP3    H170130   0.597   5.493  13.436  1.8408  2.1644  0.8460
16213TIP3    H270131   0.723   5.485  13.352  0.0848 -2.1306 -1.6935
16214TIP3   OH270132   3.176   3.683  13.192  0.1779 -0.1558 -0.2004
16214TIP3    H170133   3.087   3.699  13.223 -0.1003 -1.6949 -0.0984
16214TIP3    H270134   3.228   3.675  13.271  0.5312  1.2311 -0.2658
16215TIP3   OH270135   0.583   4.254   2.982 -0.5761  0.5039  0.8170
16215TIP3    H170136   0.590   4.305   2.901 -0.2085 -0.0690  0.4759
16215TIP3    H270137   0.503   4.202   2.971 -0.8478  0.8621  1.0815
16216TIP3   OH270138   5.389   5.674   4.495  0.2998  0.4121  0.1660
16216TIP3    H170139   5.395   5.601   4.558  0.4136  0.1809 -0.1104
16216TIP3    H270140   5.332   5.641   4.426  2.5753 -0.4959 -1.3983
16217TIP3   OH270141   0.153   5.592   2.543 -0.4596  0.2983 -0.0846
16217TIP3    H170142   0.230   5.558   2.588 -0.2701 -0.6750 -1.0977
16217TIP3    H270143   0.090   5.520   2.544 -0.6465  0.4395 -0.9048
16218TIP3   OH270144   3.640   6.328  15.440  0.5940  0.4734 -0.3192
16218TIP3    H170145   3.558   6.316  15.392  1.1892 -3.6597 -0.6753
16218TIP3    H270146   3.613   6.331  15.532 -0.0397 -0.2383 -0.4673
16219TIP3   OH270147   5.057   5.477   0.484 -0.5829  0.4039  0.0654
16219TIP3    H170148   5.129   5.527   0.445 -0.1762  1.1599  1.7208
16219TIP3    H270149   5.073   5.386   0.456  0.9216  0.5834  0.2437
16220TIP3   OH270150   0.642   4.778  16.310 -0.0345 -0.3197 -0.6491
16220TIP3    H170151   0.560   4.730  16.320  1.1723 -2.5861 -0.9175
16220TIP3    H270152   0.625   4.863  16.350 -3.2874  0.2844 -2.8617
16221TIP3   OH270153   1.972   0.201  13.826  0.2516  0.6728 -0.2017
16221TIP3    H170154   1.941   0.110  13.835  0.0662  0.8915  2.2076
16221TIP3    H270155   2.058   0.194  13.786  0.4120 -0.6396  0.3165
16222TIP3   OH270156   4.971   2.133  12.403  0.2218  0.0199 -0.4447
16222TIP3    H170157   4.947   2.122  12.311  2.4925  0.9853 -1.2108
16222TIP3    H270158   5.011   2.050  12.427 -0.6952 -0.3645 -0.1719
16223TIP3   OH270159   0.380   0.711  15.624 -0.1174  0.3996 -0.0036
16223TIP3    H170160   0.370   0.617  15.615 -1.2486  0.5136 -0.0515
16223TIP3    H270161   0.368   0.728  15.717 -1.6976  0.6733 -0.2317
16224TIP3   OH270162   4.323   3.607   3.041  0.2286  0.4898 -0.2074
16224TIP3    H170163   4.265   3.619   2.966  2.5511 -1.4353 -2.5021
16224TIP3    H270164   4.287   3.531   3.087 -0.2253  0.5692 -0.4275
16225TIP3   OH270165   3.669   1.026  16.870  0.0585  0.1707 -0.3569
16225TIP3    H170166   3.595   0.966  16.858  0.8499 -0.6771 -1.1238
16225TIP3    H270167   3.737   0.974  16.912  1.1032  0.2309 -1.8821
16226TIP3   OH270168   0.298   6.832   2.050 -0.1524  0.1305 -0.5692
16226TIP3    H170169   0.368   6.897   2.057  1.5500 -1.6728  0.0024
16226TIP3    H270170   0.292   6.813   1.956 -0.0061  0.3940 -0.6341
16227TIP3   OH270171   4.752   5.167   5.139  0.2576  0.0772 -0.2081
16227TIP3    H170172   4.803   5.228   5.086  0.6265 -0.6799 -0.7487
16227TIP3    H270173   4.738   5.092   5.082 -1.7196  0.3720 -0.1728
16228TIP3   OH270174   4.081   2.816  10.532  0.2790  0.4526  0.4806
16228TIP3    H170175   4.091   2.741  10.591 -2.3176  0.3107  0.8235
16228TIP3    H270176   3.991   2.844  10.543  0.1847  1.5070 -2.2046
16229TIP3   OH270177   2.963   4.855  11.830 -0.2105  0.2230  0.2433
16229TIP3    H170178   3.056   4.867  11.848  0.3139 -0.5962 -1.6142
16229TIP3    H270179   2.920   4.865  11.915  1.5576  0.6707  1.1316
16230TIP3   OH270180   4.236   1.463  16.093  0.3185  0.0200  0.2261
16230TIP3    H170181   4.206   1.510  16.171  0.6603  0.4068  0.1291
16230TIP3    H270182   4.177   1.492  16.023  1.5571  1.6152 -0.2044
16231TIP3   OH270183   2.350   5.738   2.420 -0.3522 -0.2277 -0.0898
16231TIP3    H170184   2.330   5.718   2.511 -0.0227  0.1629  0.0666
16231TIP3    H270185   2.430   5.688   2.401  0.2167  0.5733  0.1689
16232TIP3   OH270186   1.818   6.743  15.583 -0.6214 -0.4329  0.2900
16232TIP3    H170187   1.806   6.648  15.578 -0.7091 -0.3741 -3.3132
16232TIP3    H270188   1.901   6.759  15.538  0.7057  1.1130  3.0347
16233TIP3   OH270189   4.425   1.192   0.473  0.5805 -0.2334  0.1304
16233TIP3    H170190   4.363   1.153   0.534  1.0882  0.7808  1.3218
16233TIP3    H270191   4.371   1.243   0.413  0.0104 -1.8328 -0.7819
16234TIP3   OH270192   5.062   0.395   3.102 -0.1175  0.3296  0.2213
16234TIP3    H170193   5.120   0.457   3.058  1.5892 -1.4890 -0.2082
16234TIP3    H270194   5.103   0.380   3.187  0.6941 -1.7792 -0.4909
16235TIP3   OH270195   5.827   4.843   3.810  0.2251 -0.0374  0.2491
16235TIP3    H170196   5.830   4.846   3.714  0.1186  1.0001  0.2665
16235TIP3    H270197   5.744   4.800   3.830 -0.7934  1.6640 -0.1342
16236TIP3   OH270198   2.376   0.540   4.844  0.5269  0.1625  0.0817
16236TIP3    H170199   2.347   0.482   4.915 -1.1273 -2.0269 -2.1896
16236TIP3    H270200   2.455   0.498   4.810 -0.4529 -0.6477 -1.3155
16237TIP3   OH270201   6.679   2.404  15.437 -0.3675 -0.2456 -0.5093
16237TIP3    H170202   6.646   2.316  15.416  1.4211 -1.0868 -0.0167
16237TIP3    H270203   6.728   2.430  15.359 -1.2815  0.5422 -0.8366
16238TIP3   OH270204   6.036   4.799   5.764 -0.3447 -0.5633 -0.4399
16238TIP3    H170205   5.990   4.883   5.763 -0.8873 -0.8621 -1.2591
16238TIP3    H270206   5.967   4.734   5.752  0.1979 -1.0663 -0.8880
16239TIP3   OH270207   5.951   6.669  14.053  0.3279 -0.3864  0.3898
16239TIP3    H170208   5.979   6.579  14.036 -0.0240 -0.1842 -1.4851
16239TIP3    H270209   5.894   6.662  14.129  0.9380 -1.6270  0.7618
16240TIP3   OH270210   1.919   5.656  11.208  0.4757 -0.4226  0.9645
16240TIP3    H170211   1.932   5.637  11.115 -0.2847  0.8119  0.5794
16240TIP3    H270212   1.990   5.716  11.231 -0.4175  0.7908  0.6596
16241TIP3   OH270213   6.735   2.556  16.835 -0.0332  0.4422 -0.9943
16241TIP3    H170214   6.798   2.555  16.763  1.8527 -0.9329  0.5846
16241TIP3    H270215   6.700   2.467  16.838  2.2136 -0.4901  1.5927
16242TIP3   OH270216   4.445   5.143  11.781 -0.1574  0.2248 -0.2441
16242TIP3    H170217   4.354   5.130  11.753 -0.3249  2.2693 -0.8450
16242TIP3    H270218   4.441   5.141  11.876 -0.5561 -1.1585 -0.2641
16243TIP3   OH270219   1.484   4.930  15.357  0.5811  0.7885 -0.1824
16243TIP3    H170220   1.574   4.925  15.388  0.6277  2.6440  0.0781
16243TIP3    H270221   1.456   4.838  15.351  2.8631  0.1089 -1.4946
16244TIP3   OH270222   4.803   3.857  12.940 -0.2224  0.0444  0.3159
16244TIP3    H170223   4.782   3.950  12.935 -1.9540 -0.3037  0.5044
16244TIP3    H270224   4.749   3.824  13.011 -1.6033 -1.5876 -1.3975
16245TIP3   OH270225   5.827   6.535   4.232 -0.1422 -0.4171  0.4428
16245TIP3    H170226   5.823   6.549   4.327  0.0876  0.0148  0.3880
16245TIP3    H270227   5.740   6.503   4.209 -0.9009  1.5166  0.4711
16246TIP3   OH270228   6.568   1.161   3.423 -0.4051  0.0813  0.0121
16246TIP3    H170229   6.527   1.099   3.483 -1.8523  1.9312  1.0429
16246TIP3    H270230   6.626   1.214   3.477  2.2672 -1.4452 -1.1647
16247TIP3   OH270231   3.425   0.164  13.946 -0.1190 -0.0845 -0.0230
16247TIP3    H170232   3.497   0.111  13.980 -0.3483 -0.7499 -0.5282
16247TIP3    H270233   3.358   0.099  13.923 -1.0054  0.5448  0.7417
16248TIP3   OH270234   4.116   2.577  16.155 -0.0608 -0.0017 -0.0551
16248TIP3    H170235   4.071   2.618  16.229 -0.0855  0.8866 -0.5440
16248TIP3    H270236   4.207   2.570  16.184 -0.3103 -0.9039  0.5619
16249TIP3   OH270237   2.081   0.729  11.524  0.0898 -0.3966  0.6615
16249TIP3    H170238   1.986   0.718  11.523  0.2551 -2.4872  2.0294
16249TIP3    H270239   2.095   0.816  11.563 -1.2367 -0.4222  1.2470
16250TIP3   OH270240   1.639   3.086  15.577 -0.2075 -0.3800 -0.4021
16250TIP3    H170241   1.567   3.027  15.598  1.0080 -1.6919  0.2261
16250TIP3    H270242   1.691   3.090  15.658  0.4343  0.5239 -0.8470
16251TIP3   OH270243   5.953   2.456   0.227  0.1668 -0.0628  0.4354
16251TIP3    H170244   5.940   2.390   0.295 -0.3442  1.5575  1.9786
16251TIP3    H270245   5.867   2.498   0.218  1.1563  2.4523  1.7663
16252TIP3   OH270246   0.865   6.460  11.357  0.1288 -0.0309 -0.4334
16252TIP3    H170247   0.845   6.548  11.325 -0.0525 -0.1775 -0.7254
16252TIP3    H270248   0.960   6.451  11.346  0.4501  0.8355  1.3822
16253TIP3   OH270249   4.517   1.068  12.553 -0.5769  0.5959  0.1932
16253TIP3    H170250   4.509   1.011  12.629  1.0391 -1.1951 -0.9048
16253TIP3    H270251   4.429   1.070  12.515 -0.7375 -0.9507  0.4199
16254TIP3   OH270252   5.480   4.810   2.111 -0.2421  0.3245  0.2523
16254TIP3    H170253   5.493   4.717   2.091 -0.8576  0.7102 -2.3873
16254TIP3    H270254   5.568   4.843   2.128  0.2771 -0.3623 -0.9043
16255TIP3   OH270255   4.603   4.943  16.509 -0.1174 -0.1715 -0.2081
16255TIP3    H170256   4.624   4.853  16.483  0.6044 -0.7728  2.1714
16255TIP3    H270257   4.512   4.938  16.540 -0.1766  0.0042 -0.3512
16256TIP3   OH270258   2.547   2.296   4.752 -0.2701  0.3097  0.2710
16256TIP3    H170259   2.534   2.369   4.812  0.2997  0.1048  0.6472
16256TIP3    H270260   2.554   2.219   4.809  2.6720  0.3798  0.1842
16257TIP3   OH270261   6.706   2.998  12.802  0.4779 -0.8195  0.4377
16257TIP3    H170262   6.709   3.066  12.869  1.4380 -0.9986  0.5845
16257TIP3    H270263   6.791   2.955  12.807 -0.1071 -2.0395  0.3428
16258TIP3   OH270264   2.420   5.858  10.909 -0.0222  0.1885  0.3059
16258TIP3    H170265   2.327   5.862  10.884 -0.4409 -2.2642  1.1689
16258TIP3    H270266   2.453   5.779  10.866  0.8965 -0.5174  2.1916
16259TIP3   OH270267   5.497   5.987   5.476  0.1083  0.4129  0.6883
16259TIP3    H170268   5.588   5.973   5.502  0.8297  0.3005 -1.6576
16259TIP3    H270269   5.459   5.899   5.477  1.0195 -0.0719 -1.5478
16260TIP3   OH270270   6.170   6.367  14.619  0.0803 -0.3915  0.3451
16260TIP3    H170271   6.206   6.415  14.545  0.6120 -1.1394  0.1024
16260TIP3    H270272   6.246   6.343  14.671 -0.3560  0.8677  1.6111
16261TIP3   OH270273   1.413   1.606   3.629 -0.1456 -0.0958  0.5671
16261TIP3    H170274   1.441   1.552   3.555  0.0182 -0.9775  1.2547
16261TIP3    H270275   1.322   1.629   3.609 -0.5919 -1.5768  0.7880
16262TIP3   OH270276   2.674   2.840  15.097 -0.2633 -0.1503  0.1209
16262TIP3    H170277   2.703   2.925  15.132 -1.2571 -0.2233  1.1783
16262TIP3    H270278   2.702   2.776  15.163 -0.5194 -0.5122 -0.1197
16263TIP3   OH270279   4.065   3.349   0.979  0.3502  0.0496 -0.7915
16263TIP3    H170280   4.095   3.271   0.931  2.5906  0.5604 -0.3519
16263TIP3    H270281   3.996   3.317   1.037 -0.0889 -1.2166 -1.9664
16264TIP3   OH270282   1.469   3.523  16.616 -0.5965 -0.1316  0.2696
16264TIP3    H170283   1.494   3.455  16.680 -2.0802 -0.6390  0.3524
16264TIP3    H270284   1.425   3.590  16.669  1.4501  1.2759  0.2869
16265TIP3   OH270285   2.907   2.814   0.245  0.0904 -0.6109  0.5002
16265TIP3    H170286   2.923   2.806   0.339  0.1878  0.5630  0.6019
16265TIP3    H270287   2.991   2.795   0.204  0.3713  0.1159  0.7271
16266TIP3   OH270288   3.032   4.569  16.096  0.0358  0.0866  0.2287
16266TIP3    H170289   3.065   4.532  16.014 -0.1048 -2.2449  1.1551
16266TIP3    H270290   3.111   4.580  16.150  0.1109  1.4810 -0.1333
16267TIP3   OH270291   6.169   6.850  11.901 -0.4798 -0.0121  0.5085
16267TIP3    H170292   6.180   6.797  11.823 -1.5003 -0.7229  0.8233
16267TIP3    H270293   6.229   6.812  11.965  1.5909  1.5927 -0.3781
16268TIP3   OH270294   3.215   0.326   4.892 -0.0160  0.2161 -0.8256
16268TIP3    H170295   3.286   0.377   4.854  0.0707  0.5772 -0.1812
16268TIP3    H270296   3.258   0.268   4.955 -0.0805 -0.8413 -1.7213
16269TIP3   OH270297   0.563   0.627  13.131 -0.3872 -0.7297  0.3295
16269TIP3    H170298   0.589   0.613  13.039 -1.7353 -0.6041 -0.0867
16269TIP3    H270299   0.642   0.661  13.173 -0.2769  1.1193 -1.2465
16270TIP3   OH270300   0.725   0.548  11.374 -1.0431 -0.2095  0.1273
16270TIP3    H170301   0.802   0.495  11.356  0.2770  1.8011 -0.3633
16270TIP3    H270302   0.716   0.546  11.470  0.1188  0.2213  0.2516
16271TIP3   OH270303   0.539   3.692   0.170 -0.7537 -0.1421  0.0349
16271TIP3    H170304   0.571   3.712   0.258  1.1389  1.3575 -0.9106
16271TIP3    H270305   0.558   3.771   0.119 -1.4584 -1.0989 -1.8038
16272TIP3   OH270306   0.689   4.218  11.718 -0.1160 -0.6194  0.0368
16272TIP3    H170307   0.601   4.256  11.725  0.1820  0.1135 -0.1518
16272TIP3    H270308   0.732   4.243  11.800  1.0594  2.0220 -1.2503
16273TIP3   OH270309   0.429   2.016   1.484  0.0127  0.3017  0.0146
16273TIP3    H170310   0.342   1.990   1.453 -0.4198  1.0143  0.6135
16273TIP3    H270311   0.484   1.940   1.466 -0.5655  0.1206 -1.0638
16274TIP3   OH270312   4.547   6.833  11.317  0.0474  0.0776 -0.3428
16274TIP3    H170313   4.573   6.894  11.386 -1.7309  0.3904  0.1045
16274TIP3    H270314   4.481   6.777  11.358  1.3234 -1.9277 -0.8636
16275TIP3   OH270315   0.058   0.618  14.868 -0.0869 -0.2627 -0.4862
16275TIP3    H170316   0.143   0.617  14.824  0.3293 -0.7261  0.3149
16275TIP3    H270317   0.073   0.664  14.950 -0.0554 -2.2460  0.6928
16276TIP3   OH270318   4.962   6.483  12.399 -0.1151 -0.3383 -0.0815
16276TIP3    H170319   4.994   6.510  12.485  0.8344 -1.3259 -0.1115
16276TIP3    H270320   4.948   6.566  12.352 -0.6514  0.2166  1.0035
16277TIP3   OH270321   3.784   0.201  11.235 -0.1538 -0.4811  0.6048
16277TIP3    H170322   3.802   0.119  11.281 -0.8495 -0.4512  0.9399
16277TIP3    H270323   3.853   0.206  11.168  0.9034 -0.5063  1.6571
16278TIP3   OH270324   0.738   2.518   3.209 -0.0723 -0.0752  0.2787
16278TIP3    H170325   0.696   2.436   3.183 -0.3427 -0.0812  0.7195
16278TIP3    H270326   0.821   2.518   3.162 -0.1770 -0.4827  0.0824
16279TIP3   OH270327   5.179   4.129  15.657 -0.6829 -0.1259  0.0160
16279TIP3    H170328   5.147   4.041  15.640  0.0068 -0.7572  1.8532
16279TIP3    H270329   5.268   4.117  15.688 -0.6238  1.2127  0.4239
16280TIP3   OH270330   3.515   0.825  11.311 -0.1131  0.1312 -0.5017
16280TIP3    H170331   3.500   0.916  11.336 -0.2110 -0.2458  0.9303
16280TIP3    H270332   3.428   0.785  11.315 -0.0916  0.0084 -1.2580
16281TIP3   OH270333   4.887   4.509  11.456 -0.3201  0.0319 -0.1240
16281TIP3    H170334   4.937   4.476  11.381 -0.9312  1.2751 -1.1104
16281TIP3    H270335   4.815   4.446  11.466  0.5491 -0.9184  0.3344
16282TIP3   OH270336   3.417   4.254   0.820  0.3823 -0.1733  0.4084
16282TIP3    H170337   3.482   4.322   0.837  0.2355  0.3402 -1.0043
16282TIP3    H270338   3.339   4.283   0.867  0.0532  1.0939 -0.8879
16283TIP3   OH270339   3.470   0.989  16.024 -0.8005 -0.5142 -0.3895
16283TIP3    H170340   3.513   0.973  16.108 -2.4367 -1.9327  0.2377
16283TIP3    H270341   3.390   0.937  16.028 -0.4106 -1.5097 -3.2895
16284TIP3   OH270342   4.701   6.746  15.447  0.9166 -0.2453 -0.0719
16284TIP3    H170343   4.743   6.766  15.531  1.3920 -5.4914  1.2780
16284TIP3    H270344   4.626   6.806  15.443  1.4525  0.9478  3.5991
16285TIP3   OH270345   3.275   5.164  10.639 -0.4328 -0.2709  0.2701
16285TIP3    H170346   3.203   5.106  10.613 -1.5701  1.2940 -0.1840
16285TIP3    H270347   3.328   5.174  10.559 -0.7663  0.0607  0.0892
16286TIP3   OH270348   6.318   6.567   1.839 -0.1708  0.3464 -0.0827
16286TIP3    H170349   6.256   6.508   1.882 -0.5595  1.4663  0.9330
16286TIP3    H270350   6.402   6.545   1.878 -0.5078  1.2898  1.2258
16287TIP3   OH270351   4.407   4.762  13.979 -0.1449 -0.5727 -0.1110
16287TIP3    H170352   4.420   4.702  14.052 -1.0945 -0.0597  0.4990
16287TIP3    H270353   4.342   4.825  14.011  0.1846  0.2666 -1.0385
16288TIP3   OH270354   6.832   2.636  13.632 -0.2485 -0.1197  0.1381
16288TIP3    H170355   6.756   2.592  13.594 -0.4044 -0.3011  0.6536
16288TIP3    H270356   6.799   2.677  13.711 -0.0051  0.5623 -0.1079
16289TIP3   OH270357   6.780   0.036  14.118 -0.0380  0.3195  0.2806
16289TIP3    H170358   6.810  -0.047  14.083  3.6555  1.4005  0.4942
16289TIP3    H270359   6.748   0.015  14.206  1.0140 -0.8847  0.4066
16290TIP3   OH270360   1.695   6.690   0.200 -0.7392  0.0834  0.5556
16290TIP3    H170361   1.621   6.751   0.198 -0.9507 -0.1116  1.7188
16290TIP3    H270362   1.674   6.625   0.134 -1.3654  0.3104  0.5223
16291TIP3   OH270363   1.384   5.688  13.833  0.3922 -0.0059 -0.1350
16291TIP3    H170364   1.460   5.713  13.885  1.3937 -0.1289 -1.5025
16291TIP3    H270365   1.360   5.768  13.786  1.2543 -0.5626 -1.6066
16292TIP3   OH270366   2.534   3.673  16.036  0.3233 -0.1863  0.1451
16292TIP3    H170367   2.559   3.615  15.964 -1.3541 -3.5149  2.0046
16292TIP3    H270368   2.615   3.685  16.085  1.1887  1.0196 -1.4809
16293TIP3   OH270369   6.266   3.836  13.662 -0.4732  0.5769 -0.1989
16293TIP3    H170370   6.238   3.927  13.653 -1.0245  0.3059 -1.3727
16293TIP3    H270371   6.357   3.841  13.691 -0.7577  1.4902  0.5799
16294TIP3   OH270372   3.446   1.716   2.040 -0.3402 -0.1528  0.1033
16294TIP3    H170373   3.464   1.623   2.049  0.7376  0.0301 -0.0172
16294TIP3    H270374   3.412   1.726   1.951 -3.4389 -0.8402  1.0989
16295TIP3   OH270375   4.554   0.104  15.244  0.1425 -0.2357 -0.6300
16295TIP3    H170376   4.478   0.074  15.294  0.6824 -2.8469 -1.2099
16295TIP3    H270377   4.532   0.194  15.218 -0.6850  0.8375  3.1534
16296TIP3   OH270378   0.775   3.564  13.736  0.2567  0.6738  0.4455
16296TIP3    H170379   0.746   3.655  13.739  1.5496  1.0802  1.0264
16296TIP3    H270380   0.826   3.557  13.655 -1.1189  0.0296 -0.4235
16297TIP3   OH270381   3.070   1.522  15.800  0.2405  0.2584 -0.5413
16297TIP3    H170382   3.114   1.440  15.778  0.8991  0.4107  0.1477
16297TIP3    H270383   3.000   1.531  15.735  0.4157 -0.6439 -0.8590
16298TIP3   OH270384   1.270   5.173   2.703  0.0658 -0.2939  0.3259
16298TIP3    H170385   1.210   5.166   2.629 -0.6462  1.8151  0.6448
16298TIP3    H270386   1.350   5.129   2.674 -0.7051 -0.7834 -1.1260
16299TIP3   OH270387   1.431   3.707   0.412 -0.0495  0.2213 -0.2240
16299TIP3    H170388   1.433   3.680   0.320 -0.1727 -1.6518  0.2891
16299TIP3    H270389   1.456   3.629   0.461 -1.0846  0.8619  1.4186
16300TIP3   OH270390   6.683   6.776  12.635 -0.0062 -0.3250  0.8089
16300TIP3    H170391   6.664   6.717  12.562 -0.3356 -1.7936  2.0224
16300TIP3    H270392   6.606   6.832  12.642  0.7628  1.0568 -1.0501
16301TIP3   OH270393   1.813   2.342  14.005  0.8514  0.6005  0.1688
16301TIP3    H170394   1.767   2.267  14.042 -1.3296  1.2326 -1.0640
16301TIP3    H270395   1.864   2.377  14.077 -1.7659  0.7070  2.1180
16302TIP3   OH270396   3.893   5.806   4.160  0.2498  0.9816 -0.3158
16302TIP3    H170397   3.980   5.781   4.129  0.0492 -2.8678  1.5289
16302TIP3    H270398   3.834   5.781   4.089  0.3325 -1.7047  0.4232
16303TIP3   OH270399   2.475   1.389  14.427 -0.0062 -0.0909 -0.3423
16303TIP3    H170400   2.520   1.443  14.492  0.1395  0.5226 -0.9376
16303TIP3    H270401   2.416   1.449  14.383 -0.4049 -0.5936 -0.5022
16304TIP3   OH270402   1.108   6.277  14.196  0.0483  0.1155  0.2398
16304TIP3    H170403   1.190   6.303  14.154  1.0104 -0.4085  1.6888
16304TIP3    H270404   1.065   6.359  14.218 -0.0146  0.3945 -0.8796
16305TIP3   OH270405   1.253   0.573  14.978 -0.2905  0.2290 -0.0533
16305TIP3    H170406   1.320   0.634  14.946 -0.9736  1.1312  0.1914
16305TIP3    H270407   1.302   0.505  15.024  0.5518  0.0778 -1.1372
16306TIP3   OH270408   3.188   5.429   2.686 -0.9837  0.0860 -0.3445
16306TIP3    H170409   3.223   5.384   2.763 -1.4139  0.1410 -0.1126
16306TIP3    H270410   3.160   5.514   2.719  0.0631  0.6423 -0.8308
16307TIP3   OH270411   4.014   3.554   0.175  0.2457  0.4323 -0.3893
16307TIP3    H170412   3.972   3.626   0.222  0.1513 -0.2940  0.6695
16307TIP3    H270413   3.954   3.535   0.102  0.3677  1.5342 -0.7841
16308TIP3   OH270414   6.376   0.379  15.260  0.1309 -0.0700  0.1562
16308TIP3    H170415   6.396   0.428  15.340 -0.0926 -0.0581  0.2056
16308TIP3    H270416   6.283   0.360  15.266  0.5316 -1.9583  0.9351
16309TIP3   OH270417   2.405   1.619   3.819 -0.2253  0.0844 -0.0095
16309TIP3    H170418   2.365   1.704   3.801 -0.0992 -0.1409 -1.5002
16309TIP3    H270419   2.480   1.615   3.760  0.5929 -0.4884  1.0455
16310TIP3   OH270420   6.273   0.061   5.807 -0.5783  0.0430  0.5418
16310TIP3    H170421   6.321   0.030   5.884 -1.9272 -0.6356  1.1468
16310TIP3    H270422   6.234   0.144   5.836 -0.2140  0.3187  0.2393
16311TIP3   OH270423   2.634   4.385  13.646 -0.2615 -0.3654  0.3072
16311TIP3    H170424   2.677   4.452  13.594 -1.1102  0.0027  0.0616
16311TIP3    H270425   2.666   4.302  13.608  1.6948 -0.1523  1.3676
16312TIP3   OH270426   4.402   0.089   1.760 -0.6608  0.1172  0.1412
16312TIP3    H170427   4.456   0.144   1.818 -0.2799 -0.0632 -0.0385
16312TIP3    H270428   4.450   0.087   1.678 -1.4984  0.8540 -0.3809
16313TIP3   OH270429   1.169   2.895   0.594  0.8483  0.8406 -0.4767
16313TIP3    H170430   1.174   2.842   0.674  2.0501 -1.2832 -1.8700
16313TIP3    H270431   1.187   2.833   0.523 -0.2893  2.6263 -2.4349
16314TIP3   OH270432   2.289   1.852   2.003 -0.1552 -0.8762  0.0007
16314TIP3    H170433   2.234   1.860   2.081  1.3142  1.2089  0.9090
16314TIP3    H270434   2.378   1.867   2.035  0.4701  0.2325 -2.0770
16315TIP3   OH270435   6.671   4.823   5.292 -0.0516 -0.2257  0.2232
16315TIP3    H170436   6.630   4.903   5.324  0.8033  0.3020  0.0153
16315TIP3    H270437   6.726   4.794   5.364  0.2056 -0.2171  0.0337
16316TIP3   OH270438   6.716   3.132  13.332  0.2574  0.3336  0.0728
16316TIP3    H170439   6.776   3.202  13.359 -1.9043  1.9467  0.9390
16316TIP3    H270440   6.687   3.093  13.415  0.7508 -1.0373 -0.3716
16317TIP3   OH270441   5.281   0.932  14.743 -0.4319  0.3269  0.3682
16317TIP3    H170442   5.283   0.984  14.663  1.3999  1.3343  1.0209
16317TIP3    H270443   5.299   0.842  14.714  3.3049  1.0888 -0.1616
16318TIP3   OH270444   6.478   4.874  16.951  0.4301  0.7787 -0.3939
16318TIP3    H170445   6.507   4.793  16.994 -0.6868  1.0773  0.9673
16318TIP3    H270446   6.475   4.939  17.020 -3.4651  0.7765 -0.3309
16319TIP3   OH270447   0.831   3.069  11.548  0.4076 -0.0421  0.0730
16319TIP3    H170448   0.738   3.091  11.563  0.9408  1.0186  2.3068
16319TIP3    H270449   0.842   2.984  11.591  0.9180  0.8647  1.8209
16320TIP3   OH270450   3.167   1.397  12.210  0.1240  0.2163 -0.5304
16320TIP3    H170451   3.259   1.372  12.219 -0.0301  0.0470  0.8032
16320TIP3    H270452   3.126   1.322  12.166 -0.0822 -1.4821  2.2952
16321TIP3   OH270453   5.915   4.305  11.643 -0.0706 -0.0276  0.0329
16321TIP3    H170454   5.854   4.296  11.570 -0.5850 -0.8833  0.5493
16321TIP3    H270455   5.952   4.392  11.633 -0.8680  0.2401 -0.6895
16322TIP3   OH270456   1.717   5.742   5.886 -0.2073 -0.5961  0.0393
16322TIP3    H170457   1.813   5.742   5.878 -0.2299 -1.2456 -0.3164
16322TIP3    H270458   1.695   5.654   5.916 -0.7524 -0.7315 -0.7327
16323TIP3   OH270459   0.925   1.728   5.717  0.3763  0.0714 -0.3802
16323TIP3    H170460   0.875   1.742   5.798 -0.1520 -0.7588 -0.5433
16323TIP3    H270461   0.959   1.639   5.726  3.0584  1.0883  0.3541
16324TIP3   OH270462   1.580   4.210   4.380  0.2038 -0.5215  0.6956
16324TIP3    H170463   1.628   4.240   4.457  0.4929  0.3491  0.1820
16324TIP3    H270464   1.599   4.274   4.312 -1.4438 -0.2946  0.3897
16325TIP3   OH270465   6.406   2.825   5.875 -0.1293  0.7219 -0.7072
16325TIP3    H170466   6.418   2.827   5.970  0.7473  0.1194 -0.7927
16325TIP3    H270467   6.406   2.917   5.849 -0.4069  0.8911 -0.1168
16326TIP3   OH270468   0.150   0.391  13.077 -0.2008 -0.3197  0.1382
16326TIP3    H170469   0.219   0.367  13.015  0.4945  1.2761  0.2353
16326TIP3    H270470   0.175   0.349  13.159  0.8157  0.4464  0.2357
16327TIP3   OH270471   3.480   3.345  10.733  0.3689 -0.1567 -0.1612
16327TIP3    H170472   3.471   3.435  10.700 -0.4302 -0.5870 -1.1573
16327TIP3    H270473   3.390   3.313  10.738  0.4442 -0.2080  2.2544
16328TIP3   OH270474   6.181   1.915   2.841 -0.1345 -0.2010  1.0712
16328TIP3    H170475   6.162   1.942   2.751 -0.5198 -1.9453  0.6036
16328TIP3    H270476   6.277   1.915   2.846 -0.1049 -0.4740  0.5450
16329TIP3   OH270477   6.735   5.505   3.751  0.0772 -0.3527 -0.2788
16329TIP3    H170478   6.774   5.418   3.740 -2.2431 -1.5354  0.2608
16329TIP3    H270479   6.740   5.521   3.845 -1.6955 -1.0612 -0.0242
16330TIP3   OH270480   2.092   6.848  16.115  0.1214 -0.1739  0.0479
16330TIP3    H170481   2.004   6.874  16.087  0.8704 -0.8166 -3.3422
16330TIP3    H270482   2.127   6.798  16.041  2.5628 -1.8441  2.1582
16331TIP3   OH270483   5.700   1.684  13.608 -0.0794 -0.2461 -0.0228
16331TIP3    H170484   5.759   1.609  13.612 -0.2143 -0.5168 -1.9746
16331TIP3    H270485   5.709   1.717  13.519 -2.0017  0.4299 -0.0231
16332TIP3   OH270486   0.263   3.500  13.910  0.6233  0.3736 -0.3567
16332TIP3    H170487   0.341   3.541  13.874  0.1771  0.8269 -0.8236
16332TIP3    H270488   0.194   3.566  13.900  0.1699 -0.0354  0.0017
16333TIP3   OH270489   2.886   5.453  13.146 -0.2646 -0.6863  0.1509
16333TIP3    H170490   2.942   5.502  13.085 -1.2313  0.6115  0.2631
16333TIP3    H270491   2.947   5.414  13.208  0.5627  0.3324  0.0087
16334TIP3   OH270492   6.192   1.566   3.844  0.1961 -0.3786 -0.1603
16334TIP3    H170493   6.098   1.570   3.863  0.2526 -1.2827  0.3900
16334TIP3    H270494   6.233   1.562   3.930  0.8597  1.6690 -0.3486
16335TIP3   OH270495   0.738   5.615   0.878 -0.0243  0.5027  0.5177
16335TIP3    H170496   0.725   5.642   0.787  1.4513  0.3486  0.2388
16335TIP3    H270497   0.651   5.588   0.907 -0.0916 -2.2535 -1.7726
16336TIP3   OH270498   1.434   3.471  11.777  0.4067 -0.2603 -0.3064
16336TIP3    H170499   1.458   3.558  11.746 -1.4580  0.1202 -0.8075
16336TIP3    H270500   1.514   3.437  11.817  1.4205  1.3170 -0.8840
16337TIP3   OH270501   5.212   3.221   3.763  0.5184 -0.1023 -0.6086
16337TIP3    H170502   5.280   3.220   3.831 -1.5446  0.2195  1.6134
16337TIP3    H270503   5.164   3.139   3.777 -0.6204  0.4920 -0.9383
16338TIP3   OH270504   2.987   2.881   1.394 -0.4288  0.3036  0.0954
16338TIP3    H170505   2.913   2.917   1.347 -0.9974  0.3449  0.9999
16338TIP3    H270506   2.948   2.825   1.461  0.3974 -2.3430 -1.4523
16339TIP3   OH270507   5.517   6.734   4.463 -0.5633 -0.3014  0.0846
16339TIP3    H170508   5.589   6.674   4.483 -1.0441 -1.1062 -0.5411
16339TIP3    H270509   5.553   6.821   4.479 -0.2847 -0.7794  2.4174
16340TIP3   OH270510   1.903   4.732  14.714  0.6518  0.0603 -0.3322
16340TIP3    H170511   1.844   4.712  14.787  0.3412  0.7039 -0.3959
16340TIP3    H270512   1.987   4.695  14.741  0.2341 -0.8312 -0.2205
16341TIP3   OH270513   3.242   0.985  16.317 -0.0360 -0.6397  0.2039
16341TIP3    H170514   3.337   0.983  16.321  0.2285 -0.4083 -3.3848
16341TIP3    H270515   3.215   0.899  16.351  1.4673 -1.0377  0.4650
16342TIP3   OH270516   3.723   0.783   0.841 -0.5889 -0.4288  0.6855
16342TIP3    H170517   3.770   0.777   0.925 -0.6363  1.5331  0.8775
16342TIP3    H270518   3.704   0.876   0.830  0.1529 -0.5203 -1.9292
16343TIP3   OH270519   5.722   3.135  16.505  0.2367  0.5389 -0.0611
16343TIP3    H170520   5.705   3.229  16.511 -0.5546  0.5271 -1.8042
16343TIP3    H270521   5.798   3.128  16.448 -0.1466  0.0826 -0.5188
16344TIP3   OH270522   4.533   1.850  15.058 -0.7990 -0.6452  0.1823
16344TIP3    H170523   4.568   1.915  15.117  0.3579 -0.9889 -0.1062
16344TIP3    H270524   4.587   1.857  14.979 -0.5407 -2.0455  0.2056
16345TIP3   OH270525   2.181   0.114  11.601 -0.1237 -0.2648  0.1849
16345TIP3    H170526   2.208   0.092  11.690 -0.2607  0.1393  0.3307
16345TIP3    H270527   2.094   0.076  11.592  0.4550 -1.5507 -0.2802
16346TIP3   OH270528   1.477   0.570  10.803 -0.1785  0.0873  0.6273
16346TIP3    H170529   1.456   0.504  10.736  2.1213 -0.6970  0.5671
16346TIP3    H270530   1.504   0.647  10.753  0.4873 -0.1321  0.6342
16347TIP3   OH270531   6.703   0.672  16.135 -0.3441 -0.0776 -0.2044
16347TIP3    H170532   6.726   0.579  16.141 -0.5587 -0.0361  1.5275
16347TIP3    H270533   6.607   0.673  16.136 -0.3638  0.1442 -0.9923
16348TIP3   OH270534   4.150   3.681   2.811 -0.0845 -0.6259 -0.0252
16348TIP3    H170535   4.068   3.653   2.771  0.6175 -1.4875 -0.9391
16348TIP3    H270536   4.128   3.759   2.862 -1.4171 -0.7346 -0.4164
16349TIP3   OH270537   2.130   3.750  12.207  0.1015 -0.4494  0.2967
16349TIP3    H170538   2.054   3.701  12.238 -0.4038  0.3845  0.3937
16349TIP3    H270539   2.160   3.799  12.283  0.0866  0.0430 -0.0124
16350TIP3   OH270540   1.608   0.050   4.740 -0.0675  0.5019 -0.4664
16350TIP3    H170541   1.608  -0.005   4.662  0.3176 -0.8104  0.4354
16350TIP3    H270542   1.683   0.109   4.727 -0.7407  1.1564 -1.6319
16351TIP3   OH270543   0.375   3.013  14.097  0.3766  0.0220  0.9935
16351TIP3    H170544   0.452   2.999  14.152  1.0355  0.7652  0.2813
16351TIP3    H270545   0.344   3.101  14.120  2.3523  1.5874 -1.7580
16352TIP3   OH270546   0.894   6.601   3.798  0.6828 -0.1067  0.3788
16352TIP3    H170547   0.934   6.551   3.726  0.9658 -0.8079  1.0156
16352TIP3    H270548   0.900   6.543   3.874 -1.3668 -0.1754  0.5538
16353TIP3   OH270549   0.408   5.770   2.582  0.3888 -0.3984  0.2892
16353TIP3    H170550   0.417   5.848   2.527 -1.2935 -0.8078 -0.6454
16353TIP3    H270551   0.454   5.792   2.662  0.8842  1.1414 -0.3704
16354TIP3   OH270552   0.745   2.194   2.800 -0.7030  0.6778 -0.0637
16354TIP3    H170553   0.752   2.272   2.745 -0.3260  0.3644 -0.4614
16354TIP3    H270554   0.805   2.130   2.760 -1.1566  0.1149  0.1372
16355TIP3   OH270555   5.509   6.316   0.010  0.4590 -0.2682  0.0599
16355TIP3    H170556   5.442   6.355  -0.047  0.1029  0.6382  1.0691
16355TIP3    H270557   5.591   6.358  -0.018  0.3144  0.0371  0.0885
16356TIP3   OH270558   1.220   3.973  13.681 -0.5925  0.2392  0.2901
16356TIP3    H170559   1.266   3.945  13.760 -1.9427  0.3746  1.1462
16356TIP3    H270560   1.248   4.064  13.669  0.0348  0.0505  0.2923
16357TIP3   OH270561   2.822   3.670  15.713  0.3926 -0.5395 -1.1973
16357TIP3    H170562   2.890   3.603  15.718  0.1592 -0.6687  1.2940
16357TIP3    H270563   2.768   3.655  15.790 -0.6008  1.5346 -1.4346
16358TIP3   OH270564   3.902   6.186  12.024 -0.1770 -0.1313 -0.1798
16358TIP3    H170565   3.889   6.094  12.001 -1.4636 -0.2232  0.7675
16358TIP3    H270566   3.940   6.183  12.112 -1.8978  0.1975  0.6332
16359TIP3   OH270567   0.979   6.721  14.976  0.3587  0.2827  0.0112
16359TIP3    H170568   0.886   6.711  14.955  0.0919 -1.3660  1.6764
16359TIP3    H270569   1.023   6.654  14.923  0.0673 -1.6196  2.0211
16360TIP3   OH270570   4.797   3.696   3.389 -0.0227  0.1807  0.4290
16360TIP3    H170571   4.821   3.726   3.477 -0.7083 -1.6148  1.2838
16360TIP3    H270572   4.880   3.691   3.342  0.3108  1.5748  0.7984
16361TIP3   OH270573   5.365   4.694  12.025 -0.5650  0.4063 -0.3634
16361TIP3    H170574   5.395   4.612  12.066 -1.6690  0.5386  0.7744
16361TIP3    H270575   5.274   4.702  12.053 -0.4893  1.9993 -0.5230
16362TIP3   OH270576   0.515   5.652   3.260 -0.1538 -0.0710  0.3674
16362TIP3    H170577   0.431   5.661   3.306 -0.7048 -0.9383 -0.4366
16362TIP3    H270578   0.531   5.739   3.223 -0.4932  0.2057  0.8460
16363TIP3   OH270579   6.416   5.992   4.063  0.7380  0.0225  0.0905
16363TIP3    H170580   6.333   5.956   4.034  0.9079  0.3720 -0.8545
16363TIP3    H270581   6.393   6.052   4.135  0.1952  0.0004 -0.0634
16364TIP3   OH270582   6.817   0.619  12.431  0.3050 -0.1304 -0.2674
16364TIP3    H170583   6.784   0.618  12.340  0.0872 -3.4646 -0.2707
16364TIP3    H270584   6.834   0.527  12.451  2.3383  0.7281  2.4236
16365TIP3   OH270585   1.911   1.809   5.415  0.3598  0.2113 -0.5898
16365TIP3    H170586   1.860   1.826   5.335  0.2145  1.5180 -0.2402
16365TIP3    H270587   1.928   1.896   5.451 -0.1759 -0.3926  1.1969
16366TIP3   OH270588   2.291   2.797  11.985  0.1257 -0.0186 -0.0780
16366TIP3    H170589   2.293   2.869  11.921  0.0588  0.3031  0.2761
16366TIP3    H270590   2.372   2.807  12.034  0.1483 -0.2297 -0.0743
16367TIP3   OH270591   3.027   0.231  15.206 -0.2656 -0.2421  0.1682
16367TIP3    H170592   3.014   0.197  15.117 -0.4769 -1.3789  0.6176
16367TIP3    H270593   3.074   0.162  15.252  0.3879  0.5931  0.7787
16368TIP3   OH270594   2.494   1.213  16.458  0.0969 -0.0002 -0.5306
16368TIP3    H170595   2.425   1.173  16.406 -0.4793 -0.9236  0.8797
16368TIP3    H270596   2.491   1.167  16.542  1.2348  1.1745  0.2006
16369TIP3   OH270597   3.733   0.591  13.606  0.2826 -0.4689  0.4196
16369TIP3    H170598   3.777   0.615  13.524 -1.6399  1.0318 -0.2603
16369TIP3    H270599   3.642   0.621  13.594 -1.0463 -3.5938  1.6416
16370TIP3   OH270600   3.625   0.189   3.414 -0.1562 -0.2049  0.0623
16370TIP3    H170601   3.588   0.278   3.406 -1.5381 -0.6952  0.6644
16370TIP3    H270602   3.634   0.159   3.323  0.7774  0.7001 -0.1745
16371TIP3   OH270603   6.533   6.400   1.426  0.1491 -0.1484 -0.2391
16371TIP3    H170604   6.609   6.368   1.377  0.8651  1.1089  0.0237
16371TIP3    H270605   6.569   6.436   1.507 -0.9178 -1.1753  0.7386
16372TIP3   OH270606   5.096   5.148  16.919 -0.1945  0.2409  0.2857
16372TIP3    H170607   5.052   5.230  16.941 -1.5285 -0.5781  0.8014
16372TIP3    H270608   5.074   5.088  16.991  2.4441 -0.0205  1.0076
16373TIP3   OH270609   0.762   0.171  15.838  0.2319  0.8542 -0.4533
16373TIP3    H170610   0.747   0.219  15.756 -2.1092  3.5449  1.3478
16373TIP3    H270611   0.717   0.088  15.826 -1.3440  1.8000 -1.4403
16374TIP3   OH270612   3.416   1.202  11.094  0.0460  0.1923 -0.5459
16374TIP3    H170613   3.496   1.190  11.042  1.4646  2.2665  1.0161
16374TIP3    H270614   3.375   1.280  11.058  0.2854  0.8259  0.5262
16375TIP3   OH270615   4.856   6.792   4.460 -0.6613  0.5585  0.2374
16375TIP3    H170616   4.828   6.825   4.375  1.5601 -0.3866 -0.9304
16375TIP3    H270617   4.871   6.870   4.513  0.9204  1.3326 -1.2711
16376TIP3   OH270618   0.013   4.506   3.720  0.5083  0.2047  0.0994
16376TIP3    H170619   0.079   4.437   3.718  0.6107  0.3086 -0.0863
16376TIP3    H270620   0.058   4.584   3.687  1.2303  1.0735  2.8730
16377TIP3   OH270621   4.939   4.316   0.614  0.0117  0.4433  0.2483
16377TIP3    H170622   4.968   4.227   0.594 -0.5654  0.4279 -0.5843
16377TIP3    H270623   5.020   4.365   0.628  0.5007  0.3971 -1.9850
16378TIP3   OH270624   4.259   4.306   4.878  0.3229 -0.1466 -0.1100
16378TIP3    H170625   4.310   4.384   4.901  0.1822  0.5864 -2.0985
16378TIP3    H270626   4.276   4.293   4.785 -2.6825 -0.1924 -0.7464
16379TIP3   OH270627   5.357   3.988   2.929  0.3634 -0.1780  0.1946
16379TIP3    H170628   5.405   3.907   2.915 -1.0546 -0.9543 -0.2630
16379TIP3    H270629   5.360   4.001   3.024  2.4853  0.4541  0.0924
16380TIP3   OH270630   5.495   6.098  14.974  0.2488  0.0219 -0.0197
16380TIP3    H170631   5.420   6.106  15.033 -0.1117 -0.3311 -0.4159
16380TIP3    H270632   5.557   6.164  15.004 -0.2288  0.3304  0.3064
16381TIP3   OH270633   4.874   6.095  14.327 -0.5105  0.7943  0.3972
16381TIP3    H170634   4.816   6.071  14.255 -0.8894 -0.2340  1.0301
16381TIP3    H270635   4.821   6.084  14.405 -0.0133  1.6292  0.8608
16382TIP3   OH270636   2.800   3.733   6.195  0.0127 -0.3810 -0.2375
16382TIP3    H170637   2.887   3.708   6.164  0.6133  0.6350  0.5448
16382TIP3    H270638   2.741   3.709   6.124  0.9065 -1.2579 -0.7063
16383TIP3   OH270639   6.461   1.349   2.838  0.3435  0.3259  0.0377
16383TIP3    H170640   6.536   1.336   2.781 -0.9804  1.7189 -2.1594
16383TIP3    H270641   6.468   1.441   2.866  1.4356 -0.5292  2.9718
16384TIP3   OH270642   6.821   6.263   2.749 -0.2827 -0.0133  0.0800
16384TIP3    H170643   6.729   6.283   2.728 -2.1909 -2.9567  4.2174
16384TIP3    H270644   6.851   6.339   2.799 -1.6415 -0.3119  1.4204
16385TIP3   OH270645   1.199   5.922   0.151  0.4294  0.2032  0.0118
16385TIP3    H170646   1.258   5.922   0.075 -1.8008  2.2535 -1.8949
16385TIP3    H270647   1.158   5.836   0.149  1.0465 -0.0860 -0.5870
16386TIP3   OH270648   5.142   0.311   0.870  0.2761 -0.4803  0.0387
16386TIP3    H170649   5.171   0.241   0.812 -0.2033  0.8356 -1.8929
16386TIP3    H270650   5.222   0.349   0.904  0.5957 -0.8867 -0.2470
16387TIP3   OH270651   6.828   1.870   6.106  0.2185 -0.2687 -0.1939
16387TIP3    H170652   6.813   1.926   6.181  0.6817 -1.2122  0.6371
16387TIP3    H270653   6.829   1.781   6.142  0.6776 -0.7274 -1.2744
16388TIP3   OH270654   1.276   4.903   5.344  0.2342  0.4110  0.1947
16388TIP3    H170655   1.354   4.916   5.290 -0.0611  1.4333 -0.0148
16388TIP3    H270656   1.311   4.876   5.429  0.7789  0.1453 -0.1057
16389TIP3   OH270657   3.035   4.682  13.144  0.7898 -0.2586  0.5260
16389TIP3    H170658   2.994   4.618  13.085  1.4915  0.0842 -0.3584
16389TIP3    H270659   2.969   4.699  13.211  0.0232 -0.7483 -0.0919
16390TIP3   OH270660   4.421   6.065  14.429  0.4616  0.7151 -0.1012
16390TIP3    H170661   4.446   6.040  14.340  0.9093  1.5840 -0.2232
16390TIP3    H270662   4.325   6.073  14.424  0.2999 -0.7748 -0.0909
16391TIP3   OH270663   1.862   0.709  13.842 -0.0987  0.2370 -0.2200
16391TIP3    H170664   1.894   0.674  13.926  0.9750 -2.8867 -1.7742
16391TIP3    H270665   1.936   0.760  13.808  0.6171 -0.9705 -0.5465
16392TIP3   OH270666   5.680   4.829   1.247 -0.3699 -0.2135 -0.5301
16392TIP3    H170667   5.736   4.762   1.206  0.2875 -0.2179  0.3394
16392TIP3    H270668   5.742   4.885   1.295 -0.8696  1.2486 -1.5329
16393TIP3   OH270669   5.709   4.415  13.626 -0.5786  0.2762 -0.2878
16393TIP3    H170670   5.739   4.373  13.706  0.0628  0.7463 -0.2717
16393TIP3    H270671   5.616   4.393  13.621 -0.8333  0.9470  1.0342
16394TIP3   OH270672   3.681   5.578  14.636 -0.8094  0.3099 -0.6546
16394TIP3    H170673   3.761   5.621  14.606 -0.9860  1.2134  0.1214
16394TIP3    H270674   3.712   5.496  14.676 -0.1299  1.2093  0.7289
16395TIP3   OH270675   2.575   4.644  14.312  0.3959  0.1458  0.6350
16395TIP3    H170676   2.507   4.588  14.274  1.4786 -0.3803 -0.6600
16395TIP3    H270677   2.541   4.671  14.397 -2.0891  1.2009 -0.6042
16396TIP3   OH270678   3.113   2.353  13.841  0.2301  0.1315  0.1238
16396TIP3    H170679   3.020   2.362  13.862  0.4109  1.2021  0.5217
16396TIP3    H270680   3.133   2.261  13.861 -0.4362  0.2242  1.3478
16397TIP3   OH270681   3.896   0.530  15.937  0.2129 -0.3852  0.1270
16397TIP3    H170682   3.921   0.621  15.922  0.0116 -0.0195  1.8025
16397TIP3    H270683   3.843   0.533  16.017  1.6468 -2.1912  1.2156
16398TIP3   OH270684   2.287   2.311  13.614  0.0017  0.1287  0.0852
16398TIP3    H170685   2.223   2.342  13.678 -2.6431  0.0300 -2.3330
16398TIP3    H270686   2.327   2.391  13.580 -0.8513  0.3989 -0.3089
16399TIP3   OH270687   2.235   0.201   0.833  0.0213  0.4600 -0.5862
16399TIP3    H170688   2.161   0.192   0.893  1.0182  1.5545  0.8743
16399TIP3    H270689   2.293   0.129   0.856  0.4996  1.0001 -0.0670
16400TIP3   OH270690   6.439   1.567  11.316  0.2095 -0.2259 -0.4010
16400TIP3    H170691   6.386   1.637  11.354  1.1455 -0.8716  2.3455
16400TIP3    H270692   6.526   1.579  11.355  1.7215 -0.1380 -3.5412
16401TIP3   OH270693   1.470   0.708   2.859 -0.1421 -0.2437 -0.6088
16401TIP3    H170694   1.539   0.735   2.921  0.4788 -0.0930 -1.3521
16401TIP3    H270695   1.465   0.779   2.796  0.7797 -1.3334 -1.9876
16402TIP3   OH270696   2.601   6.549   1.546  0.1773 -0.1395  0.3755
16402TIP3    H170697   2.573   6.459   1.565 -1.8428 -0.1656 -2.1782
16402TIP3    H270698   2.665   6.569   1.615 -2.4020 -2.0024  3.6190
16403TIP3   OH270699   0.175   4.247  12.036  0.2147 -0.5002  0.3552
16403TIP3    H170700   0.215   4.335  12.036 -1.3380  0.2379  0.2858
16403TIP3    H270701   0.105   4.253  12.100  0.0626 -1.6993  0.3134
16404TIP3   OH270702   3.184   4.901  13.334 -0.2909  0.2641 -0.6791
16404TIP3    H170703   3.124   4.975  13.336 -0.8578 -0.1885 -0.5472
16404TIP3    H270704   3.129   4.826  13.309  0.9180  0.4907 -4.6729
16405TIP3   OH270705   5.766   3.390  14.180  0.8258  0.0529 -0.1577
16405TIP3    H170706   5.793   3.478  14.208  0.7603 -0.2706  0.9752
16405TIP3    H270707   5.748   3.344  14.262 -2.0585 -0.1007 -0.7640
16406TIP3   OH270708   5.193   6.302  16.328 -0.6725 -0.5293 -0.6619
16406TIP3    H170709   5.225   6.361  16.396  0.9032  0.3911 -2.1448
16406TIP3    H270710   5.233   6.217  16.349 -0.2114 -0.2545 -0.4227
16407TIP3   OH270711   5.076   2.597   0.339 -0.2169 -0.0018  0.0146
16407TIP3    H170712   5.062   2.669   0.278 -1.0405 -0.0921  0.0776
16407TIP3    H270713   5.013   2.530   0.310  1.0383 -0.9984 -0.5092
16408TIP3   OH270714   4.590   3.260  14.772 -0.0761 -0.1078 -0.0611
16408TIP3    H170715   4.569   3.278  14.864  0.0998  0.3193 -0.1035
16408TIP3    H270716   4.679   3.225  14.775  0.1461  0.4424 -0.1195
16409TIP3   OH270717   1.059   3.626   3.962  0.5361  0.3783  0.2783
16409TIP3    H170718   1.013   3.699   3.920 -1.1609 -0.3575  0.7605
16409TIP3    H270719   0.996   3.592   4.026  0.4070 -2.8138 -1.3546
16410TIP3   OH270720   1.984   5.543   0.999 -0.7797 -0.0525  0.2012
16410TIP3    H170721   2.077   5.562   1.007 -0.3997  0.1683 -3.2308
16410TIP3    H270722   1.941   5.628   1.014 -0.3680  0.0689  0.7204
16411TIP3   OH270723   6.368   4.210   5.977 -0.0881 -0.2743  0.4352
16411TIP3    H170724   6.372   4.133   6.034 -0.0122 -1.2981 -0.9085
16411TIP3    H270725   6.453   4.212   5.934 -0.2110  0.3736  0.2161
16412TIP3   OH270726   2.920   2.624   5.727  0.1828  0.1263 -0.1056
16412TIP3    H170727   3.010   2.617   5.761  0.0222  2.0100  0.7990
16412TIP3    H270728   2.928   2.680   5.650 -0.1574 -0.0823 -0.2924
16413TIP3   OH270729   5.642   4.965  16.750 -0.4880  0.0799  0.2657
16413TIP3    H170730   5.737   4.980  16.759 -0.7705  2.2548  0.2068
16413TIP3    H270731   5.617   5.018  16.674 -2.0741  1.2973  1.5680
16414TIP3   OH270732   0.614   5.922   4.236  0.4729  0.4052 -0.5179
16414TIP3    H170733   0.606   5.843   4.183 -1.6517  0.2797 -0.0818
16414TIP3    H270734   0.621   5.890   4.326 -0.7498  0.6853 -0.3054
16415TIP3   OH270735   0.162   5.146   3.030 -0.3402 -0.3360  0.2382
16415TIP3    H170736   0.233   5.202   2.997 -1.7501  0.0415 -2.4740
16415TIP3    H270737   0.124   5.196   3.102  1.0220  0.2806  0.5580
16416TIP3   OH270738   1.376   2.768   1.624  0.6148 -0.4006  0.3454
16416TIP3    H170739   1.464   2.774   1.663  0.7315  0.1584  0.0073
16416TIP3    H270740   1.316   2.776   1.699  0.8433 -1.0156  0.6085
16417TIP3   OH270741   3.336   0.644  11.492  0.0350  0.3025  0.3635
16417TIP3    H170742   3.254   0.688  11.516 -1.1575 -1.5756 -0.1058
16417TIP3    H270743   3.397   0.670  11.561 -2.0326 -1.2749  3.0045
16418TIP3   OH270744   6.103   2.016   1.175 -0.2596  0.5020  0.3035
16418TIP3    H170745   6.149   2.097   1.194  0.3393 -0.2322  2.1155
16418TIP3    H270746   6.080   1.980   1.260  0.1030 -1.5801 -0.4167
16419TIP3   OH270747   2.086   2.978  16.363 -0.7125 -0.6262 -0.3912
16419TIP3    H170748   2.086   2.979  16.267 -0.5601 -1.3580 -0.4076
16419TIP3    H270749   2.014   3.036  16.388 -0.5767 -0.2087 -0.9431
16420TIP3   OH270750   6.688   0.310   2.746  0.5200  0.6153 -0.3439
16420TIP3    H170751   6.630   0.300   2.671 -1.1550 -1.2731  1.0947
16420TIP3    H270752   6.656   0.389   2.791  0.4120  0.7568 -0.6671
16421TIP3   OH270753   0.462   6.308   3.088  0.1570  0.7351  0.2141
16421TIP3    H170754   0.491   6.303   2.998 -0.5588  0.4678 -0.0108
16421TIP3    H270755   0.438   6.400   3.100  0.8993  0.9182  0.3485
16422TIP3   OH270756   6.730   4.588   1.911  0.2475  0.3298  0.2725
16422TIP3    H170757   6.709   4.550   1.826 -3.0526  0.8979  0.6943
16422TIP3    H270758   6.799   4.532   1.946 -1.4982 -2.7906 -0.8558
16423TIP3   OH270759   0.516   3.338   3.081 -0.3646 -0.3355  0.1561
16423TIP3    H170760   0.453   3.370   3.145  1.0379  2.3063  0.3379
16423TIP3    H270761   0.467   3.336   2.999 -1.3310 -0.8058  0.7145
16424TIP3   OH270762   1.868   3.914   2.758 -0.4907  0.1939  0.4271
16424TIP3    H170763   1.888   3.966   2.836  1.5528 -0.7188  0.5771
16424TIP3    H270764   1.885   3.973   2.685  0.3562  0.2096  0.6277
16425TIP3   OH270765   0.530   5.580   0.113  0.3421 -0.0351 -0.1390
16425TIP3    H170766   0.452   5.630   0.138 -0.1081 -1.6285  1.9404
16425TIP3    H270767   0.512   5.492   0.145  2.9260 -0.4805  0.2431
16426TIP3   OH270768   0.253   4.798   0.460  0.1321 -0.1020 -0.1919
16426TIP3    H170769   0.223   4.779   0.371  1.4974 -1.0286 -0.4952
16426TIP3    H270770   0.233   4.718   0.510  1.3510 -0.4564 -0.2327
16427TIP3   OH270771   2.547   5.865  12.563  0.3483 -0.4286  0.2958
16427TIP3    H170772   2.634   5.868  12.525  0.9773 -1.1992  1.5843
16427TIP3    H270773   2.499   5.801  12.510  0.0329  1.1398 -1.3905
16428TIP3   OH270774   5.560   5.226   2.595 -0.2242 -0.0903 -0.2495
16428TIP3    H170775   5.499   5.294   2.624  0.6524 -0.3350  2.4878
16428TIP3    H270776   5.504   5.154   2.567 -1.1784  0.5301  0.0157
16429TIP3   OH270777   1.945   2.562  17.095 -1.1156 -0.2038  0.1478
16429TIP3    H170778   2.014   2.523  17.042 -1.3374 -1.7446  0.9172
16429TIP3    H270779   1.909   2.488  17.145 -2.5479  0.7592  0.6089
16430TIP3   OH270780   3.654   4.440  13.306  0.2259  0.1550  0.0666
16430TIP3    H170781   3.740   4.401  13.292 -0.0022  0.3638 -2.2469
16430TIP3    H270782   3.614   4.443  13.219 -1.6661  1.1212  0.9092
16431TIP3   OH270783   0.082   6.030  16.754 -0.5984  0.3418 -0.2846
16431TIP3    H170784   0.108   5.941  16.732 -1.0664  0.1361 -0.0035
16431TIP3    H270785   0.077   6.074  16.669 -1.6052 -0.2383 -0.5371
16432TIP3   OH270786   1.684   1.688  11.873  0.4726 -0.4397  0.3474
16432TIP3    H170787   1.686   1.683  11.969 -2.4107  1.9809  0.6803
16432TIP3    H270788   1.593   1.667  11.851  0.5242  1.2125 -1.6411
16433TIP3   OH270789   4.340   5.153  16.755 -0.6194  0.4532 -1.0803
16433TIP3    H170790   4.315   5.208  16.681 -3.0635  0.2795 -0.4655
16433TIP3    H270791   4.374   5.214  16.820 -0.5007  0.8621 -1.5208
16434TIP3   OH270792   3.339   3.329  11.002  0.0835 -0.5066 -0.5440
16434TIP3    H170793   3.330   3.234  11.004 -0.2116 -0.4726  0.0883
16434TIP3    H270794   3.284   3.357  10.928 -0.9676 -0.7256  0.1306
16435TIP3   OH270795   4.329   6.418   2.215  0.7829 -0.6883  0.1531
16435TIP3    H170796   4.311   6.325   2.225  1.2809 -0.7378  0.6213
16435TIP3    H270797   4.362   6.446   2.301  0.4216 -0.0334  0.0876
16436TIP3   OH270798   3.745   4.250   4.171 -0.1132 -0.2190  0.2138
16436TIP3    H170799   3.767   4.208   4.087  1.1946 -0.5427  0.6877
16436TIP3    H270800   3.770   4.341   4.158 -1.4728  0.0975 -0.2886
16437TIP3   OH270801   6.126   2.213  16.631 -0.4717  0.4443  0.0330
16437TIP3    H170802   6.111   2.151  16.559 -3.3512 -0.8188  1.5702
16437TIP3    H270803   6.059   2.280  16.620  0.1080  1.1386  0.6268
16438TIP3   OH270804   6.378   4.795  12.090  0.2139 -0.2202 -0.2014
16438TIP3    H170805   6.416   4.866  12.039 -1.4103  0.8330 -0.0077
16438TIP3    H270806   6.402   4.816  12.181  0.3527 -0.3107 -0.2185
16439TIP3   OH270807   0.419   1.075  15.974 -0.0080 -0.4754 -0.0404
16439TIP3    H170808   0.340   1.126  15.994  0.9867  0.8190  0.7191
16439TIP3    H270809   0.465   1.126  15.909  0.7931 -0.6139  0.4045
16440TIP3   OH270810   4.057   5.681   3.963  0.1034  0.1999  0.2044
16440TIP3    H170811   4.113   5.620   3.913  0.2960 -0.6108  1.3719
16440TIP3    H270812   3.968   5.650   3.947  0.0169  0.9650 -0.9540
16441TIP3   OH270813   4.786   1.552  15.569  0.3103 -0.0826  0.6034
16441TIP3    H170814   4.819   1.462  15.573  0.2190 -0.0850  1.3006
16441TIP3    H270815   4.747   1.567  15.655  0.7976  0.8178  0.6690
16442TIP3   OH270816   2.786   1.758  12.586  0.5796  0.2371  0.3491
16442TIP3    H170817   2.734   1.811  12.645 -1.4467 -0.3566 -0.7958
16442TIP3    H270818   2.782   1.804  12.502  1.4632 -0.0976  0.1086
16443TIP3   OH270819   1.782   5.459  11.960  0.5394  0.5632 -0.8355
16443TIP3    H170820   1.727   5.384  11.981 -0.5115  1.5663  0.1201
16443TIP3    H270821   1.748   5.492  11.877  1.2019 -0.1741 -1.4153
16444TIP3   OH270822   2.951   4.653  14.637  0.0841 -0.1244 -0.5298
16444TIP3    H170823   2.902   4.613  14.709  1.2608 -0.2535  0.2113
16444TIP3    H270824   3.043   4.637  14.658  0.5148  1.3070 -1.2010
16445TIP3   OH270825   3.959   1.147  13.214 -0.3059  0.7268  0.4523
16445TIP3    H170826   4.005   1.065  13.194 -0.2116  1.3123 -2.1671
16445TIP3    H270827   3.875   1.120  13.249  0.4505 -0.4278  1.4514
16446TIP3   OH270828   5.470   5.297   5.493 -0.1668 -0.1372  0.0601
16446TIP3    H170829   5.380   5.268   5.484  0.3751 -1.5844 -0.9549
16446TIP3    H270830   5.503   5.302   5.404  0.9681 -0.3300  0.4527
16447TIP3   OH270831   2.163   1.721   0.691 -0.1450  0.1864 -0.1595
16447TIP3    H170832   2.068   1.709   0.698 -0.0413 -0.6136  0.0299
16447TIP3    H270833   2.194   1.639   0.651  0.2985  1.0401 -1.6399
16448TIP3   OH270834   5.962   6.328   4.455  0.7162 -0.4747 -0.3630
16448TIP3    H170835   5.877   6.344   4.495  0.0745 -1.2132 -1.3736
16448TIP3    H270836   5.991   6.413   4.423  0.2569 -0.2500 -0.1840
16449TIP3   OH270837   1.185   1.938  16.679 -0.1384  0.0815 -0.4152
16449TIP3    H170838   1.148   1.991  16.608  0.8199  1.4634  0.0740
16449TIP3    H270839   1.279   1.936  16.661  0.0810  0.2228  0.6563
16450TIP3   OH270840   4.975   4.637   0.608  0.2355 -0.0518 -0.3062
16450TIP3    H170841   4.927   4.643   0.525 -1.9723 -1.0728  0.8254
16450TIP3    H270842   4.912   4.662   0.675  1.8412  0.3296  1.1555
16451TIP3   OH270843   6.134   3.747  11.843  0.3764  0.7732  0.1664
16451TIP3    H170844   6.195   3.705  11.782 -0.3678  0.0409 -0.1053
16451TIP3    H270845   6.189   3.799  11.901  1.2584  0.0637 -0.0139
16452TIP3   OH270846   1.695   4.439   0.813  0.1700 -0.5337 -0.8863
16452TIP3    H170847   1.776   4.468   0.855 -0.4010 -0.0676 -0.0941
16452TIP3    H270848   1.655   4.379   0.876 -1.6227  1.5912  0.1013
16453TIP3   OH270849   4.264   2.173  11.249  0.1951 -0.3832 -0.6109
16453TIP3    H170850   4.261   2.116  11.173  0.1826 -1.5619  0.2464
16453TIP3    H270851   4.358   2.184  11.267  0.1983 -0.1066 -0.7975
16454TIP3   OH270852   3.671   4.424  11.740 -0.2005  0.1700  0.1930
16454TIP3    H170853   3.650   4.501  11.793 -1.7766 -0.6370  0.8109
16454TIP3    H270854   3.732   4.373  11.795 -1.3312 -0.3537  0.9970
16455TIP3   OH270855   3.697   3.537  11.263 -0.1873  0.4000  0.1002
16455TIP3    H170856   3.658   3.517  11.349  0.1846  0.6886  0.3367
16455TIP3    H270857   3.651   3.479  11.203 -0.5463  0.2868  0.4751
16456TIP3   OH270858   4.172   2.773   5.797 -0.4728  0.4786  0.2369
16456TIP3    H170859   4.233   2.737   5.733  0.0931  0.5108  0.7549
16456TIP3    H270860   4.130   2.847   5.752 -0.4025  0.2279 -0.2424
16457TIP3   OH270861   1.928   0.932  11.364 -0.1840 -0.7547 -0.2109
16457TIP3    H170862   2.004   0.966  11.410  0.7219 -3.1621  0.2444
16457TIP3    H270863   1.952   0.842  11.340 -2.5198 -1.2882 -0.8935
16458TIP3   OH270864   1.010   5.350  16.968  0.1420 -0.3322  0.1398
16458TIP3    H170865   0.978   5.405  16.896  0.9765 -0.4678 -0.3493
16458TIP3    H270866   1.100   5.328  16.943  0.0399 -1.3793  0.6507
16459TIP3   OH270867   4.152   1.904   3.772 -0.2041  0.3687 -0.1628
16459TIP3    H170868   4.225   1.874   3.718 -0.2287 -0.1201  0.0708
16459TIP3    H270869   4.076   1.858   3.737 -0.2677  0.2694  0.1075
16460TIP3   OH270870   0.280   1.388   3.190 -0.3537  0.4902 -0.2907
16460TIP3    H170871   0.233   1.378   3.107 -0.2008 -2.3122 -0.1387
16460TIP3    H270872   0.211   1.390   3.256 -0.4208  1.3124 -0.3794
16461TIP3   OH270873   1.549   3.666   3.517 -0.1117  0.1547 -0.2192
16461TIP3    H170874   1.555   3.614   3.436 -3.8604 -1.2209  0.1589
16461TIP3    H270875   1.523   3.753   3.487  3.0958  1.0772 -0.6541
16462TIP3   OH270876   6.242   6.705   3.250 -0.1401  0.9013 -0.0581
16462TIP3    H170877   6.265   6.736   3.163  1.3648 -0.7433 -0.3018
16462TIP3    H270878   6.299   6.754   3.309 -0.2695  1.1060 -0.1008
16463TIP3   OH270879   5.284   5.274   5.118 -0.6684  0.1085 -0.0827
16463TIP3    H170880   5.236   5.232   5.190 -0.8492  1.7559  0.8144
16463TIP3    H270881   5.263   5.367   5.126  0.0038  0.4486 -1.7622
16464TIP3   OH270882   2.715   0.027   4.310  0.3314 -0.0006 -0.1222
16464TIP3    H170883   2.788   0.059   4.257 -0.1898  1.3956 -0.0378
16464TIP3    H270884   2.637   0.067   4.271 -0.2267 -0.2619  0.6964
16465TIP3   OH270885   0.995   1.048   4.290  0.5912  0.7610  0.2201
16465TIP3    H170886   0.951   0.996   4.222  2.4772 -0.3625 -0.2217
16465TIP3    H270887   1.034   0.982   4.348  1.3143  1.6997  0.8190
16466TIP3   OH270888   6.393   1.549   5.265  0.0347 -0.5878 -0.1317
16466TIP3    H170889   6.363   1.573   5.352 -2.2649 -1.6991 -0.5370
16466TIP3    H270890   6.429   1.461   5.275  3.1661  0.6223  0.2929
16467TIP3   OH270891   5.010   3.678  12.277 -0.0765  0.1777  0.1129
16467TIP3    H170892   4.976   3.754  12.324  0.8323  2.3462 -2.5260
16467TIP3    H270893   5.091   3.657  12.322  0.8773  2.3251 -0.4713
16468TIP3   OH270894   0.514   2.844  12.046 -0.5371 -0.4027  0.2900
16468TIP3    H170895   0.448   2.810  11.987 -1.1683 -0.4527  1.0069
16468TIP3    H270896   0.594   2.798  12.022 -1.4662 -2.8685  1.6008
16469TIP3   OH270897   2.241   4.407   2.428  1.1826 -0.6703 -0.0214
16469TIP3    H170898   2.195   4.353   2.364 -0.6291  0.5611  0.1598
16469TIP3    H270899   2.253   4.491   2.385 -0.2491  0.2471  1.2647
16470TIP3   OH270900   4.252   6.669  10.758 -0.3545  0.2224  0.4554
16470TIP3    H170901   4.256   6.573  10.759 -1.2715  0.1717  0.7403
16470TIP3    H270902   4.170   6.689  10.713 -0.4863  0.8599  0.9593
16471TIP3   OH270903   3.714   4.812   3.152  0.4550 -0.1497  0.0410
16471TIP3    H170904   3.655   4.773   3.088  0.6535  0.9223 -0.8141
16471TIP3    H270905   3.656   4.853   3.217  0.2465  0.8476 -0.7623
16472TIP3   OH270906   2.639   1.446  17.063  0.5445  0.4066  0.0968
16472TIP3    H170907   2.660   1.463  17.155 -1.0340  2.0556  0.2091
16472TIP3    H270908   2.557   1.398  17.065  0.4268  0.5712 -0.4406
16473TIP3   OH270909   1.903   2.750   2.947 -0.3518 -0.1660  0.2786
16473TIP3    H170910   1.994   2.774   2.960 -0.5818  1.3013 -0.6298
16473TIP3    H270911   1.855   2.796   3.016 -0.4572 -0.6837  0.5614
16474TIP3   OH270912   0.178   0.117   0.758 -0.0703 -0.1440 -0.3178
16474TIP3    H170913   0.256   0.066   0.738  1.0616  1.2246  0.3998
16474TIP3    H270914   0.141   0.141   0.673  0.2363 -0.8746 -0.6583
16475TIP3   OH270915   2.527   6.434  10.806 -0.3147 -0.3888 -0.3088
16475TIP3    H170916   2.454   6.457  10.865  1.4057  0.9923  1.3994
16475TIP3    H270917   2.552   6.517  10.766  0.1064 -0.9146 -1.1451
16476TIP3   OH270918   3.489   5.687  12.270 -0.0871 -0.3738 -0.2985
16476TIP3    H170919   3.578   5.720  12.259 -0.5539  1.1080  0.1797
16476TIP3    H270920   3.453   5.686  12.181  0.5253 -1.3574 -0.5423
16477TIP3   OH270921   4.573   6.032   1.640  0.3191  0.5282  0.4754
16477TIP3    H170922   4.534   6.119   1.649  0.0675  0.4968 -0.2522
16477TIP3    H270923   4.558   6.008   1.548 -0.2641 -0.5916  0.8362
16478TIP3   OH270924   3.355   0.214  16.579 -0.4174  0.0798  0.2031
16478TIP3    H170925   3.437   0.244  16.540 -0.3258 -2.1039 -1.4541
16478TIP3    H270926   3.378   0.192  16.669  0.0659  2.3161  0.6926
16479TIP3   OH270927   5.542   4.190  16.070  0.2307 -0.1248  0.3604
16479TIP3    H170928   5.512   4.100  16.083 -0.0471 -0.2497 -1.0203
16479TIP3    H270929   5.626   4.194  16.116  0.2453 -1.0833  0.4389
16480TIP3   OH270930   4.148   6.064   5.432 -0.4398  0.6364 -0.4825
16480TIP3    H170931   4.189   6.019   5.505 -1.3489 -0.9438 -0.9171
16480TIP3    H270932   4.106   6.141   5.471 -1.0541 -0.2772  0.6890
16481TIP3   OH270933   5.509   3.595   4.474  1.1078 -0.2854 -0.3388
16481TIP3    H170934   5.437   3.551   4.519 -1.8714  1.6195 -2.8765
16481TIP3    H270935   5.527   3.539   4.398  1.6359 -0.2183 -0.2673
16482TIP3   OH270936   2.755   1.587   2.278  0.0402  0.0664  0.8190
16482TIP3    H170937   2.684   1.575   2.341  0.7487  0.5197  1.7425
16482TIP3    H270938   2.781   1.498   2.253 -0.8514 -0.1019  0.4544
16483TIP3   OH270939   2.602   0.085  13.706  0.0537  0.0580  0.4642
16483TIP3    H170940   2.689   0.124  13.698  0.0373 -0.1158 -0.7405
16483TIP3    H270941   2.550   0.151  13.752  0.4563  0.7687 -0.0809
16484TIP3   OH270942   0.218   3.083   0.835  0.5733  0.3392 -0.2932
16484TIP3    H170943   0.309   3.055   0.823  0.3549  0.0157 -1.2981
16484TIP3    H270944   0.194   3.050   0.922  0.9519 -0.8973 -0.6357
16485TIP3   OH270945   2.829   2.988   3.242 -0.0652  0.4204 -0.4628
16485TIP3    H170946   2.797   2.936   3.316 -0.1835  1.6421  0.3803
16485TIP3    H270947   2.797   3.077   3.260  0.6489  0.9136 -1.5376
16486TIP3   OH270948   5.206   6.629   3.774 -0.6770 -0.1642  0.4773
16486TIP3    H170949   5.199   6.575   3.695  0.0335 -0.3514  0.5378
16486TIP3    H270950   5.117   6.661   3.788 -1.5544 -2.7407  1.4317
16487TIP3   OH270951   3.026   3.119  13.435 -0.4927  0.4533  0.0863
16487TIP3    H170952   3.053   3.123  13.526 -2.3766 -0.0048  0.7101
16487TIP3    H270953   2.988   3.032  13.425 -0.0552  0.3914 -1.2207
16488TIP3   OH270954   5.269   0.684   0.716 -0.2060  0.2601  0.1871
16488TIP3    H170955   5.247   0.592   0.729 -0.8070  0.3918  0.1094
16488TIP3    H270956   5.193   0.732   0.748 -0.0500  0.7198 -0.1239
16489TIP3   OH270957   5.886   0.699   5.438  0.2328 -0.4175 -0.0420
16489TIP3    H170958   5.842   0.662   5.514  1.6469 -0.1068  0.9574
16489TIP3    H270959   5.958   0.640   5.420  0.8940  0.3917 -0.1069
16490TIP3   OH270960   3.122   0.540   3.873  1.0239  0.4518  0.5112
16490TIP3    H170961   3.056   0.578   3.932  1.0602  0.6433  0.4285
16490TIP3    H270962   3.133   0.606   3.805 -0.3135 -0.4931 -0.6878
16491TIP3   OH270963   0.446   0.066  10.915  0.3748  0.8650 -0.1160
16491TIP3    H170964   0.542   0.066  10.913  0.6058 -1.7698  2.9707
16491TIP3    H270965   0.421  -0.007  10.859 -0.0555  2.5825 -2.3117
16492TIP3   OH270966   4.437   4.976   0.142  0.0827  0.1901 -0.1777
16492TIP3    H170967   4.473   4.914   0.206 -0.4464  1.5685  1.5279
16492TIP3    H270968   4.362   4.929   0.104 -1.2896  0.2430  2.2293
16493TIP3   OH270969   4.127   5.408  15.802  0.1490 -0.3170  0.1852
16493TIP3    H170970   4.096   5.344  15.738 -0.4327  0.7216 -0.5919
16493TIP3    H270971   4.135   5.358  15.883  2.4803 -2.0407 -1.0227
16494TIP3   OH270972   0.618   3.233  12.303 -0.8296 -0.1208  0.1463
16494TIP3    H170973   0.595   3.207  12.393 -1.4748 -1.2131 -0.3128
16494TIP3    H270974   0.713   3.243  12.304 -0.7143 -1.1203  0.7186
16495TIP3   OH270975   2.906   3.723  12.008  0.3428 -0.7278 -0.0712
16495TIP3    H170976   2.929   3.730  12.101  1.9388  0.7166 -0.5208
16495TIP3    H270977   2.810   3.729  12.007  0.1999 -1.7935  1.5241
16496TIP3   OH270978   0.887   4.054  15.915 -0.1905 -0.2801  0.0883
16496TIP3    H170979   0.921   4.086  15.831 -1.9885  1.1450 -0.1693
16496TIP3    H270980   0.920   4.116  15.980  3.0480 -2.6060  0.8870
16497TIP3   OH270981   1.495   4.088  14.097  0.5350 -0.3088  0.5389
16497TIP3    H170982   1.507   4.017  14.160  1.1464  0.2240  1.0293
16497TIP3    H270983   1.424   4.058  14.041  1.0001 -1.4566  0.5385
16498TIP3   OH270984   6.259   3.683  16.378 -0.2320  0.2512 -0.0878
16498TIP3    H170985   6.242   3.615  16.313 -4.6950  1.7264 -0.8209
16498TIP3    H270986   6.193   3.668  16.446 -1.7291  3.9336 -0.5020
16499TIP3   OH270987   0.374   2.653   0.253  0.2224 -0.3729 -0.1896
16499TIP3    H170988   0.419   2.702   0.321  0.0474  1.9637 -1.6425
16499TIP3    H270989   0.285   2.689   0.253  0.3551  0.0455 -1.9298
16500TIP3   OH270990   4.839   2.581   1.126  0.0961 -0.2359  0.5823
16500TIP3    H170991   4.882   2.622   1.051 -0.5156  1.0458  0.9083
16500TIP3    H270992   4.909   2.533   1.170  0.8674  0.5421  0.2380
16501TIP3   OH270993   1.941   6.553  14.391  0.1388  0.0468 -0.1019
16501TIP3    H170994   1.913   6.630  14.441  0.3987  0.8908 -1.2006
16501TIP3    H270995   2.002   6.508  14.448  0.9035  1.3183  0.1269
16502TIP3   OH270996   2.138   4.744  13.869 -0.3870  0.1521  0.1408
16502TIP3    H170997   2.154   4.680  13.800 -2.9278 -1.6917  1.0861
16502TIP3    H270998   2.070   4.801  13.834 -0.4161  0.3293  0.4759
16503TIP3   OH270999   1.660   4.671   5.212  0.2367  0.2531 -0.0673
16503TIP3    H171000   1.647   4.632   5.299  0.5389  0.1314 -0.0778
16503TIP3    H271001   1.578   4.718   5.195  0.2500  0.4414  0.3674
16504TIP3   OH271002   3.427   2.568   0.608  0.4319  0.2326  0.2993
16504TIP3    H171003   3.377   2.553   0.688 -0.5705  3.7638  0.5302
16504TIP3    H271004   3.426   2.484   0.562 -4.5524 -0.3774  0.9686
16505TIP3   OH271005   4.777   2.663  14.519 -0.0180  0.1617  0.2056
16505TIP3    H171006   4.837   2.735  14.541 -0.1585  0.5346 -0.6227
16505TIP3    H271007   4.697   2.683  14.568 -0.5075  1.2609 -1.0005
16506TIP3   OH271008   5.752   1.706   2.346  0.1108 -0.1626  0.7590
16506TIP3    H171009   5.838   1.716   2.387 -0.2116  0.2131  1.3621
16506TIP3    H271010   5.711   1.792   2.357 -0.4228 -0.4031  0.6500
16507TIP3   OH271011   6.194   5.192  16.095  0.1581  0.7604  0.0512
16507TIP3    H171012   6.166   5.106  16.064 -0.6022  1.3335 -0.8736
16507TIP3    H271013   6.254   5.223  16.028 -0.8531  1.6527 -0.4536
16508TIP3   OH271014   0.704   2.885  11.318 -0.3828 -0.0129 -0.0916
16508TIP3    H171015   0.697   2.943  11.242  1.7122 -0.0260 -0.3522
16508TIP3    H271016   0.664   2.934  11.389  2.0721  2.2401 -0.1034
16509TIP3   OH271017   3.503   2.950   3.647 -0.7480  0.1592 -0.0821
16509TIP3    H171018   3.587   2.904   3.642 -0.7378 -0.0232  1.2944
16509TIP3    H271019   3.526   3.042   3.633 -0.1192  0.2610  1.4023
16510TIP3   OH271020   0.779   2.699  12.960  0.4058  0.3586 -0.4951
16510TIP3    H171021   0.822   2.672  13.041  2.2434  0.8325 -1.2580
16510TIP3    H271022   0.686   2.687  12.977  0.7819 -0.1132  1.4674
16511TIP3   OH271023   3.338   4.423   2.216  0.4835  0.2850  0.5705
16511TIP3    H171024   3.337   4.349   2.156  0.0736 -0.7294  1.7908
16511TIP3    H271025   3.297   4.391   2.295  1.5999  1.3864  1.6494
16512TIP3   OH271026   4.467   2.778  15.435 -0.5455  0.0426 -0.4449
16512TIP3    H171027   4.505   2.726  15.506 -0.8259 -0.6058 -0.7503
16512TIP3    H271028   4.510   2.863  15.439  1.8498 -1.0327 -1.5469
16513TIP3   OH271029   0.460   5.807   2.246 -0.7966 -0.1957 -0.4869
16513TIP3    H171030   0.376   5.765   2.264 -0.6414  0.3043  1.6988
16513TIP3    H271031   0.445   5.900   2.262  0.5945 -0.3053  1.8582
16514TIP3   OH271032   2.265   5.532  11.092 -0.1586 -0.3726 -0.0937
16514TIP3    H171033   2.264   5.441  11.062  1.5982  0.2386 -2.2376
16514TIP3    H271034   2.357   5.550  11.112 -0.5859  0.7484  0.9792
16515TIP3   OH271035   5.436   6.018   3.624  0.5708  0.1841 -0.2037
16515TIP3    H171036   5.398   6.098   3.590  1.1907 -0.0946 -1.6213
16515TIP3    H271037   5.516   6.047   3.669  0.3277  0.4477  0.0605
16516TIP3   OH271038   0.146   4.278   3.639  0.9026 -0.1487 -0.0332
16516TIP3    H171039   0.115   4.240   3.722  2.9366 -0.4308  0.6443
16516TIP3    H271040   0.182   4.204   3.590  0.1140  0.0935 -1.0255
16517TIP3   OH271041   3.035   3.607   4.025  1.0020 -0.0075 -0.1447
16517TIP3    H171042   3.063   3.574   3.940 -0.4796 -0.1353 -0.6156
16517TIP3    H271043   2.962   3.550   4.050  1.1216  0.3188  0.9972
16518TIP3   OH271044   4.929   1.460  16.494 -0.4271 -0.4300 -0.5391
16518TIP3    H171045   4.874   1.382  16.480 -0.6524 -0.2404 -0.7307
16518TIP3    H271046   4.866   1.531  16.504 -0.2182 -0.2558 -0.4669
16519TIP3   OH271047   4.602   4.953  14.000 -0.3007  0.6658  0.0356
16519TIP3    H171048   4.539   5.024  14.014 -0.2384  1.0991 -1.7310
16519TIP3    H271049   4.547   4.877  13.982 -0.3501  0.3506  1.3670
16520TIP3   OH271050   1.690   2.707  14.937  0.8344  0.3731  0.4825
16520TIP3    H171051   1.621   2.760  14.897 -1.3574 -2.6164 -0.0953
16520TIP3    H271052   1.658   2.691  15.026  0.8004 -0.9601  0.2447
16521TIP3   OH271053   2.348   3.438  12.728  0.5951  0.1573 -0.9614
16521TIP3    H171054   2.404   3.368  12.762  1.5964  1.6400  0.6254
16521TIP3    H271055   2.265   3.395  12.708  0.3654 -1.1530  2.2074
16522TIP3   OH271056   1.026   0.905   2.508 -0.3437  0.5555  0.7491
16522TIP3    H171057   0.954   0.843   2.523  0.0393 -0.0829  0.0130
16522TIP3    H271058   1.008   0.977   2.568 -1.9067  0.6726  0.1804
16523TIP3   OH271059   0.273   4.834   1.394 -0.0423  0.1013 -0.8225
16523TIP3    H171060   0.193   4.813   1.442 -0.1694  0.4264 -0.8923
16523TIP3    H271061   0.243   4.871   1.311  0.1284 -2.0550 -1.9355
16524TIP3   OH271062   5.896   1.847  14.815  0.1771 -0.1778 -0.3190
16524TIP3    H171063   5.817   1.794  14.808  0.8749 -1.1371 -1.2719
16524TIP3    H271064   5.964   1.796  14.770  1.1448  1.0024 -0.2716
16525TIP3   OH271065   5.031   1.157  10.712  0.5382 -0.2241  0.6389
16525TIP3    H171066   4.988   1.074  10.694  0.9432  0.1346 -2.6304
16525TIP3    H271067   5.124   1.136  10.715  0.8129  0.2341 -2.0581
16526TIP3   OH271068   0.417   6.829   1.596 -0.1792 -0.1427  0.0100
16526TIP3    H171069   0.429   6.734   1.591  1.9146  0.1138 -0.9524
16526TIP3    H271070   0.485   6.865   1.538 -0.9505  1.9460  0.3145
16527TIP3   OH271071   6.169   1.261   5.337 -0.4375 -0.5017  0.5483
16527TIP3    H171072   6.165   1.200   5.264  0.8403  1.0354 -0.9041
16527TIP3    H271073   6.166   1.348   5.296 -2.0581  0.4462  2.5105
16528TIP3   OH271074   5.371   5.241   2.079 -0.5320  0.4861 -0.3811
16528TIP3    H171075   5.288   5.252   2.125 -0.0310  2.4139  0.1572
16528TIP3    H271076   5.368   5.305   2.008  0.4277  0.4711 -0.4483
16529TIP3   OH271077   3.040   0.563   4.856  0.0495 -0.1633  0.0939
16529TIP3    H171078   3.091   0.485   4.876  0.3100 -0.1297 -0.4115
16529TIP3    H271079   2.994   0.584   4.937 -0.2831 -1.0350  0.1277
16530TIP3   OH271080   3.474   0.656  17.070 -0.2211 -0.2447 -0.0780
16530TIP3    H171081   3.547   0.692  17.020  0.5905 -0.9828  0.5198
16530TIP3    H271082   3.469   0.565  17.042 -0.1893 -0.4871  0.6805
16531TIP3   OH271083   0.993   5.429   1.072  0.4688 -0.4754 -0.0837
16531TIP3    H171084   0.908   5.469   1.055  0.8754  0.7475  0.5894
16531TIP3    H271085   1.021   5.467   1.155  1.4148 -1.3080  0.0028
16532TIP3   OH271086   1.892   5.227   4.660 -0.7146 -0.1765  0.1227
16532TIP3    H171087   1.966   5.272   4.620 -0.7702  0.8302  1.1198
16532TIP3    H271088   1.815   5.265   4.619 -0.7412  0.1875  0.5084
16533TIP3   OH271089   1.875   1.000  14.876 -0.1734  0.6074  0.1934
16533TIP3    H171090   1.894   0.911  14.844  0.0404  0.2393  1.3117
16533TIP3    H271091   1.788   1.020  14.840 -0.6531 -0.4492  0.7170
16534TIP3   OH271092   5.659   2.860  16.433 -0.3763  0.0394 -0.5563
16534TIP3    H171093   5.581   2.874  16.380 -0.2994  1.1438 -0.3973
16534TIP3    H271094   5.690   2.948  16.453  1.8713 -0.3657 -1.9980
16535TIP3   OH271095   3.207   0.540   1.187  0.5055 -0.0469  0.6815
16535TIP3    H171096   3.211   0.447   1.207  1.4642 -0.3081 -0.6109
16535TIP3    H271097   3.120   0.553   1.149  0.8902 -0.7144 -0.4676
16536TIP3   OH271098   6.308   5.517  14.924  0.2894 -0.5252 -0.0571
16536TIP3    H171099   6.267   5.455  14.864 -4.0565  0.6632  1.2850
16536TIP3    H271100   6.278   5.491  15.011  0.3618  1.9238  0.7924
16537TIP3   OH271101   5.189   0.529   1.111 -0.1884  0.1939  0.3924
16537TIP3    H171102   5.253   0.582   1.064 -1.2032 -1.5185 -3.2563
16537TIP3    H271103   5.142   0.591   1.166  1.8421  2.1492  0.0681
16538TIP3   OH271104   0.089   0.666   2.363 -0.2052 -0.2246  0.0438
16538TIP3    H171105   0.020   0.659   2.429  0.7159  0.8624  1.1778
16538TIP3    H271106   0.132   0.581   2.364  0.0921 -0.0820  1.2175
16539TIP3   OH271107   3.178   0.867   4.451 -0.0799  0.3303  0.1967
16539TIP3    H171108   3.219   0.808   4.514 -0.9038  0.9198  1.3124
16539TIP3    H271109   3.086   0.841   4.449 -0.1759  0.6912 -0.3353
16540TIP3   OH271110   5.880   2.721   4.468 -0.2325 -0.6024 -0.2446
16540TIP3    H171111   5.927   2.728   4.385 -0.2641  1.4156 -0.1484
16540TIP3    H271112   5.799   2.675   4.446 -1.6544  2.4387 -2.0559
16541TIP3   OH271113   3.477   5.526   3.819 -0.6916 -0.1623  0.0382
16541TIP3    H171114   3.571   5.543   3.827 -1.1575  1.8219  2.3501
16541TIP3    H271115   3.471   5.431   3.806  1.6347 -0.2018 -1.2764
16542TIP3   OH271116   3.572   4.459  14.029 -0.2463  0.2040 -0.2053
16542TIP3    H171117   3.616   4.374  14.039 -1.1888 -0.3741 -0.8326
16542TIP3    H271118   3.569   4.494  14.118  2.9132  1.0528 -0.2993
16543TIP3   OH271119   0.258   4.484   0.035  0.0427 -0.5150  0.6100
16543TIP3    H171120   0.324   4.443   0.091  0.0301 -0.2229  0.8408
16543TIP3    H271121   0.194   4.414   0.018 -0.2395 -0.4571  1.4100
16544TIP3   OH271122   5.624   5.305   4.347 -0.1398  0.2017  0.2223
16544TIP3    H171123   5.702   5.290   4.294 -0.2483  0.7490 -0.1018
16544TIP3    H271124   5.555   5.325   4.283 -0.5516 -0.3011  0.5027
16545TIP3   OH271125   1.802   6.125  13.166  0.2351  0.2546  0.5519
16545TIP3    H171126   1.819   6.154  13.255 -1.2122  0.8664  0.6442
16545TIP3    H271127   1.780   6.204  13.118 -0.3464 -0.2480 -0.0275
16546TIP3   OH271128   2.580   1.570   5.437  0.0101 -0.4345 -0.4465
16546TIP3    H171129   2.518   1.580   5.510 -0.8583  2.6224 -1.4473
16546TIP3    H271130   2.525   1.550   5.361  0.2051  1.7651 -1.2372
16547TIP3   OH271131   4.483   6.294  14.675  0.4291 -0.7242 -0.1762
16547TIP3    H171132   4.477   6.335  14.761 -1.1664 -0.7939 -0.2344
16547TIP3    H271133   4.422   6.343  14.620 -0.4593 -2.2625 -0.6068
16548TIP3   OH271134   1.644   6.545   1.772  0.1834 -0.5197  0.0005
16548TIP3    H171135   1.631   6.562   1.865 -0.0377 -0.6183 -0.0120
16548TIP3    H271136   1.735   6.572   1.755 -0.7406  2.6855 -0.4944
16549TIP3   OH271137   3.349   6.810   1.851 -0.1995 -0.4447  0.1396
16549TIP3    H171138   3.324   6.896   1.816 -1.0175  1.2582  4.3193
16549TIP3    H271139   3.435   6.824   1.889 -0.6557 -1.2251  1.5140
16550TIP3   OH271140   3.802   1.257  16.801  0.1870  0.4997  0.1010
16550TIP3    H171141   3.737   1.188  16.813 -0.1187  0.9912  1.5287
16550TIP3    H271142   3.857   1.227  16.729 -0.3573 -0.8973  0.2408
16551TIP3   OH271143   6.754   1.521   1.022 -0.3397 -0.1702 -0.1101
16551TIP3    H171144   6.661   1.508   1.039 -0.5559  1.3469  0.0073
16551TIP3    H271145   6.787   1.566   1.100  0.2891  0.1167 -0.5307
16552TIP3   OH271146   2.128   4.429   1.324 -0.0452  0.0038 -0.2424
16552TIP3    H171147   2.091   4.347   1.360 -0.9148 -0.1070 -1.3270
16552TIP3    H271148   2.073   4.498   1.362  0.0613  0.0080 -0.0965
16553TIP3   OH271149   3.372   4.235   3.315  0.0362  0.1235  0.5196
16553TIP3    H171150   3.328   4.314   3.283  0.4341  0.4413  0.7470
16553TIP3    H271151   3.457   4.237   3.272  0.5868  0.5638  1.6040
16554TIP3   OH271152   2.684   4.203   3.605 -0.7925 -0.5224  0.2688
16554TIP3    H171153   2.764   4.153   3.625 -1.5210 -1.2765  1.3958
16554TIP3    H271154   2.716   4.279   3.555  0.5939 -0.9636  0.4246
16555TIP3   OH271155   0.618   5.406   2.151 -0.0163  0.6687  0.2984
16555TIP3    H171156   0.581   5.439   2.233 -1.3403  1.7384 -0.6758
16555TIP3    H271157   0.580   5.462   2.084  0.1576 -0.8816 -1.1608
16556TIP3   OH271158   1.441   3.871  13.877  0.0405  0.5529  0.1130
16556TIP3    H171159   1.498   3.937  13.838 -1.8255  2.3795  0.2864
16556TIP3    H271160   1.498   3.822  13.937  2.3710 -0.6397 -2.8373
16557TIP3   OH271161   4.482   2.962  11.020 -0.4230  0.0118 -0.0677
16557TIP3    H171162   4.576   2.971  11.036 -0.1908 -1.5489 -0.4352
16557TIP3    H271163   4.459   3.041  10.971  0.8405  0.0853 -0.5804
16558TIP3   OH271164   5.277   0.742   0.185 -0.1415 -0.3727 -1.0919
16558TIP3    H171165   5.276   0.742   0.281 -0.6735 -1.6557 -1.0843
16558TIP3    H271166   5.203   0.797   0.160  1.8899  2.7736 -0.8374
16559TIP3   OH271167   5.628   0.584  10.928 -0.3334  0.1504 -0.1138
16559TIP3    H171168   5.651   0.607  10.838  0.5250  0.3288  0.1397
16559TIP3    H271169   5.610   0.490  10.924  3.4332 -0.7259  0.1710
16560TIP3   OH271170   6.194   0.624  16.545 -1.0528 -0.0309  0.0704
16560TIP3    H171171   6.155   0.695  16.596  1.4141  1.6620 -0.2301
16560TIP3    H271172   6.132   0.608  16.474 -2.1443  1.0812  0.7344
16561TIP3   OH271173   2.389   6.121  14.216 -0.0490  0.7613  0.5148
16561TIP3    H171174   2.386   6.039  14.265  0.9640  0.8969  0.8207
16561TIP3    H271175   2.381   6.190  14.282  1.2308  0.9423  0.5127
16562TIP3   OH271176   5.601   2.279   3.681  0.3244  0.4269  0.5322
16562TIP3    H171177   5.592   2.231   3.599  2.7268 -1.2077  1.1126
16562TIP3    H271178   5.676   2.337   3.667  0.6286  0.2854  1.4682
16563TIP3   OH271179   2.967   2.822   3.053 -0.6346  0.3831  0.3118
16563TIP3    H171180   2.908   2.750   3.033 -1.1171  0.6000  0.9270
16563TIP3    H271181   2.926   2.867   3.127 -0.2995  1.2338 -0.0086
16564TIP3   OH271182   4.877   6.518   5.072 -0.0014 -0.3397  0.2664
16564TIP3    H171183   4.904   6.579   5.140 -0.4222  0.2787 -0.1046
16564TIP3    H271184   4.952   6.461   5.059  0.2842 -0.1038  0.8485
16565TIP3   OH271185   5.317   0.100   5.287  0.2402 -0.1188  0.4507
16565TIP3    H171186   5.322   0.145   5.371 -1.0324 -0.3146  0.6527
16565TIP3    H271187   5.282   0.166   5.226 -1.0811 -0.6383  0.6194
16566TIP3   OH271188   4.978   5.851  14.598 -0.2478 -0.7055 -0.2851
16566TIP3    H171189   5.004   5.943  14.605 -2.3610 -0.0049 -0.9615
16566TIP3    H271190   5.057   5.806  14.567  1.3552  0.5361  1.7649
16567TIP3   OH271191   0.250   3.762  12.786 -0.0531  0.1416 -0.7889
16567TIP3    H171192   0.330   3.717  12.758 -0.1229  0.2327 -1.1361
16567TIP3    H271193   0.278   3.852  12.804  0.8380 -0.7342  3.2416
16568TIP3   OH271194   4.222   5.873  12.327 -0.2215  0.3228  0.4027
16568TIP3    H171195   4.241   5.918  12.409  0.5006  0.9054 -0.0661
16568TIP3    H271196   4.152   5.811  12.348  0.9578 -0.5860  1.7990
16569TIP3   OH271197   4.795   1.002  13.999 -0.4963 -0.1055  0.1877
16569TIP3    H171198   4.743   1.031  14.074  0.5823  1.6032  0.3264
16569TIP3    H271199   4.731   0.990  13.929 -1.2495  0.4511  0.7679
16570TIP3   OH271200   1.698   5.725  12.860  0.0578 -0.5363  0.2493
16570TIP3    H171201   1.728   5.657  12.800 -0.4652  0.3954 -1.1086
16570TIP3    H271202   1.608   5.742  12.833 -0.3453 -0.4055  1.6070
16571TIP3   OH271203   0.679   3.809  11.365 -0.2786  0.1124 -0.1570
16571TIP3    H171204   0.714   3.845  11.284  0.3417  1.8672  0.8510
16571TIP3    H271205   0.706   3.870  11.433  0.2915 -1.9295  1.5921
16572TIP3   OH271206   0.459   5.632   0.435  0.0755 -0.2054  0.7070
16572TIP3    H171207   0.427   5.569   0.371  1.0279 -2.3121  2.1817
16572TIP3    H271208   0.528   5.680   0.390 -0.9828  0.1300 -0.5949
16573TIP3   OH271209   2.371   0.335  11.618  0.6244  0.6331 -0.5689
16573TIP3    H171210   2.438   0.284  11.665 -1.3026  1.7979  4.0642
16573TIP3    H271211   2.299   0.273  11.605  0.7863  0.5461 -1.0310
16574TIP3   OH271212   1.555   3.450  14.309 -0.1176 -0.2851 -0.0753
16574TIP3    H171213   1.501   3.484  14.381 -0.1123 -0.9750  0.2631
16574TIP3    H271214   1.616   3.521  14.289 -1.2656  0.5996 -0.5979
16575TIP3   OH271215   4.413   6.376   2.496 -0.3251  0.1220 -0.0268
16575TIP3    H171216   4.370   6.453   2.533 -3.0025 -0.7690 -1.0443
16575TIP3    H271217   4.403   6.308   2.563 -0.5021 -0.0727 -0.2452
16576TIP3   OH271218   6.341   0.320  15.627 -0.2479  0.1601  0.1296
16576TIP3    H171219   6.340   0.254  15.696 -0.5698 -0.3712 -0.3786
16576TIP3    H271220   6.277   0.290  15.563 -1.4412  1.6993  0.5510
16577TIP3   OH271221   4.226   1.823  12.040 -0.0824  0.0447 -0.1398
16577TIP3    H171222   4.143   1.848  12.083  0.8015  0.8711  1.1636
16577TIP3    H271223   4.225   1.869  11.957 -1.8814 -1.6450 -1.1480
16578TIP3   OH271224   1.024   4.804  15.425  0.5876 -0.9466 -0.2273
16578TIP3    H171225   1.080   4.829  15.498 -1.7305  0.8865  1.0748
16578TIP3    H271226   1.012   4.710  15.433  1.3767 -0.9490  1.0083
16579TIP3   OH271227   0.873   4.605  11.283 -0.1867 -0.2803  0.0410
16579TIP3    H171228   0.938   4.671  11.261  0.1726 -0.2108  1.2723
16579TIP3    H271229   0.922   4.523  11.284 -0.7545 -0.7186 -2.1473
16580TIP3   OH271230   4.828   1.383  16.950 -0.6154  0.4973  0.3064
16580TIP3    H171231   4.757   1.413  16.893 -0.9452 -2.1819 -0.8163
16580TIP3    H271232   4.886   1.334  16.892  0.1434 -0.5618  1.9021
16581TIP3   OH271233   5.596   0.496  11.216  0.6041  0.3446 -0.2800
16581TIP3    H171234   5.566   0.567  11.272  0.0364 -0.6994  0.7910
16581TIP3    H271235   5.602   0.535  11.128 -2.1434  1.1003 -0.2296
16582TIP3   OH271236   6.315   6.613  12.924 -0.2882  0.2732 -0.3563
16582TIP3    H171237   6.223   6.628  12.946 -0.3474 -0.2205 -0.2601
16582TIP3    H271238   6.360   6.693  12.952 -0.2726 -0.4975  2.0270
16583TIP3   OH271239   0.569   4.578  14.576  0.3665 -0.3746 -0.2079
16583TIP3    H171240   0.500   4.537  14.628  0.1311  0.6182  0.2940
16583TIP3    H271241   0.529   4.657  14.539  0.6249 -0.8986 -1.6666
16584TIP3   OH271242   2.187   2.485  14.538 -0.1085 -0.1536  0.2111
16584TIP3    H171243   2.202   2.403  14.490 -3.3866 -0.9452  0.3238
16584TIP3    H271244   2.235   2.551  14.488 -1.1395 -1.3916 -2.6212
16585TIP3   OH271245   5.193   0.359  16.698 -0.3284 -0.0894  0.2147
16585TIP3    H171246   5.110   0.312  16.692 -0.0591 -0.4571 -1.0154
16585TIP3    H271247   5.211   0.365  16.791 -0.9131 -1.4622  0.4405
16586TIP3   OH271248   3.715   2.478  14.753 -0.2160 -0.1457 -0.0806
16586TIP3    H171249   3.719   2.519  14.667  1.7995 -0.1117 -0.0311
16586TIP3    H271250   3.706   2.385  14.736  0.2140 -0.1411 -0.3442
16587TIP3   OH271251   3.079   2.356  12.990  0.7096 -0.2346 -0.3957
16587TIP3    H171252   3.022   2.355  13.067  0.6108  2.4806 -0.3534
16587TIP3    H271253   3.134   2.278  13.000 -2.5844 -2.7984 -0.1993
16588TIP3   OH271254   3.943   3.918   1.442  0.3177  0.8702  0.2002
16588TIP3    H171255   3.898   3.943   1.361 -2.5923  0.6438  1.6386
16588TIP3    H271256   3.967   4.002   1.482  0.7840  1.0076 -0.3474
16589TIP3   OH271257   1.202   1.897   6.281 -0.4610  0.0743  0.0214
16589TIP3    H171258   1.255   1.854   6.214  2.1042  0.0075  1.9212
16589TIP3    H271259   1.214   1.990   6.265 -0.0388  0.0578  0.2209
16590TIP3   OH271260   3.633   3.350   4.313 -0.0295  1.0127 -0.0397
16590TIP3    H171261   3.633   3.394   4.398 -0.7104  0.2995  0.3397
16590TIP3    H271262   3.623   3.421   4.249 -1.5829  1.4021  0.5795
16591TIP3   OH271263   6.290   4.854  11.374 -0.0841 -0.1687 -0.4585
16591TIP3    H171264   6.264   4.935  11.331 -1.3672 -1.3081 -1.9515
16591TIP3    H271265   6.288   4.788  11.304  0.2709 -1.6128  0.8369
16592TIP3   OH271266   4.125   0.896   6.033  0.7091 -0.2623 -0.0058
16592TIP3    H171267   4.195   0.850   6.079  1.0839 -1.4951 -1.7385
16592TIP3    H271268   4.170   0.947   5.965 -0.0201 -0.7250 -0.8520
16593TIP3   OH271269   4.553   1.768  13.179  0.4189 -0.4742 -0.3762
16593TIP3    H171270   4.465   1.733  13.188  0.4306 -0.3046  0.5515
16593TIP3    H271271   4.609   1.690  13.169  0.3597 -0.6963  0.8833
16594TIP3   OH271272   2.861   2.243   1.150 -0.2291 -0.5658  0.1894
16594TIP3    H171273   2.786   2.292   1.184  0.3667 -0.8855  2.0981
16594TIP3    H271274   2.937   2.282   1.193  0.8306  0.2551 -2.2952
16595TIP3   OH271275   6.748   2.639   4.695 -0.3692  0.0559  0.2637
16595TIP3    H171276   6.783   2.552   4.674  0.0147  0.2371  0.1371
16595TIP3    H271277   6.803   2.670   4.767  1.0025  1.1414 -1.1953
16596TIP3   OH271278   4.135   1.500   3.872  0.4975 -0.2763 -0.2827
16596TIP3    H171279   4.212   1.557   3.878  0.0544  0.2943  0.1880
16596TIP3    H271280   4.094   1.523   3.788  0.3587  0.0620 -0.1262
16597TIP3   OH271281   2.704   2.291   3.253 -0.5204 -0.3371  0.0613
16597TIP3    H171282   2.637   2.281   3.321 -0.2421 -1.4224  0.2064
16597TIP3    H271283   2.702   2.208   3.205 -1.7895  0.9450 -2.3004
16598TIP3   OH271284   3.228   1.278  10.666  0.2400 -0.0388  0.4202
16598TIP3    H171285   3.147   1.293  10.715  0.5841  2.3213  0.4151
16598TIP3    H271286   3.295   1.273  10.734  0.6707  2.8910  0.3377
16599TIP3   OH271287   2.729   5.583   5.464  0.3842  0.4302 -0.0943
16599TIP3    H171288   2.782   5.623   5.533  3.0398 -2.9202  0.0724
16599TIP3    H271289   2.731   5.646   5.392  1.3053  2.0946  1.3004
16600TIP3   OH271290   2.758   0.875   1.177 -0.0173  0.4523  0.8948
16600TIP3    H171291   2.722   0.871   1.266  0.6092  2.0995  1.2570
16600TIP3    H271292   2.697   0.931   1.128  1.4351  2.4845  1.2695
16601TIP3   OH271293   4.050   1.167   4.972  0.0600  0.5278 -0.1938
16601TIP3    H171294   4.025   1.236   4.911 -0.0975  0.1916 -0.5112
16601TIP3    H271295   3.993   1.179   5.047 -1.5961 -0.6919 -1.2107
16602TIP3   OH271296   5.153   4.769   0.205 -0.1523 -0.3503 -0.0057
16602TIP3    H171297   5.109   4.829   0.146 -1.3828 -1.8083 -0.6245
16602TIP3    H271298   5.247   4.785   0.190 -0.4419  1.3668 -0.1514
16603TIP3   OH271299   3.289   0.007   5.284 -0.3244 -0.1425  0.4481
16603TIP3    H171300   3.375  -0.023   5.313  0.0459  0.5552  0.0881
16603TIP3    H271301   3.276   0.090   5.329 -0.6370 -0.0513  0.1921
16604TIP3   OH271302   2.331   5.081  15.086 -0.6297  0.0511  0.1087
16604TIP3    H171303   2.421   5.089  15.054 -0.9681 -0.1419 -0.9429
16604TIP3    H271304   2.322   4.988  15.107 -0.0264  0.3843  2.0080
16605TIP3   OH271305   2.454   6.293  10.552  0.2914 -0.3254  0.0439
16605TIP3    H171306   2.496   6.337  10.626  0.7491  0.7744 -0.8338
16605TIP3    H271307   2.473   6.350  10.477  1.0393 -2.1009 -1.1822
16606TIP3   OH271308   0.627   0.337  14.211 -0.1490  0.8680 -0.4241
16606TIP3    H171309   0.595   0.427  14.219 -1.5096  0.2899  0.9768
16606TIP3    H271310   0.553   0.282  14.236  1.1449 -0.6125  0.3474
16607TIP3   OH271311   3.111   2.612   1.812 -0.0552 -0.0796 -0.3164
16607TIP3    H171312   3.200   2.593   1.840 -0.3414 -0.1242  0.6203
16607TIP3    H271313   3.085   2.538   1.758 -0.0975 -0.8863  0.7857
16608TIP3   OH271314   6.039   4.620  13.575  0.4058 -0.4177 -0.3380
16608TIP3    H171315   6.005   4.688  13.634  1.6130  0.2141 -0.3253
16608TIP3    H271316   5.962   4.586  13.531 -0.4087 -0.1420  0.8115
16609TIP3   OH271317   3.248   5.731   4.243  0.0055 -0.2627  0.1621
16609TIP3    H171318   3.333   5.734   4.200 -0.2128  1.3168 -0.2407
16609TIP3    H271319   3.200   5.663   4.197 -0.2365  1.3953 -2.2447
16610TIP3   OH271320   4.687   6.719  15.131  0.6706 -0.3699  0.1957
16610TIP3    H171321   4.635   6.794  15.161 -1.7846 -1.9293  0.1419
16610TIP3    H271322   4.767   6.723  15.183 -0.9977  0.2131  2.9259
16611TIP3   OH271323   4.184   4.247  10.326  0.5030  0.1362  0.4037
16611TIP3    H171324   4.196   4.152  10.323  0.9755  0.1335  1.7364
16611TIP3    H271325   4.094   4.258  10.357  0.3884  0.1311  0.0787
16612TIP3   OH271326   6.815   5.695   0.823 -0.1158 -0.1915 -0.5136
16612TIP3    H171327   6.735   5.647   0.803 -0.8224  0.2696  1.1027
16612TIP3    H271328   6.837   5.669   0.913  1.2121  0.1664 -0.7122
16613TIP3   OH271329   6.439   0.092   1.501  0.1145 -0.5642 -0.4600
16613TIP3    H171330   6.475   0.034   1.434 -0.3101  0.1389 -1.3100
16613TIP3    H271331   6.388   0.034   1.558  2.0501 -1.4820  0.4171
16614TIP3   OH271332   2.877   6.073  14.380 -0.3067 -0.1522 -0.1167
16614TIP3    H171333   2.898   6.050  14.290  1.4633 -1.1982  0.5063
16614TIP3    H271334   2.907   6.163  14.390  0.7218 -0.4652 -0.2422
16615TIP3   OH271335   2.899   4.806   4.153 -0.0397 -0.1143 -0.8093
16615TIP3    H171336   2.937   4.854   4.227 -0.9092 -1.9860  0.9495
16615TIP3    H271337   2.820   4.856   4.130 -0.8135 -0.4824  0.8508
16616TIP3   OH271338   3.657   0.125   2.126  0.9346 -0.3058  0.9905
16616TIP3    H171339   3.661   0.139   2.221  1.2727  1.7534  0.7342
16616TIP3    H271340   3.724   0.184   2.091 -0.4513  0.3938 -0.6281
16617TIP3   OH271341   2.354   2.370   2.852 -0.1357  0.2684 -0.0184
16617TIP3    H171342   2.376   2.281   2.880 -0.5039 -0.2476 -1.3284
16617TIP3    H271343   2.260   2.369   2.839  0.2098 -0.1163 -3.1763
16618TIP3   OH271344   4.988   0.794  14.770 -0.3177 -0.1725  0.4538
16618TIP3    H171345   5.047   0.867  14.753 -1.0124  0.4243  0.5423
16618TIP3    H271346   4.937   0.784  14.690  0.8599 -1.6275 -0.1552
16619TIP3   OH271347   0.879   4.768   4.493 -0.1462 -0.2107  0.0407
16619TIP3    H171348   0.788   4.750   4.471  0.0035 -0.2900 -0.5320
16619TIP3    H271349   0.912   4.686   4.530 -0.5882  0.1282  1.2185
16620TIP3   OH271350   4.821   5.158  15.301  0.2325 -0.5048 -0.1046
16620TIP3    H171351   4.882   5.221  15.263 -0.8564 -0.0232 -1.1346
16620TIP3    H271352   4.768   5.209  15.362 -0.6985 -0.3781 -0.9919
16621TIP3   OH271353   0.257   4.231  13.026  0.1714 -0.0367  0.2632
16621TIP3    H171354   0.350   4.246  13.045  0.3437  1.0678 -1.2706
16621TIP3    H271355   0.224   4.317  12.998 -1.3479 -0.3879  0.8635
16622TIP3   OH271356   4.489   0.779   5.406 -0.4740  0.0938 -0.1830
16622TIP3    H171357   4.444   0.838   5.347 -2.0808 -0.4986  0.3901
16622TIP3    H271358   4.444   0.789   5.490  1.0254  0.0959  0.6680
16623TIP3   OH271359   2.671   4.583   3.649 -0.4644 -0.0527  0.1968
16623TIP3    H171360   2.757   4.540   3.644 -0.1494  0.5506  0.3559
16623TIP3    H271361   2.652   4.588   3.743 -1.0128 -0.8398  0.1353
16624TIP3   OH271362   1.311   0.724  17.091  0.0206 -0.2845  0.2344
16624TIP3    H171363   1.242   0.786  17.111  1.0038  0.9981 -0.1950
16624TIP3    H271364   1.387   0.755  17.141  0.6320 -0.9070 -0.2843
16625TIP3   OH271365   2.676   4.420  16.605  0.2616 -0.3724 -0.2158
16625TIP3    H171366   2.614   4.482  16.565 -0.1544 -0.2489  0.5875
16625TIP3    H271367   2.651   4.335  16.570 -0.9813 -0.4542  0.7762
16626TIP3   OH271368   3.007   4.750   3.017  0.0480  0.2582 -0.0810
16626TIP3    H171369   2.918   4.739   2.984 -0.6146  1.2081  1.2672
16626TIP3    H271370   3.041   4.661   3.025 -1.1790 -0.1975  0.3714
16627TIP3   OH271371   1.558   5.848   5.656 -0.0242  0.1767 -0.1060
16627TIP3    H171372   1.618   5.920   5.673  0.5436 -0.6082  1.3661
16627TIP3    H271373   1.590   5.776   5.711 -2.3149 -0.2568  0.7811
16628TIP3   OH271374   1.326   2.084  13.494  0.2351  0.1081 -0.0860
16628TIP3    H171375   1.413   2.121  13.506  0.3795 -0.7792  2.0642
16628TIP3    H271376   1.275   2.120  13.567 -0.3020 -1.8518  0.5472
16629TIP3   OH271377   0.574   0.583   2.384 -0.1655  0.0347 -0.2396
16629TIP3    H171378   0.556   0.548   2.297 -1.0716  0.7684 -0.3579
16629TIP3    H271379   0.519   0.661   2.390  0.0318  0.0923  0.9219
16630TIP3   OH271380   5.382   3.582  12.581  0.6009 -0.1660  0.7675
16630TIP3    H171381   5.336   3.514  12.629 -0.4354  0.8125  1.2165
16630TIP3    H271382   5.325   3.659  12.587 -1.1372 -0.6599 -4.5398
16631TIP3   OH271383   0.944   3.218   4.866  0.2443  0.2521 -0.3655
16631TIP3    H171384   0.920   3.131   4.899 -0.5539  1.1356  1.5103
16631TIP3    H271385   1.040   3.216   4.862  0.2608 -0.5125  0.2506
16632TIP3   OH271386   2.912   4.199  10.550  0.0636  0.5651 -0.0678
16632TIP3    H171387   2.930   4.108  10.525  0.2881  0.6248 -0.1271
16632TIP3    H271388   2.999   4.236  10.568 -0.0891  0.5194  0.8050
16633TIP3   OH271389   5.436   2.662   4.181  0.2476 -0.2389 -1.0874
16633TIP3    H171390   5.446   2.568   4.165  1.5743 -0.0364 -1.5994
16633TIP3    H271391   5.342   2.676   4.183 -0.0001 -1.7216 -0.1320
16634TIP3   OH271392   3.414   1.088  11.347  0.2644 -0.6092  0.3933
16634TIP3    H171393   3.422   1.113  11.255 -0.5356 -0.0796  0.4550
16634TIP3    H271394   3.478   1.143  11.392 -0.4334  0.2717  0.3359
16635TIP3   OH271395   3.230   5.616   3.101  0.2578  0.2043  0.1103
16635TIP3    H171396   3.186   5.690   3.059 -0.4866 -0.2290  0.1258
16635TIP3    H271397   3.316   5.651   3.125  1.1801  0.1641 -2.7620
16636TIP3   OH271398   2.625   1.520  15.843  0.0700 -0.1891 -0.4866
16636TIP3    H171399   2.617   1.433  15.803  0.6399 -0.3009 -0.3712
16636TIP3    H271400   2.594   1.508  15.932 -0.5521 -0.0997 -0.6861
16637TIP3   OH271401   3.965   2.895   0.080 -0.4976 -0.6715  0.1667
16637TIP3    H171402   3.917   2.959   0.029 -0.3809  0.1745  1.0836
16637TIP3    H271403   4.039   2.869   0.025 -1.0825 -0.7528 -0.5904
16638TIP3   OH271404   6.838   3.744  13.528  0.1610  0.2282  0.3068
16638TIP3    H171405   6.844   3.799  13.450 -0.4027  0.4912  0.4403
16638TIP3    H271406   6.796   3.664  13.497  0.5424  0.0686  0.2073
16639TIP3   OH271407   6.059   1.051   2.067  0.0936  0.1630 -0.7163
16639TIP3    H171408   6.107   1.040   2.150  0.1973  0.0980 -0.7854
16639TIP3    H271409   6.000   0.976   2.063  2.0858 -1.4686 -2.0760
16640TIP3   OH271410   6.403   5.660   2.119 -0.1317  0.4572 -0.2974
16640TIP3    H171411   6.425   5.630   2.208  0.1194  1.4299 -0.0186
16640TIP3    H271412   6.475   5.718   2.095 -1.8521  3.0291  0.2896
16641TIP3   OH271413   4.422   4.791   0.531 -0.0406 -0.4436  0.3073
16641TIP3    H171414   4.373   4.716   0.565 -0.4686 -0.6481 -0.7231
16641TIP3    H271415   4.471   4.756   0.456 -0.4773  0.3551 -0.3687
16642TIP3   OH271416   2.558   5.300  15.722  0.1081 -0.0838  0.2815
16642TIP3    H171417   2.550   5.240  15.796  1.6951 -0.3993  0.2272
16642TIP3    H271418   2.628   5.264  15.668  2.6764  2.8128  1.3317
16643TIP3   OH271419   0.058   1.157  16.289 -0.0325  0.3450 -0.4526
16643TIP3    H171420   0.070   1.079  16.235 -0.3344 -0.4617  0.5975
16643TIP3    H271421  -0.012   1.132  16.350  0.2530  1.2468  0.2557
16644TIP3   OH271422   5.455   3.597  15.468  0.4520 -0.1789  0.0286
16644TIP3    H171423   5.473   3.558  15.382  1.4898  0.3343 -0.0039
16644TIP3    H271424   5.450   3.522  15.527 -1.3135 -0.6193 -0.6258
16645TIP3   OH271425   4.256   5.448   5.715  0.1656  0.1525 -0.2114
16645TIP3    H171426   4.187   5.394   5.755 -0.4019  1.5650  0.7812
16645TIP3    H271427   4.325   5.385   5.695 -0.5230 -0.9855  0.7744
16646TIP3   OH271428   3.137   1.930  11.614 -0.0278 -0.3225 -0.3558
16646TIP3    H171429   3.198   1.908  11.544  2.0531  0.3656  1.1404
16646TIP3    H271430   3.053   1.943  11.570  0.7044 -1.9814 -2.4131
16647TIP3   OH271431   0.703   6.500   0.462 -0.0489  0.6462 -0.1414
16647TIP3    H171432   0.695   6.504   0.557 -0.5556 -0.3860 -0.1234
16647TIP3    H271433   0.794   6.475   0.447  0.5244  2.5381 -0.0047
16648TIP3   OH271434   0.475   6.559   1.515 -0.0279  0.1583 -0.4123
16648TIP3    H171435   0.544   6.574   1.579 -0.1643  0.7440 -0.3927
16648TIP3    H271436   0.507   6.487   1.460 -1.4676 -3.0396  2.5593
16649TIP3   OH271437   6.344   3.277   3.237 -0.4190  0.0138 -0.0414
16649TIP3    H171438   6.389   3.323   3.307  2.2248 -0.8599 -1.0446
16649TIP3    H271439   6.373   3.321   3.157  0.8752 -2.2230 -0.8954
16650TIP3   OH271440   5.794   5.561   5.463 -0.0564 -0.3333  0.7665
16650TIP3    H171441   5.833   5.587   5.380  0.6831  0.2960  1.2961
16650TIP3    H271442   5.827   5.473   5.479  0.6607 -0.0399  0.9117
16651TIP3   OH271443   3.194   6.661   1.229  0.1365  0.2194  0.3651
16651TIP3    H171444   3.214   6.695   1.316 -0.5034 -0.5578  0.8321
16651TIP3    H271445   3.123   6.717   1.197  0.5067  0.6296  0.2555
16652TIP3   OH271446   6.812   0.306  14.598 -0.1557 -0.4688  0.4847
16652TIP3    H171447   6.887   0.293  14.657  2.2775 -1.5547 -2.5675
16652TIP3    H271448   6.847   0.358  14.526 -2.9962  0.8207 -0.1153
16653TIP3   OH271449   5.928   2.995  11.797  0.1801 -0.1902  0.1268
16653TIP3    H171450   5.855   3.050  11.826 -1.1601 -1.3412 -0.9189
16653TIP3    H271451   5.993   3.003  11.867 -0.7703  1.1915  0.8966
16654TIP3   OH271452   0.848   1.701   3.974 -0.6111 -0.6169 -0.2926
16654TIP3    H171453   0.805   1.727   4.056  1.3562 -1.5792  1.1015
16654TIP3    H271454   0.785   1.643   3.932 -2.1563  0.8314 -0.0979
16655TIP3   OH271455   5.629   3.424   6.103  0.3200  0.6207 -0.3566
16655TIP3    H171456   5.620   3.344   6.155 -2.0376  0.5726 -0.7287
16655TIP3    H271457   5.665   3.489   6.165  0.1697 -0.1459  0.5520
16656TIP3   OH271458   5.229   5.754   4.803  0.1669 -0.0954 -0.5097
16656TIP3    H171459   5.204   5.760   4.711 -0.9969  4.1831 -0.1378
16656TIP3    H271460   5.150   5.779   4.851  0.4970 -3.0135  1.8166
16657TIP3   OH271461   2.137   2.029  15.456  0.2523 -0.4472  0.0082
16657TIP3    H171462   2.231   2.040  15.447  0.3415 -1.3714 -0.3045
16657TIP3    H271463   2.127   1.970  15.531 -0.2023  1.5762  1.6493
16658TIP3   OH271464   3.693   6.633   5.704 -0.0649 -0.3369  0.0323
16658TIP3    H171465   3.740   6.587   5.774 -2.0947 -3.4798 -0.4716
16658TIP3    H271466   3.711   6.580   5.626 -1.5263  0.4258 -0.8549
16659TIP3   OH271467   6.417   6.032  11.006 -0.8327 -0.2380 -0.3947
16659TIP3    H171468   6.383   6.116  11.035 -0.6955 -0.5707  0.8079
16659TIP3    H271469   6.508   6.031  11.036 -0.6435 -0.5526 -0.9636
16660TIP3   OH271470   4.573   2.746   3.351 -0.5322  0.1086  0.0525
16660TIP3    H171471   4.580   2.753   3.256  0.6375  0.1621  0.1297
16660TIP3    H271472   4.597   2.833   3.384  1.4412 -0.5469  0.4778
16661TIP3   OH271473   1.037   3.601   2.715 -0.2515 -0.9536 -0.0273
16661TIP3    H171474   1.026   3.601   2.810 -3.0159 -1.6219 -0.2659
16661TIP3    H271475   1.083   3.683   2.697 -0.8418 -0.1562  1.7891
16662TIP3   OH271476   5.532   2.646   3.586 -0.4369  0.1628  0.2575
16662TIP3    H171477   5.469   2.655   3.514 -0.3379 -0.1468  0.1313
16662TIP3    H271478   5.501   2.570   3.635 -0.8319  0.7132  0.8775
16663TIP3   OH271479   1.654   5.412  16.493 -0.2292  0.1779  0.4949
16663TIP3    H171480   1.607   5.390  16.574  0.3825  1.1132  1.1349
16663TIP3    H271481   1.586   5.438  16.431 -0.7019 -0.4678  0.7416
16664TIP3   OH271482   2.302   0.432   3.212 -0.3580 -0.0400 -0.7331
16664TIP3    H171483   2.267   0.347   3.239  2.1974 -0.9944 -0.1499
16664TIP3    H271484   2.396   0.426   3.230 -0.1204  3.0132 -0.4065
16665TIP3   OH271485   3.235   6.229   4.369  0.1796 -0.1378 -0.5690
16665TIP3    H171486   3.187   6.146   4.359  1.1087 -0.8381  0.5127
16665TIP3    H271487   3.181   6.293   4.323 -1.5292 -0.9843  0.1416
16666TIP3   OH271488   0.445   6.284   2.569 -0.3336 -0.1439  0.4206
16666TIP3    H171489   0.418   6.349   2.634 -1.6889 -1.2455  1.0021
16666TIP3    H271490   0.541   6.283   2.575 -0.4098 -1.9338  4.1975
16667TIP3   OH271491   5.148   6.783   4.130  0.2136  0.6019  0.2910
16667TIP3    H171492   5.174   6.875   4.133 -0.9259  0.9568 -0.4107
16667TIP3    H271493   5.205   6.741   4.195  1.3236  1.6370  0.0369
16668TIP3   OH271494   1.834   2.687  13.211  0.1070 -0.3636  0.0654
16668TIP3    H171495   1.815   2.595  13.229  0.6582 -0.5633 -0.3257
16668TIP3    H271496   1.767   2.714  13.148 -0.0041 -0.5266  0.1156
16669TIP3   OH271497   6.654   1.679  15.519 -0.4232 -0.1715 -0.0732
16669TIP3    H171498   6.749   1.675  15.506 -0.3055 -0.6515  0.8035
16669TIP3    H271499   6.619   1.713  15.437  0.5003 -0.1073 -0.4481
16670TIP3   OH271500   3.263   2.920   1.512  0.1910  0.1490 -0.5096
16670TIP3    H171501   3.205   2.995   1.511 -1.6499 -0.9730  3.5131
16670TIP3    H271502   3.285   2.907   1.604  0.1077 -4.4207 -0.9137
16671TIP3   OH271503   5.334   3.085   5.101 -0.5023 -0.6409  0.1246
16671TIP3    H171504   5.424   3.051   5.103  0.1670  1.0549  1.2028
16671TIP3    H271505   5.301   3.061   5.015  1.7935  0.6568 -1.2044
16672TIP3   OH271506   1.436   4.220   3.920  0.2474  0.7971 -0.7878
16672TIP3    H171507   1.348   4.217   3.956  0.7897 -0.0089  0.5466
16672TIP3    H271508   1.426   4.264   3.836 -1.6961 -0.8644 -1.4966
16673TIP3   OH271509   1.013   3.973  15.639 -0.6543 -0.3982  0.6266
16673TIP3    H171510   0.930   3.972  15.591  0.0049  1.2606 -0.6603
16673TIP3    H271511   1.045   4.062  15.628  2.3977 -1.5488 -0.9009
16674TIP3   OH271512   2.174   4.583  15.431 -0.1347  0.3229 -0.0611
16674TIP3    H171513   2.095   4.631  15.405  0.0470  0.9848  0.5918
16674TIP3    H271514   2.145   4.492  15.435 -0.7624  0.5057 -0.2350
16675TIP3   OH271515   2.829   3.735   4.201 -0.0072 -0.4279 -0.2659
16675TIP3    H171516   2.906   3.678   4.193  0.2215 -0.0805 -0.5462
16675TIP3    H271517   2.802   3.725   4.292  0.3119 -0.6317 -0.1913
16676TIP3   OH271518   1.715   4.934   3.389  0.4736 -0.8158  0.8793
16676TIP3    H171519   1.693   4.847   3.355  0.6573 -0.0878 -1.2906
16676TIP3    H271520   1.635   4.985   3.377  1.0747 -0.0769 -0.1758
16677TIP3   OH271521   2.582   3.377   6.013 -0.4826  0.6306 -0.2386
16677TIP3    H171522   2.519   3.305   6.012 -0.8575  0.9650 -0.8021
16677TIP3    H271523   2.666   3.335   5.993 -0.4719  0.1519  0.7054
16678TIP3   OH271524   2.915   4.224   0.691 -0.3971 -0.0288  0.0046
16678TIP3    H171525   2.860   4.163   0.641  0.7135 -0.2177 -1.0360
16678TIP3    H271526   2.872   4.231   0.776 -0.7157 -2.0325  0.0499
16679TIP3   OH271527   3.895   6.124  14.522 -0.0432 -0.0070  0.0785
16679TIP3    H171528   3.804   6.154  14.530 -0.1048  0.5613 -2.0111
16679TIP3    H271529   3.890   6.050  14.462  0.7024 -1.1303  1.3657
16680TIP3   OH271530   5.521   5.829  16.756  0.3217 -0.4095 -0.2871
16680TIP3    H171531   5.569   5.822  16.839  2.4815 -0.0854 -1.4354
16680TIP3    H271532   5.433   5.857  16.781  0.9725 -0.1457  1.8814
16681TIP3   OH271533   1.911   2.062   5.485 -0.4450 -0.3214  0.3111
16681TIP3    H171534   1.909   2.104   5.571 -0.0307  0.4679 -0.0491
16681TIP3    H271535   1.970   2.118   5.433 -1.1457 -0.4520 -0.6475
16682TIP3   OH271536   4.589   1.714   1.503  1.0416 -0.3249 -0.3187
16682TIP3    H171537   4.681   1.737   1.491  1.1457 -1.3378 -1.5622
16682TIP3    H271538   4.551   1.719   1.416 -0.1406  0.2088  0.1964
16683TIP3   OH271539   3.502   2.081  14.786  0.6484 -0.2918 -0.2064
16683TIP3    H171540   3.589   2.120  14.796 -0.0097  1.0426  0.6709
16683TIP3    H271541   3.514   1.989  14.807  1.6848  0.0555  0.7976
16684TIP3   OH271542   4.882   1.260  12.547  0.0177  0.4277  0.2873
16684TIP3    H171543   4.930   1.341  12.563  0.9576  0.0898 -0.6467
16684TIP3    H271544   4.793   1.288  12.526  0.4876  1.2905 -0.6896
16685TIP3   OH271545   1.159   1.545  12.914 -0.3410 -0.5144 -0.1575
16685TIP3    H171546   1.226   1.557  12.846 -0.8335 -1.7045 -0.8765
16685TIP3    H271547   1.167   1.623  12.969  0.5894  0.1031 -1.1296
16686TIP3   OH271548   4.954   3.300   5.781  0.2989  0.3115 -0.4038
16686TIP3    H171549   5.008   3.221   5.789 -0.3098 -0.0207  0.4939
16686TIP3    H271550   4.903   3.285   5.702 -1.1881 -1.0711  0.7609
16687TIP3   OH271551   5.005   5.602  15.020  0.0686 -0.3390 -0.3736
16687TIP3    H171552   4.926   5.580  14.972  0.4401  0.0403 -1.1899
16687TIP3    H271553   5.037   5.683  14.978 -0.8318  1.3497  1.9885
16688TIP3   OH271554   4.525   5.960  10.446  0.0864 -0.8902 -0.1001
16688TIP3    H171555   4.465   5.914  10.388 -0.9732 -0.9459  0.9941
16688TIP3    H271556   4.570   6.023  10.390 -2.3212  0.4385 -0.6579
16689TIP3   OH271557   2.290   2.316  14.349  0.3797 -0.4505  0.1182
16689TIP3    H171558   2.302   2.226  14.316 -0.8210 -1.3497  1.9926
16689TIP3    H271559   2.379   2.350  14.357  0.9425 -1.9380  0.5545
16690TIP3   OH271560   6.476   5.592  11.519 -0.3725  0.2087 -0.3516
16690TIP3    H171561   6.429   5.667  11.481  1.1108 -0.1836 -3.2597
16690TIP3    H271562   6.421   5.516  11.499 -0.9466  0.2754  0.8898
16691TIP3   OH271563   1.160   1.515   0.189 -0.2494 -0.0282 -0.3060
16691TIP3    H171564   1.216   1.590   0.168 -0.5706  0.2499 -0.1707
16691TIP3    H271565   1.087   1.521   0.127 -0.7102  0.2525  0.2567
16692TIP3   OH271566   5.005   2.484   0.069 -0.3220  0.3499  0.1481
16692TIP3    H171567   5.066   2.424   0.111 -0.0210 -0.4720 -1.4091
16692TIP3    H271568   4.927   2.481   0.125  0.4311  0.1294  1.2223
16693TIP3   OH271569   2.786   2.424  11.922  0.3919  0.0299  0.4486
16693TIP3    H171570   2.880   2.436  11.907 -0.1320  5.2470 -0.6729
16693TIP3    H271571   2.773   2.446  12.014  0.3014 -2.4613  1.1135
16694TIP3   OH271572   6.095   2.402  15.355 -0.5871 -0.2884 -0.6477
16694TIP3    H171573   6.189   2.416  15.343 -0.7915  0.0262 -2.1962
16694TIP3    H271574   6.089   2.329  15.417  0.6377  0.5762  0.5392
16695TIP3   OH271575   2.545   0.923  16.007  0.3076 -0.0587 -0.1195
16695TIP3    H171576   2.467   0.939  15.955  0.0783 -2.1294 -0.5053
16695TIP3    H271577   2.614   0.905  15.943  1.0152  1.2890  0.2282
16696TIP3   OH271578   2.935   3.031  12.035  0.1466 -0.4873  0.1077
16696TIP3    H171579   3.030   3.025  12.033  0.1903  0.2530 -1.2746
16696TIP3    H271580   2.917   3.097  12.103  0.6210 -0.5562  0.3034
16697TIP3   OH271581   1.794   2.930   0.675  0.8820  0.1810 -0.1497
16697TIP3    H171582   1.718   2.872   0.672  0.6088  0.3416  2.0114
16697TIP3    H271583   1.863   2.882   0.630 -0.4243 -0.0106 -2.0780
16698TIP3   OH271584   5.728   1.663   4.580 -0.1712  0.1977 -0.6322
16698TIP3    H171585   5.813   1.702   4.597  1.1371 -2.5063 -0.4702
16698TIP3    H271586   5.735   1.626   4.492 -1.7256  1.1955 -1.2209
16699TIP3   OH271587   6.446   0.004  14.281 -0.5575  0.2152  0.2526
16699TIP3    H171588   6.444   0.063  14.206  0.8596 -1.1080 -0.8880
16699TIP3    H271589   6.502   0.049  14.345 -0.9744  0.9126  0.1339
16700TIP3   OH271590   3.531   6.111  15.143 -0.9092  0.2646 -0.5013
16700TIP3    H171591   3.501   6.092  15.055 -2.7262 -0.0964  0.1569
16700TIP3    H271592   3.472   6.179  15.176  0.2944  1.0477  0.1418
16701TIP3   OH271593   2.354   3.239  13.963 -0.2367 -0.1427 -0.3115
16701TIP3    H171594   2.413   3.290  14.018  0.6259  1.2002 -2.3531
16701TIP3    H271595   2.266   3.259  13.996  0.2661  0.0494  0.9759
16702TIP3   OH271596   0.489   1.984  14.077  0.1002 -0.0591 -0.2050
16702TIP3    H171597   0.567   1.931  14.089  0.5061  0.5577 -0.0758
16702TIP3    H271598   0.479   2.032  14.159 -0.4931 -0.2331 -0.1675
16703TIP3   OH271599   0.069   4.940  12.444  0.3666  0.3887  0.3451
16703TIP3    H171600   0.063   4.862  12.498  1.4367 -0.6952 -1.0321
16703TIP3    H271601  -0.005   4.995  12.471 -1.7887 -2.0749 -0.2294
16704TIP3   OH271602   1.719   5.810  15.275  0.0395  0.0014 -0.2291
16704TIP3    H171603   1.722   5.757  15.196  1.3197 -0.7016  0.2668
16704TIP3    H271604   1.662   5.761  15.335  1.7695 -1.2107  0.4770
16705TIP3   OH271605   2.771   0.971   3.687 -0.1414  0.0134  0.1410
16705TIP3    H171606   2.789   1.010   3.772  0.2191  0.1458  0.0062
16705TIP3    H271607   2.709   0.900   3.705  0.7951 -0.6959  0.6715
16706TIP3   OH271608   4.729   0.449  11.831 -0.1453  0.3698  0.0676
16706TIP3    H171609   4.800   0.396  11.794 -0.0405 -1.3010  2.4249
16706TIP3    H271610   4.773   0.520  11.877 -0.1600  0.9542 -0.8026
16707TIP3   OH271611   1.697   4.581  12.724 -0.1159  0.5391  0.1973
16707TIP3    H171612   1.689   4.604  12.817 -1.5032  0.5074  0.1049
16707TIP3    H271613   1.609   4.553  12.699 -0.3045  2.5108 -1.6573
16708TIP3   OH271614   4.433   5.906   6.000 -0.0841  0.4834 -0.0137
16708TIP3    H171615   4.351   5.947   6.026  0.3419  0.8652  0.7803
16708TIP3    H271616   4.426   5.815   6.029 -0.0397  0.6373  0.4839
16709TIP3   OH271617   0.181   0.587   0.899 -0.3705  0.0913 -0.3667
16709TIP3    H171618   0.111   0.648   0.878  0.1454  0.2027 -1.9258
16709TIP3    H271619   0.242   0.637   0.953 -0.2126  0.8115 -1.1976
16710TIP3   OH271620   2.175   3.727   3.401  0.5794  0.3953 -0.3609
16710TIP3    H171621   2.255   3.756   3.357  0.1841 -0.4424 -1.7079
16710TIP3    H271622   2.203   3.701   3.488  1.9383 -0.5931 -1.0534
16711TIP3   OH271623   2.062   0.881  12.404  0.2848  0.1723  0.2712
16711TIP3    H171624   2.073   0.787  12.423 -2.3627 -0.0814  0.9296
16711TIP3    H271625   2.006   0.913  12.474 -1.3645  1.5509 -1.5761
16712TIP3   OH271626   4.991   4.015   2.815 -0.1756 -0.1915 -0.6845
16712TIP3    H171627   4.977   4.102   2.854  0.0791 -1.2827  2.0351
16712TIP3    H271628   5.030   4.034   2.729  0.8972  2.3888  0.2458
16713TIP3   OH271629   3.434   1.910  11.111  0.5147 -0.3465 -0.7233
16713TIP3    H171630   3.499   1.850  11.148  1.1359  0.2227 -0.8533
16713TIP3    H271631   3.365   1.853  11.078  0.3622 -0.9114  0.4969
16714TIP3   OH271632   5.543   6.706   3.663  0.2855  0.1076 -0.5953
16714TIP3    H171633   5.510   6.622   3.695  0.8301  0.2546  0.4238
16714TIP3    H271634   5.613   6.682   3.602  0.2389 -0.1865 -0.5363
16715TIP3   OH271635   2.459   4.912  11.914  0.1889  0.3240  0.4908
16715TIP3    H171636   2.412   4.973  11.857  0.5602 -0.0477 -0.2334
16715TIP3    H271637   2.392   4.854  11.949  0.2436 -1.3167 -1.8999
16716TIP3   OH271638   2.380   0.231  16.837 -0.0998  0.4473  0.2222
16716TIP3    H171639   2.343   0.177  16.767 -0.8950 -0.3027  1.2035
16716TIP3    H271640   2.354   0.320  16.814 -1.8584  0.0277  0.4559
16717TIP3   OH271641   1.387   0.449  12.689 -0.4450  0.8579 -0.0316
16717TIP3    H171642   1.328   0.431  12.762  0.7845 -1.7161  0.4710
16717TIP3    H271643   1.439   0.524  12.717 -0.9028  0.7422  1.1678
16718TIP3   OH271644   2.517   1.141   2.942 -0.3314  0.0361  0.3297
16718TIP3    H171645   2.465   1.218   2.918 -2.2100 -1.0550  0.6933
16718TIP3    H271646   2.481   1.070   2.888  1.9020 -0.4838 -0.6124
16719TIP3   OH271647   6.460   0.735  11.957  0.4348  0.2440 -1.1243
16719TIP3    H171648   6.528   0.773  12.012 -1.4973  0.4651  1.3206
16719TIP3    H271649   6.427   0.808  11.905  1.7967  0.1885 -2.1226
16720TIP3   OH271650   3.450   3.570  15.993  0.2469 -0.5205 -0.3008
16720TIP3    H171651   3.390   3.520  16.049  1.7566 -1.7272  0.2978
16720TIP3    H271652   3.434   3.536  15.905  0.2721 -1.0664 -0.0987
16721TIP3   OH271653   0.505   5.305  15.087  0.2900  0.2164 -0.2700
16721TIP3    H171654   0.452   5.246  15.033  0.6355 -2.3411  1.9627
16721TIP3    H271655   0.578   5.330  15.030 -1.1941  0.6200 -2.1182
16722TIP3   OH271656   3.935   5.603  14.523  0.3189 -0.1247 -0.2990
16722TIP3    H171657   3.999   5.615  14.593 -0.1237  1.7094 -0.1475
16722TIP3    H271658   3.948   5.513  14.493  0.6154 -0.9208  2.0405
16723TIP3   OH271659   5.514   2.339  15.701 -0.5447 -0.2687 -0.4443
16723TIP3    H171660   5.523   2.257  15.750 -1.0644 -0.1684 -0.1823
16723TIP3    H271661   5.584   2.395  15.735 -2.4095  0.7384  2.0701
16724TIP3   OH271662   2.898   4.455  11.337  0.1856 -0.1932 -0.0533
16724TIP3    H171663   2.871   4.489  11.423 -1.0202 -0.2497 -0.3924
16724TIP3    H271664   2.841   4.380  11.322 -0.8742  0.8763 -1.6777
16725TIP3   OH271665   1.489   4.871   1.190  0.0157 -0.4195  0.2575
16725TIP3    H171666   1.572   4.882   1.144 -0.6756  0.4524 -0.8440
16725TIP3    H271667   1.500   4.791   1.241  0.5264 -1.9811 -2.1354
16726TIP3   OH271668   5.324   1.525  15.784  0.3302  0.5011 -0.5594
16726TIP3    H171669   5.336   1.570  15.700 -0.3329 -1.2617 -1.6645
16726TIP3    H271670   5.238   1.483  15.776 -0.1401  0.9981  1.3681
16727TIP3   OH271671   4.168   4.696  14.221  0.0836  0.6694  0.2165
16727TIP3    H171672   4.075   4.671  14.218 -0.2152  1.8068 -0.8515
16727TIP3    H271673   4.170   4.783  14.182  1.3327  1.5511  2.1016
16728TIP3   OH271674   3.413   4.073  11.558 -0.2114  0.1407  0.1713
16728TIP3    H171675   3.471   4.132  11.607 -0.3259 -0.3759  0.9594
16728TIP3    H271676   3.326   4.110  11.569 -0.4250 -0.6486  1.4814
16729TIP3   OH271677   1.356   5.772  16.111 -0.1196  0.1038 -0.6763
16729TIP3    H171678   1.295   5.826  16.061 -0.3320  0.6218  0.1130
16729TIP3    H271679   1.384   5.829  16.183  0.8434 -0.3265 -0.6998
16730TIP3   OH271680   4.411   4.219  12.263 -0.7623 -0.3713  0.0356
16730TIP3    H171681   4.400   4.266  12.181  0.8809 -0.4072 -0.2316
16730TIP3    H271682   4.465   4.143  12.241 -0.0735 -0.2497  1.1748
16731TIP3   OH271683   0.715   4.689  12.244 -0.5564 -0.6563 -0.3072
16731TIP3    H171684   0.644   4.721  12.300 -0.3544  1.7289 -1.2835
16731TIP3    H271685   0.688   4.714  12.155  0.9344 -0.7780 -0.8232
16732TIP3   OH271686   2.089   4.253   2.653 -0.4718 -0.2563 -0.1281
16732TIP3    H171687   2.135   4.301   2.583  1.9607 -1.0187  0.8286
16732TIP3    H271688   2.108   4.161   2.634  2.2491 -0.4409  2.6614
16733TIP3   OH271689   5.665   2.733   4.060 -0.2099  0.4171 -0.6476
16733TIP3    H171690   5.706   2.659   4.014  2.7118 -0.1807  2.4906
16733TIP3    H271691   5.579   2.701   4.086 -0.4901 -0.4674 -2.5327
16734TIP3   OH271692   5.247   3.333  13.069  0.7418 -0.4620  0.2622
16734TIP3    H171693   5.200   3.312  12.989  3.4179 -0.9184 -1.3216
16734TIP3    H271694   5.321   3.272  13.070  0.7400 -0.5803  3.1996
16735TIP3   OH271695   1.676   4.670   2.408 -0.6490  0.7022  0.0559
16735TIP3    H171696   1.771   4.681   2.404 -0.2580 -0.0192  3.4595
16735TIP3    H271697   1.659   4.647   2.500 -4.1555  1.0380 -0.3602
16736TIP3   OH271698   1.404   3.201  12.837 -0.3207  0.0355  0.1753
16736TIP3    H171699   1.358   3.224  12.917  1.7952  0.0175  1.4906
16736TIP3    H271700   1.456   3.278  12.815  0.3416 -0.5181 -0.2592
16737TIP3   OH271701   4.887   6.125   0.350 -0.0958 -0.3800 -0.2681
16737TIP3    H171702   4.806   6.079   0.326  0.0002 -0.3983 -0.5629
16737TIP3    H271703   4.897   6.109   0.444  0.2469 -1.4590 -0.4740
16738TIP3   OH271704   1.171   4.196  17.076 -0.0984 -0.1324 -0.3505
16738TIP3    H171705   1.245   4.226  17.023 -2.0189  0.2566 -2.9974
16738TIP3    H271706   1.138   4.275  17.119 -0.0258 -0.0130 -0.5155
16739TIP3   OH271707   5.000   3.403   3.907 -0.2901 -0.0550  0.1934
16739TIP3    H171708   4.995   3.312   3.937  0.9506 -0.6206 -1.2055
16739TIP3    H271709   4.911   3.423   3.878 -0.5268 -0.9243  0.2757
16740TIP3   OH271710   1.777   5.236  13.214  0.3592 -0.5160 -0.3757
16740TIP3    H171711   1.819   5.198  13.291 -0.0593 -1.1230 -0.4372
16740TIP3    H271712   1.754   5.325  13.240 -1.4281 -1.2805  0.8384
16741TIP3   OH271713   4.024   0.467   4.011  0.3470  0.1462 -0.2809
16741TIP3    H171714   4.020   0.488   4.104  0.5396  2.0327 -0.6606
16741TIP3    H271715   3.958   0.524   3.970 -0.0308 -0.9452 -1.2629
16742TIP3   OH271716   1.438   2.702   3.391 -0.4960  0.6474  0.1153
16742TIP3    H171717   1.437   2.762   3.466  1.0947 -0.4180  1.0590
16742TIP3    H271718   1.394   2.623   3.423  0.5692  0.0303  0.0926
16743TIP3   OH271719   1.673   4.023  16.088  0.2709  0.2106 -0.3409
16743TIP3    H171720   1.589   4.069  16.084 -0.2819 -0.7268  0.1509
16743TIP3    H271721   1.730   4.082  16.137 -0.0713  0.8955 -0.7472
16744TIP3   OH271722   3.556   5.223   1.399 -0.2647  0.2302  0.2071
16744TIP3    H171723   3.644   5.200   1.369  0.1429  2.1948 -0.2190
16744TIP3    H271724   3.504   5.230   1.319 -0.4802  0.4068  0.3632
16745TIP3   OH271725   5.675   0.974  14.717 -0.3512  0.0377 -0.1098
16745TIP3    H171726   5.654   0.937  14.631  3.6477  0.3472 -1.4321
16745TIP3    H271727   5.701   0.898  14.770 -1.7545 -0.0272  0.5239
16746TIP3   OH271728   0.796   3.130   6.410 -0.0007  0.0401  0.3661
16746TIP3    H171729   0.758   3.111   6.496 -0.4087  0.2261  0.2309
16746TIP3    H271730   0.885   3.094   6.414  0.0277  0.1717  0.9126
16747TIP3   OH271731   3.742   3.087  15.418  0.1322  0.1789  0.8190
16747TIP3    H171732   3.759   3.129  15.502 -2.4665  0.3481  1.3523
16747TIP3    H271733   3.771   2.997  15.429  0.2026  0.3173  1.7740
16748TIP3   OH271734   1.537   6.211   6.454 -0.2206 -0.0001  0.3327
16748TIP3    H171735   1.627   6.207   6.487 -0.6468 -3.5040  1.5474
16748TIP3    H271736   1.508   6.300   6.470  2.8979  1.1417  0.2008
16749TIP3   OH271737   0.083   6.654  13.537  0.2066  0.1842 -0.5672
16749TIP3    H171738   0.138   6.684  13.464  1.7308  1.9081  1.1676
16749TIP3    H271739   0.035   6.732  13.563 -0.9114 -0.6133 -0.2034
16750TIP3   OH271740   3.023   3.901  11.340  0.2033  0.2181 -0.4127
16750TIP3    H171741   2.988   3.972  11.287  1.6917  0.8079 -0.6746
16750TIP3    H271742   3.114   3.893  11.312  0.7443 -0.1569  1.3154
16751TIP3   OH271743   0.338   3.079   2.947  0.1102 -0.3967  0.8025
16751TIP3    H171744   0.403   3.129   2.898 -0.4626  0.5943  1.0235
16751TIP3    H271745   0.266   3.141   2.962 -0.2938 -1.0649  1.7443
16752TIP3   OH271746   4.661   0.972   4.088 -0.1391 -0.0750 -0.0150
16752TIP3    H171747   4.653   0.959   3.993  0.7319  0.4870 -0.1724
16752TIP3    H271748   4.574   1.003   4.115 -0.3317 -0.0379 -0.6639
16753TIP3   OH271749   1.705   1.333  11.702  0.5801  0.6709 -0.2564
16753TIP3    H171750   1.643   1.386  11.652  1.9126  1.2066 -1.4026
16753TIP3    H271751   1.682   1.242  11.680  1.0979  0.8876 -1.8580
16754TIP3   OH271752   3.107   6.827   2.759 -0.0829 -0.2662  0.2961
16754TIP3    H171753   3.022   6.832   2.716 -0.4420 -2.4727  0.6139
16754TIP3    H271754   3.087   6.799   2.848  1.0382 -2.4705 -0.0862
16755TIP3   OH271755   3.417   5.993  12.507 -0.1122 -0.4508  0.2437
16755TIP3    H171756   3.383   6.078  12.479  0.6721 -0.5136 -0.9936
16755TIP3    H271757   3.342   5.933  12.498 -1.6276  0.5684  4.1168
16756TIP3   OH271758   0.314   4.204  16.766 -1.0990  0.5704 -0.5925
16756TIP3    H171759   0.331   4.191  16.673  2.7214 -0.5424  0.0629
16756TIP3    H271760   0.348   4.292  16.785  2.3878 -0.8036  0.3494
16757TIP3   OH271761   4.642   6.692  10.700 -0.9409  0.0435  0.1562
16757TIP3    H171762   4.718   6.662  10.650 -1.3766 -1.2611  0.2289
16757TIP3    H271763   4.638   6.786  10.684  0.0975 -0.0286 -0.6446
16758TIP3   OH271764   1.305   0.999   1.855 -0.3446 -0.1606  0.2108
16758TIP3    H171765   1.391   0.957   1.849 -1.6228 -2.8033 -1.2990
16758TIP3    H271766   1.280   0.989   1.947  1.4830  1.9656  1.0314
16759TIP3   OH271767   0.205   5.433   3.440 -0.4262  0.3511  0.4232
16759TIP3    H171768   0.191   5.521   3.407  0.5195  0.0311 -0.9069
16759TIP3    H271769   0.286   5.440   3.492 -0.8774  0.4535  1.1273
16760TIP3   OH271770   1.095   1.188  13.933  0.2707 -0.5636  0.2381
16760TIP3    H171771   1.104   1.200  13.838  1.9823 -0.0788  0.4285
16760TIP3    H271772   1.059   1.100  13.943 -1.7986  0.0800 -0.8855
16761TIP3   OH271773   1.124   3.911  13.391  0.3017  0.1402 -0.2750
16761TIP3    H171774   1.042   3.861  13.396  1.7188 -2.2472  0.6538
16761TIP3    H271775   1.162   3.903  13.478  1.2942  1.6393 -0.5475
16762TIP3   OH271776   3.840   2.437   5.879  0.1857  0.4094 -0.3504
16762TIP3    H171777   3.847   2.391   5.795 -0.1987  2.3353 -1.4860
16762TIP3    H271778   3.769   2.391   5.924 -0.7994  0.4058 -1.8142
16763TIP3   OH271779   4.319   6.261  11.904 -0.3856  0.1198  0.1811
16763TIP3    H171780   4.377   6.194  11.869 -0.0742 -0.8455  2.4134
16763TIP3    H271781   4.235   6.247  11.859  0.5859  0.4679 -1.8469
16764TIP3   OH271782   4.184   3.354  15.897  0.4297 -0.4218 -0.3863
16764TIP3    H171783   4.205   3.429  15.843 -0.9232  1.1873  1.1909
16764TIP3    H271784   4.218   3.376  15.984 -1.3901 -0.8362  0.4997
16765TIP3   OH271785   2.554   6.500   2.872 -0.7381 -0.2867  0.2429
16765TIP3    H171786   2.562   6.449   2.953 -0.5876  0.0140  0.4197
16765TIP3    H271787   2.636   6.483   2.825  0.3910  1.6204  1.3751
16766TIP3   OH271788   2.990   1.427   3.476 -0.5409 -0.3578 -0.5051
16766TIP3    H171789   2.959   1.343   3.510 -2.1816  0.4117 -0.0109
16766TIP3    H271790   3.016   1.409   3.386  0.5662 -1.6971  0.0507
16767TIP3   OH271791   5.408   6.755  12.025 -0.4080 -0.2699 -0.0941
16767TIP3    H171792   5.346   6.825  12.006 -0.7707  0.1960  2.4290
16767TIP3    H271793   5.450   6.737  11.941 -2.6853  0.6095 -1.5324
16768TIP3   OH271794   2.448   1.044   1.524 -0.5554 -0.1127 -0.0436
16768TIP3    H171795   2.444   1.052   1.619 -0.3270 -3.0363  0.3077
16768TIP3    H271796   2.397   0.965   1.504 -0.9111  0.6414 -2.3914
16769TIP3   OH271797   3.543   3.603   6.299  0.2827 -0.2554 -0.0498
16769TIP3    H171798   3.529   3.589   6.392 -0.1822  0.0628 -0.0695
16769TIP3    H271799   3.455   3.617   6.263  0.3765 -1.1170 -0.6560
16770TIP3   OH271800   3.947   2.291  11.972 -0.1672 -0.2474  0.1563
16770TIP3    H171801   3.943   2.258  11.882  0.8764  0.2574 -0.0922
16770TIP3    H271802   4.038   2.277  11.998 -0.1861  0.6414  0.7317
16771TIP3   OH271803   0.207   4.588   1.216  0.2700  0.1324 -0.0339
16771TIP3    H171804   0.266   4.604   1.290  1.4635  3.0211 -1.4519
16771TIP3    H271805   0.198   4.673   1.174 -4.3582 -0.3255 -0.4396
16772TIP3   OH271806   3.797   6.320  13.435  0.6738 -0.5195  0.0801
16772TIP3    H171807   3.749   6.239  13.420 -3.1001  1.5531 -0.2493
16772TIP3    H271808   3.788   6.335  13.529  1.8403 -0.6845  0.2360
16773TIP3   OH271809   3.558   6.804  13.320 -0.4905  0.1501 -0.5065
16773TIP3    H171810   3.480   6.818  13.374  1.0925  0.4490  1.8885
16773TIP3    H271811   3.565   6.709  13.312 -1.3350  0.1344 -1.1218
16774TIP3   OH271812   5.156   2.435  16.785  0.5920  0.2691  0.3440
16774TIP3    H171813   5.242   2.393  16.790  0.8316  0.1602 -2.8758
16774TIP3    H271814   5.158   2.500  16.855  2.8498 -0.4724  1.0797
16775TIP3   OH271815   3.021   2.101  12.622 -0.3848 -0.0532  0.3402
16775TIP3    H171816   3.075   2.025  12.600  1.2088  0.8918  0.8240
16775TIP3    H271817   2.942   2.090  12.569  1.5880  0.1146 -2.9610
16776TIP3   OH271818   3.043   4.480  17.058 -0.2041  0.4011  0.1491
16776TIP3    H171819   2.993   4.464  17.138  0.5724 -2.5493  0.1619
16776TIP3    H271820   2.977   4.482  16.989 -0.6104 -0.5985  0.4899
16777TIP3   OH271821   4.374   2.449   2.347 -0.3746  0.2189 -0.0281
16777TIP3    H171822   4.363   2.377   2.285  1.3115 -0.2864  0.2237
16777TIP3    H271823   4.407   2.407   2.427  0.5209  1.2453  0.1568
16778TIP3   OH271824   6.768   2.153   1.933  0.4531  0.5517  0.4839
16778TIP3    H171825   6.813   2.185   1.855  0.5406 -0.1793  0.2194
16778TIP3    H271826   6.770   2.226   1.995  1.4254  0.7489  0.2333
16779TIP3   OH271827   1.260   3.102   1.632  0.4386  0.6044 -0.4985
16779TIP3    H171828   1.177   3.119   1.677  0.5102  2.4478 -0.9537
16779TIP3    H271829   1.311   3.049   1.694 -0.8247  0.0076  0.0565
16780TIP3   OH271830   3.842   1.773   2.039  0.0647  0.2374 -0.1021
16780TIP3    H171831   3.893   1.773   2.120  0.5844  1.5235 -0.3921
16780TIP3    H271832   3.772   1.711   2.055  1.0458 -0.7002  0.7523
16781TIP3   OH271833   4.345   3.507  12.524 -0.1529 -0.4104  0.7442
16781TIP3    H171834   4.252   3.506  12.503  0.4166  0.0377 -2.1918
16781TIP3    H271835   4.373   3.417  12.513  0.1058 -0.2094 -0.4081
16782TIP3   OH271836   5.188   1.221   1.852 -0.0032 -0.5023  0.2983
16782TIP3    H171837   5.158   1.274   1.926 -1.4005 -1.4845  0.4855
16782TIP3    H271838   5.253   1.162   1.890  0.8577  0.4192  0.2841
16783TIP3   OH271839   0.459   3.491   4.181  0.3868  0.2594 -0.4895
16783TIP3    H171840   0.517   3.447   4.244  0.1375  0.2899 -0.2379
16783TIP3    H271841   0.474   3.445   4.099 -1.0513 -1.3764  0.1091
16784TIP3   OH271842   2.183   1.092   1.327 -0.0505 -0.3568 -0.3772
16784TIP3    H171843   2.267   1.134   1.343 -0.7688  1.4396 -1.0950
16784TIP3    H271844   2.206   1.009   1.285  1.4146 -0.8848  1.3053
16785TIP3   OH271845   2.007   4.623  12.734  0.1395 -0.0329  0.7109
16785TIP3    H171846   1.915   4.596  12.728  0.3038 -0.9336  1.8693
16785TIP3    H271847   2.044   4.600  12.649 -1.0179  1.7294 -0.3476
16786TIP3   OH271848   3.884   1.009  13.717  0.3946  0.2864  0.1561
16786TIP3    H171849   3.827   0.991  13.793  0.7545 -1.6081  0.0329
16786TIP3    H271850   3.823   1.031  13.646 -0.0174  0.8148  0.6597
16787TIP3   OH271851   0.257   6.613  16.253 -0.1836  0.5881 -0.1788
16787TIP3    H171852   0.315   6.593  16.180 -0.4900 -0.3224 -0.1833
16787TIP3    H271853   0.276   6.547  16.319 -1.5791 -0.0653 -0.3912
16788TIP3   OH271854   3.507   4.606  12.368  0.2725 -0.4230 -0.0827
16788TIP3    H171855   3.583   4.664  12.378 -1.4193  1.8152  0.4090
16788TIP3    H271856   3.485   4.610  12.275 -0.7367  0.9760  0.1908
16789TIP3   OH271857   2.017   5.684   5.894  0.4303  0.3863 -0.9736
16789TIP3    H171858   2.052   5.603   5.855 -1.1910 -0.2790 -1.1136
16789TIP3    H271859   2.018   5.667   5.988 -0.0577  0.1406 -1.0128
16790TIP3   OH271860   5.289   0.336   2.103 -0.0795  0.4514  0.0781
16790TIP3    H171861   5.332   0.334   2.189 -0.4550 -0.6589  0.2611
16790TIP3    H271862   5.360   0.348   2.040  0.3860 -0.3291  0.4423
16791TIP3   OH271863   6.685   6.829   3.993  0.1360  0.5214 -0.2429
16791TIP3    H171864   6.732   6.803   4.072 -0.2043 -1.8091 -0.7460
16791TIP3    H271865   6.754   6.847   3.929  0.3817  1.0283  0.1538
16792TIP3   OH271866   5.343   3.112   1.837  0.1400  0.0414 -0.7945
16792TIP3    H171867   5.401   3.158   1.897 -0.2673 -0.6038  0.1187
16792TIP3    H271868   5.394   3.103   1.757  1.0838  0.0298 -0.2114
16793TIP3   OH271869   6.324   3.190  11.556  0.2224  0.4842 -0.3198
16793TIP3    H171870   6.244   3.209  11.606 -0.0665  0.6297 -0.8316
16793TIP3    H271871   6.395   3.220  11.613 -0.1495  1.5034 -0.3725
16794TIP3   OH271872   2.869   0.199   1.834  0.3550 -0.1908  0.1806
16794TIP3    H171873   2.925   0.273   1.855  0.3990 -0.1585 -0.0459
16794TIP3    H271874   2.813   0.188   1.911 -0.6336  0.9830 -0.3437
16795TIP3   OH271875   2.600   5.999   4.161  0.2844 -0.0237 -0.3190
16795TIP3    H171876   2.591   5.913   4.119  0.6169  0.2593 -0.9733
16795TIP3    H271877   2.526   6.003   4.222  1.1829 -1.4371  0.9183
16796TIP3   OH271878   2.821   5.026   2.829  0.0561 -0.4774 -0.1564
16796TIP3    H171879   2.877   5.029   2.906 -0.0594 -1.4028 -0.0280
16796TIP3    H271880   2.732   5.027   2.863  0.0045 -1.0815 -0.2640
16797TIP3   OH271881   4.336   4.329  16.370 -0.4356  0.4622  0.2094
16797TIP3    H171882   4.341   4.374  16.285  0.8364  0.8162  0.4406
16797TIP3    H271883   4.269   4.376  16.418 -0.7862  0.6060 -0.4128
16798TIP3   OH271884   4.847   3.123  14.150 -0.0454 -0.5878 -0.2180
16798TIP3    H171885   4.778   3.096  14.210  1.8275 -1.2498  1.7691
16798TIP3    H271886   4.804   3.185  14.091 -2.9642 -2.9311 -0.8418
16799TIP3   OH271887   0.281   4.757   2.303 -0.4389 -0.0467  0.2358
16799TIP3    H171888   0.305   4.837   2.350 -0.2157 -0.6416  1.1461
16799TIP3    H271889   0.363   4.707   2.298 -0.8878 -0.8673  0.9531
16800TIP3   OH271890   2.694   4.685   6.381 -0.2331  0.3997 -0.0836
16800TIP3    H171891   2.686   4.598   6.419  2.5992 -0.6821 -1.6622
16800TIP3    H271892   2.691   4.745   6.455  0.6258 -1.2822  1.3669
16801TIP3   OH271893   5.472   3.011  13.636 -0.0508  0.0972 -0.4047
16801TIP3    H171894   5.480   2.964  13.719  2.8005  0.0440 -0.6308
16801TIP3    H271895   5.380   2.999  13.611 -0.6055 -1.1897  1.9444
16802TIP3   OH271896   6.608   4.395  13.276 -0.3821 -0.4982 -0.4069
16802TIP3    H171897   6.616   4.359  13.365 -2.2560  0.2604  0.1116
16802TIP3    H271898   6.699   4.408  13.248  0.3051  1.1192  2.1991
16803TIP3   OH271899   1.865   5.620   1.485 -0.0323  0.5512  0.1209
16803TIP3    H171900   1.902   5.603   1.571  1.7891 -0.7356 -0.8533
16803TIP3    H271901   1.854   5.715   1.482 -2.4665  0.4670  2.6244
16804TIP3   OH271902   4.432   4.152   2.566  0.3643  0.1842  0.0845
16804TIP3    H171903   4.356   4.101   2.536  0.0718  0.0985  0.9252
16804TIP3    H271904   4.489   4.158   2.490 -0.5654  0.3823 -0.6149
16805TIP3   OH271905   4.609   0.123   2.631 -0.8675  0.5965  0.1403
16805TIP3    H171906   4.529   0.116   2.579 -0.7376  0.5863 -0.0572
16805TIP3    H271907   4.589   0.077   2.712 -0.9745  0.3682 -0.0155
16806TIP3   OH271908   5.582   6.308  15.151 -0.1909 -0.0234  0.4591
16806TIP3    H171909   5.645   6.352  15.208  2.3633 -2.1839 -0.4889
16806TIP3    H271910   5.520   6.266  15.211  1.2993 -0.6607  1.6143
16807TIP3   OH271911   5.996   1.365   3.711  0.9033  0.6687  0.8441
16807TIP3    H171912   5.954   1.318   3.784  0.5918  0.4994  0.5560
16807TIP3    H271913   6.089   1.344   3.720  0.4974 -2.8234 -1.2297
16808TIP3   OH271914   1.996   0.026  14.360  0.0907 -0.2264 -0.0613
16808TIP3    H171915   2.028   0.075  14.285  0.8894  0.1996  0.5404
16808TIP3    H271916   1.928   0.082  14.398 -1.6758 -1.2592 -1.5075
16809TIP3   OH271917   2.863   6.616   3.459  0.4441  0.4141 -0.0372
16809TIP3    H171918   2.950   6.655   3.455 -0.4786  2.6041 -0.1886
16809TIP3    H271919   2.879   6.521   3.465  2.8029  0.7714  0.1772
16810TIP3   OH271920   6.206   1.954   0.932  0.3104  0.5835  0.4782
16810TIP3    H171921   6.193   1.986   1.021  0.2640 -1.2061  1.1539
16810TIP3    H271922   6.245   2.029   0.885 -3.9299  3.2421  0.6703
16811TIP3   OH271923   1.491   0.009   4.012 -0.1102 -0.1017  0.4779
16811TIP3    H171924   1.427  -0.058   3.986 -1.2879  1.2481 -0.2135
16811TIP3    H271925   1.452   0.048   4.090  0.9721 -0.7293  1.3635
16812TIP3   OH271926   1.984   0.393  16.061  0.1042 -0.3951  0.2861
16812TIP3    H171927   1.941   0.464  16.108 -0.7650 -1.0667  0.5368
16812TIP3    H271928   1.943   0.313  16.095  1.0347 -1.0213 -0.0035
16813TIP3   OH271929   5.752   2.000  12.077 -0.4180 -0.4457  0.0540
16813TIP3    H171930   5.680   1.961  12.126 -0.9228  0.3132 -0.0600
16813TIP3    H271931   5.714   2.079  12.037  0.0385 -0.9073 -1.3571
16814TIP3   OH271932   2.969   2.728   2.025  0.1490 -0.4410 -0.1813
16814TIP3    H171933   2.880   2.695   2.011  0.6623 -1.6999 -0.5545
16814TIP3    H271934   3.009   2.727   1.939  0.7036 -0.4103  0.0741
16815TIP3   OH271935   2.074   2.245  12.416  0.0213  0.0836 -0.3291
16815TIP3    H171936   2.119   2.320  12.376  2.2097 -0.7263  0.4490
16815TIP3    H271937   2.052   2.189  12.342  0.1497  0.5887 -0.7567
16816TIP3   OH271938   1.899   2.240   1.982  0.2122 -0.7252  0.5167
16816TIP3    H171939   1.814   2.231   2.025 -1.0017 -1.5618 -1.8839
16816TIP3    H271940   1.882   2.298   1.907  2.0910  0.1824  0.7333
16817TIP3   OH271941   1.022   2.943  12.356 -0.1724  0.0840 -0.0242
16817TIP3    H171942   1.090   2.891  12.313  0.1433  1.4005 -1.1847
16817TIP3    H271943   1.071   3.003  12.413 -0.5578 -1.2066  1.7801
16818TIP3   OH271944   5.292   4.970  16.090  0.7989  0.4965  0.1915
16818TIP3    H171945   5.204   5.002  16.110  0.4382  1.1943 -2.1953
16818TIP3    H271946   5.308   4.902  16.156 -1.1556  0.9456  1.2218
16819TIP3   OH271947   3.724   3.608   1.816 -0.1265 -0.4281  0.1831
16819TIP3    H171948   3.672   3.688   1.826  0.8593  0.0356  2.1504
16819TIP3    H271949   3.698   3.572   1.731 -1.5618  1.2704 -0.1418
16820TIP3   OH271950   0.553   2.757  15.454 -0.0560 -0.1817  0.7957
16820TIP3    H171951   0.471   2.735  15.412  1.0353 -1.0346 -1.0007
16820TIP3    H271952   0.561   2.696  15.527  0.5025 -2.4109 -1.0364
16821TIP3   OH271953   1.216   4.165   2.292 -0.3313 -0.2145  0.0496
16821TIP3    H171954   1.231   4.256   2.269  0.3757  0.1235  1.6909
16821TIP3    H271955   1.142   4.168   2.353  0.6572 -0.5246  1.3144
16822TIP3   OH271956   6.164   0.860   4.714  0.3121  0.2566 -0.3197
16822TIP3    H171957   6.206   0.945   4.722 -3.8608  2.5594  0.1857
16822TIP3    H271958   6.137   0.838   4.803  0.1579 -0.9242 -0.6421
16823TIP3   OH271959   2.143   4.910   3.266 -0.4791 -0.1118 -0.2493
16823TIP3    H171960   2.130   4.828   3.313  1.0044 -1.1925 -1.6347
16823TIP3    H271961   2.056   4.933   3.233 -0.6579 -2.0390 -1.2629
16824TIP3   OH271962   2.970   2.282  11.411 -0.6829 -0.1401  0.2811
16824TIP3    H171963   3.042   2.297  11.472  1.3955 -0.2801 -1.9447
16824TIP3    H271964   2.969   2.187  11.399 -1.3537 -0.1507  0.4221
16825TIP3   OH271965   0.449   4.328  12.488 -0.2860  0.3605  0.3926
16825TIP3    H171966   0.482   4.238  12.484 -0.7087  0.1770  0.9402
16825TIP3    H271967   0.528   4.382  12.495 -0.0046  0.0669 -0.3480
16826TIP3   OH271968   4.857   1.994   4.804  0.0730 -0.6640  0.4194
16826TIP3    H171969   4.869   1.966   4.713  1.9012  0.4578  0.2768
16826TIP3    H271970   4.946   2.002   4.839 -0.4815  1.3617  1.5360
16827TIP3   OH271971   6.543   2.227  13.655  0.8758  0.0813  0.5516
16827TIP3    H171972   6.527   2.243  13.562  1.0005  0.6839  0.6268
16827TIP3    H271973   6.510   2.139  13.670 -2.6698  1.2715  0.7190
16828TIP3   OH271974   4.676   4.772   3.663  0.0336  0.0433  0.3771
16828TIP3    H171975   4.765   4.778   3.696 -0.2619 -1.9627  1.6882
16828TIP3    H271976   4.676   4.694   3.608 -0.4895  1.0782 -1.1602
16829TIP3   OH271977   4.570   1.371  11.004  0.4840  0.4981 -0.5331
16829TIP3    H171978   4.646   1.402  10.954 -1.1045  2.5755 -1.8484
16829TIP3    H271979   4.495   1.393  10.949 -1.1583 -0.4325  1.2126
16830TIP3   OH271980   5.047   5.704  12.012  0.5027 -0.3015 -0.1906
16830TIP3    H171981   5.098   5.777  12.045 -0.1445 -0.5813  1.5078
16830TIP3    H271982   5.111   5.635  11.994  1.1324  0.6645 -1.9336
16831TIP3   OH271983   1.481   3.573  12.476 -0.6426  0.2823  0.6078
16831TIP3    H171984   1.421   3.603  12.544 -0.8549 -2.6344  1.8614
16831TIP3    H271985   1.445   3.489  12.448  1.9999 -0.8238  0.2620
16832TIP3   OH271986   6.679   2.314   4.716  0.9025  0.0512 -0.8190
16832TIP3    H171987   6.601   2.357   4.681  0.3056 -0.7688 -0.5296
16832TIP3    H271988   6.665   2.221   4.698  2.8558  0.0500 -2.7971
16833TIP3   OH271989   2.017   4.369   1.947  0.3610  0.2771 -0.6567
16833TIP3    H171990   2.050   4.305   2.011  0.8168  0.2704 -0.8942
16833TIP3    H271991   2.048   4.336   1.863 -1.7836 -0.7384 -1.1370
16834TIP3   OH271992   5.680   1.542   3.592  0.6004 -0.5600 -0.1477
16834TIP3    H171993   5.763   1.543   3.544  0.1018  2.3054 -1.1553
16834TIP3    H271994   5.669   1.632   3.622 -0.7920 -1.5277  2.4914
16835TIP3   OH271995   3.549   6.740  15.451 -0.3093  0.2807 -0.3338
16835TIP3    H171996   3.596   6.745  15.533 -1.1926  0.0643  0.2051
16835TIP3    H271997   3.474   6.799  15.462 -1.3404 -0.9671 -0.3365
16836TIP3   OH271998   2.319   5.474  14.185  0.3551  0.3755  0.0146
16836TIP3    H171999   2.230   5.445  14.166 -0.0083  1.1204  0.5429
16836TIP3    H272000   2.369   5.449  14.108  0.2594 -2.3949  0.7330
16837TIP3   OH272001   2.591   5.517   0.491  0.4375  0.1653 -0.6100
16837TIP3    H172002   2.523   5.450   0.483  1.2767 -0.4958 -3.4302
16837TIP3    H272003   2.547   5.599   0.469  0.4741 -0.2331 -2.2386
16838TIP3   OH272004   2.990   6.076  13.891  0.2395 -0.2856 -0.3062
16838TIP3    H172005   2.909   6.118  13.920  0.7871  1.3377 -1.0236
16838TIP3    H272006   3.031   6.140  13.833  0.6197 -2.2303 -2.3111
16839TIP3   OH272007   1.689   4.663   4.331 -0.6609  0.5196 -0.0865
16839TIP3    H172008   1.698   4.730   4.399 -2.0733 -0.7553  1.4543
16839TIP3    H272009   1.739   4.588   4.364 -0.4552  0.2329 -1.0056
16840TIP3   OH272010   1.466   5.358   3.723  0.6783 -0.1217  0.4333
16840TIP3    H172011   1.371   5.353   3.736  1.0461 -0.0249  4.4508
16840TIP3    H272012   1.481   5.449   3.695 -0.4365 -0.5834 -1.9449
16841TIP3   OH272013   5.554   3.965  10.915 -0.4999  0.3604 -0.1728
16841TIP3    H172014   5.632   3.965  10.859 -0.7640 -1.1313 -0.5917
16841TIP3    H272015   5.556   3.880  10.959  0.0334  1.7470  2.6438
16842TIP3   OH272016   0.365   3.912  16.839 -0.1248 -0.6487 -0.1292
16842TIP3    H172017   0.349   4.003  16.811  0.6306 -0.6245 -0.5139
16842TIP3    H272018   0.297   3.861  16.795  0.4352 -0.4744 -1.2425
16843TIP3   OH272019   1.031   0.039  10.838  0.1841  0.0617  0.0141
16843TIP3    H172020   1.016   0.038  10.743  2.4522 -0.3629 -0.4028
16843TIP3    H272021   1.100   0.103  10.851  0.3148 -0.3118  1.3228
16844TIP3   OH272022   3.103   6.006  13.175  1.0516 -0.4183 -0.0091
16844TIP3    H172023   3.029   5.952  13.145  1.7183 -0.5185 -1.5301
16844TIP3    H272024   3.062   6.078  13.223 -0.2774  0.9964 -3.0257
16845TIP3   OH272025   6.591   2.024  13.364  0.3790  0.5313 -0.0680
16845TIP3    H172026   6.682   2.048  13.382  0.0348  1.7349  0.1347
16845TIP3    H272027   6.548   2.106  13.343 -0.6190 -0.0622 -0.4012
16846TIP3   OH272028   0.449   5.701  15.580  0.3692  0.3477 -0.6429
16846TIP3    H172029   0.513   5.679  15.513  0.5992  1.4451 -0.8031
16846TIP3    H272030   0.380   5.634  15.571  0.2271  0.6792 -2.1986
16847TIP3   OH272031   6.510   4.650  12.701 -0.4677 -0.1775  0.4016
16847TIP3    H172032   6.573   4.581  12.681 -0.2923  0.3476 -0.9761
16847TIP3    H272033   6.532   4.678  12.790  1.7458  0.4680 -0.2773
16848TIP3   OH272034   4.356   6.672   1.772 -0.3620  0.2882  0.4422
16848TIP3    H172035   4.336   6.766   1.772  0.0600  0.3866 -0.2819
16848TIP3    H272036   4.327   6.641   1.858 -1.3063  0.9045  0.3656
16849TIP3   OH272037   0.504   0.542  11.908 -0.3066  0.6624  0.1921
16849TIP3    H172038   0.434   0.606  11.919 -1.6498 -0.4663 -1.4092
16849TIP3    H272039   0.477   0.467  11.960 -0.7382 -0.0803 -1.0486
16850TIP3   OH272040   0.552   5.094  12.709 -1.0973  0.1501  0.1786
16850TIP3    H172041   0.459   5.093  12.684 -0.8473  0.5930 -0.8271
16850TIP3    H272042   0.599   5.091  12.625 -0.1519 -2.3432  0.6993
16851TIP3   OH272043   2.489   3.162   0.208 -0.2733  0.4097 -0.7409
16851TIP3    H172044   2.434   3.180   0.133  0.3596  0.8147 -1.1162
16851TIP3    H272045   2.579   3.174   0.176 -0.0203  1.4784  0.2958
16852TIP3   OH272046   6.026   5.728  13.275 -0.1750  0.1707  0.0005
16852TIP3    H172047   6.004   5.821  13.279 -2.1438 -0.1627 -1.4246
16852TIP3    H272048   6.011   5.703  13.184 -0.6855 -1.7461  0.5525
16853TIP3   OH272049   6.048   1.395   1.774  0.5031 -0.0833 -0.4625
16853TIP3    H172050   6.090   1.371   1.692  0.3946 -0.6370 -0.3613
16853TIP3    H272051   5.965   1.435   1.748 -0.3668 -1.8714 -0.6090
16854TIP3   OH272052   2.884   5.843  11.909  0.2861 -0.3360  0.6500
16854TIP3    H172053   2.791   5.849  11.931 -0.1218 -0.2148 -0.9304
16854TIP3    H272054   2.903   5.750  11.908  0.7479 -0.3241  2.9835
16855TIP3   OH272055   6.357   5.588   5.326  0.5598  0.3699 -0.2839
16855TIP3    H172056   6.356   5.614   5.418 -0.3280 -1.6665  0.3556
16855TIP3    H272057   6.265   5.572   5.305  0.7227  1.0856 -1.6235
16856TIP3   OH272058   5.959   5.604  16.178 -0.3531  0.2332 -0.4526
16856TIP3    H172059   5.895   5.574  16.243 -0.3885 -0.9062 -0.9909
16856TIP3    H272060   5.998   5.682  16.218 -2.0019  0.9226 -0.0732
16857TIP3   OH272061   2.405   5.810  16.001  0.8583  0.7714 -0.0007
16857TIP3    H172062   2.440   5.890  15.962  1.9233 -0.3568 -1.5339
16857TIP3    H272063   2.483   5.755  16.016  0.3564  0.6724  2.7038
16858TIP3   OH272064   4.817   2.807   4.779 -0.0164  0.4197  0.1396
16858TIP3    H172065   4.778   2.720   4.768 -1.1159  0.8747  0.3122
16858TIP3    H272066   4.746   2.868   4.756  0.6560  1.2727  0.2890
16859TIP3   OH272067   0.849   3.583  14.870  0.1847  0.2701 -0.2495
16859TIP3    H172068   0.847   3.674  14.898  0.1862  0.0441  0.5142
16859TIP3    H272069   0.931   3.574  14.822 -0.2894  0.9134 -1.1995
16860TIP3   OH272070   2.139   4.539  16.420  0.0030  0.2424 -0.3518
16860TIP3    H172071   2.185   4.581  16.493  0.2423 -0.0298 -0.3444
16860TIP3    H272072   2.172   4.449  16.420 -1.0496 -0.1710  0.1185
16861TIP3   OH272073   6.844   4.799   4.164  0.2458 -0.1011 -0.4375
16861TIP3    H172074   6.773   4.798   4.100  0.5040 -0.6072 -0.7214
16861TIP3    H272075   6.807   4.843   4.241  0.1920  1.2818 -1.2162
16862TIP3   OH272076   6.319   0.449   2.242 -0.0751 -0.5130  1.0150
16862TIP3    H172077   6.336   0.433   2.335  1.0788  0.3835  0.9776
16862TIP3    H272078   6.223   0.452   2.236 -0.1598 -0.1329  2.2502
16863TIP3   OH272079   4.761   6.033  15.552 -0.6758 -0.0560  0.6355
16863TIP3    H172080   4.728   6.113  15.511  1.8502  0.1031 -1.3546
16863TIP3    H272081   4.835   6.063  15.605 -1.3552 -0.7986  2.0547
16864TIP3   OH272082   5.833   0.801  14.415 -0.0169  0.3564  0.2340
16864TIP3    H172083   5.896   0.782  14.346  0.9751  4.2927 -0.1915
16864TIP3    H272084   5.886   0.808  14.494  0.3295  3.8120 -0.1445
16865TIP3   OH272085   5.904   3.838  15.777 -0.1521 -0.1981 -0.2968
16865TIP3    H172086   5.924   3.811  15.688 -1.1276 -1.1507 -0.2405
16865TIP3    H272087   5.908   3.758  15.828 -1.8617 -0.0679  0.1039
16866TIP3   OH272088   6.562   5.646  12.396 -0.0264 -0.5206 -0.1401
16866TIP3    H172089   6.631   5.625  12.459  1.2589  0.6468 -1.0768
16866TIP3    H272090   6.520   5.724  12.433 -1.7237 -1.9480  1.0511
16867TIP3   OH272091   2.597   3.980   2.095  0.3510 -0.1364  0.1371
16867TIP3    H172092   2.655   4.050   2.125  2.8002 -1.3861 -1.3647
16867TIP3    H272093   2.649   3.900   2.104 -1.2435 -1.3729 -1.0504
16868TIP3   OH272094   6.592   6.146   3.898 -0.2453  0.5165 -0.7747
16868TIP3    H172095   6.533   6.077   3.929 -0.3734  1.4014  1.0648
16868TIP3    H272096   6.546   6.186   3.824 -1.0682 -0.0612 -0.5837
16869TIP3   OH272097   2.305   1.421  15.942 -0.3920 -0.5075  0.2627
16869TIP3    H172098   2.268   1.337  15.968 -1.5808  0.0433  0.4608
16869TIP3    H272099   2.304   1.474  16.022 -0.2113 -0.1282  0.0195
16870TIP3   OH272100   0.440   0.155  15.213  0.6708 -0.6716  0.0608
16870TIP3    H172101   0.387   0.160  15.134  0.7689  0.1329  0.0389
16870TIP3    H272102   0.452   0.246  15.240  0.0115 -0.9762  1.4280
16871TIP3   OH272103   4.037   3.318  15.413 -0.0374  0.0577 -0.1248
16871TIP3    H172104   4.049   3.411  15.397 -0.4919  0.7780  3.0074
16871TIP3    H272105   4.043   3.277  15.327  0.2852  2.9430 -1.5755
16872TIP3   OH272106   6.263   4.240  13.424 -0.0170 -0.2752 -0.2851
16872TIP3    H172107   6.336   4.188  13.457  0.0062 -0.9552 -1.3521
16872TIP3    H272108   6.227   4.188  13.352 -2.2576 -0.4832  0.8990
16873TIP3   OH272109   2.032   6.474   5.857  0.1578 -0.1286 -0.4236
16873TIP3    H172110   2.119   6.441   5.878 -0.7256 -1.3479  1.5684
16873TIP3    H272111   1.973   6.400   5.871 -1.4952  1.3327  0.8871
16874TIP3   OH272112   3.789   6.032   3.648  0.1271 -0.3426  0.9144
16874TIP3    H172113   3.744   6.103   3.693 -0.8601 -0.1466 -0.3202
16874TIP3    H272114   3.791   6.059   3.556  0.1661 -1.6854  0.4980
16875TIP3   OH272115   1.831   2.893  13.843 -0.0241  0.2540 -0.3375
16875TIP3    H172116   1.829   2.798  13.853 -0.3117  0.0845 -1.8585
16875TIP3    H272117   1.821   2.926  13.933  1.5953 -1.1361  0.4114
16876TIP3   OH272118   2.027   1.808   3.666  0.4344  0.2798  0.3222
16876TIP3    H172119   1.938   1.813   3.702  0.7772  3.4721  1.0099
16876TIP3    H272120   2.019   1.751   3.590 -1.6298 -1.5740  1.7878
16877TIP3   OH272121   4.897   0.095   0.103 -0.3587 -0.9321  0.1602
16877TIP3    H172122   4.871   0.131   0.018 -1.1379 -0.9046  0.4045
16877TIP3    H272123   4.871   0.162   0.166 -0.0069 -1.0618  0.4446
16878TIP3   OH272124   0.947   4.126   0.430  0.3731  0.1699  0.2683
16878TIP3    H172125   0.947   4.172   0.513 -1.9410  0.6825  0.0483
16878TIP3    H272126   0.872   4.066   0.436  1.2723 -1.1093 -0.7536
16879TIP3   OH272127   3.898   4.276  14.723 -0.8023  0.0608 -0.3208
16879TIP3    H172128   3.950   4.197  14.707 -0.4920  0.1596  0.2146
16879TIP3    H272129   3.850   4.289  14.641  1.6198  1.2082 -1.6686
16880TIP3   OH272130   4.682   0.530  14.199 -0.1541 -0.2379  0.3010
16880TIP3    H172131   4.734   0.596  14.152  0.0939 -0.2881  0.4989
16880TIP3    H272132   4.710   0.447  14.162  0.5133 -0.3270  0.9697
16881TIP3   OH272133   4.362   2.175   2.276 -0.5817  0.2127 -0.6729
16881TIP3    H172134   4.303   2.111   2.316  0.5530 -2.0628 -2.4286
16881TIP3    H272135   4.354   2.159   2.182 -0.0344  2.5226 -1.1725
16882TIP3   OH272136   5.371   1.891  15.504 -0.3134  1.1398  0.5896
16882TIP3    H172137   5.316   1.821  15.540  0.2211  0.1402 -0.4782
16882TIP3    H272138   5.319   1.929  15.434  1.0712 -1.2667 -1.9294
16883TIP3   OH272139   4.663   3.593  12.408  0.1867 -0.0666 -0.5721
16883TIP3    H172140   4.638   3.681  12.436  2.0426  0.9932 -1.9899
16883TIP3    H272141   4.662   3.541  12.488  1.6644  1.9233  0.8238
16884TIP3   OH272142   2.119   5.523   1.426  0.4466 -0.0686  0.3811
16884TIP3    H172143   2.089   5.604   1.384 -0.7326 -0.8008 -0.2295
16884TIP3    H272144   2.085   5.528   1.515  0.7343  0.2955  0.4721
16885TIP3   OH272145   6.386   3.224  16.673  0.0718  0.1377  0.1452
16885TIP3    H172146   6.385   3.262  16.761 -0.2382 -0.7510  0.5334
16885TIP3    H272147   6.317   3.270  16.626 -0.5180 -0.1611  0.7069
16886TIP3   OH272148   2.228   6.079   2.791  0.4310  0.2648  0.3028
16886TIP3    H172149   2.160   6.147   2.787 -0.1008 -0.2621  0.1111
16886TIP3    H272150   2.248   6.071   2.884 -0.2170  0.0024  0.4283
16887TIP3   OH272151   4.557   4.601   2.099 -0.0996 -0.2601  0.3470
16887TIP3    H172152   4.627   4.590   2.036 -0.8058 -0.3649 -0.4322
16887TIP3    H272153   4.600   4.593   2.184  0.6871 -1.1366 -0.1216
16888TIP3   OH272154   6.599   2.537   6.185  0.4055  0.5175  0.4636
16888TIP3    H172155   6.514   2.541   6.229 -0.9585  0.3619 -1.9993
16888TIP3    H272156   6.642   2.460   6.223 -2.0262 -1.5184 -0.6458
16889TIP3   OH272157   0.831   6.711  16.094 -0.0060  0.0229  0.0293
16889TIP3    H172158   0.757   6.694  16.152  0.4495  0.8144  0.8668
16889TIP3    H272159   0.862   6.624  16.069  0.3819 -0.3711  1.7553
16890TIP3   OH272160   3.648   4.016   2.761  0.1141  0.2655  0.8416
16890TIP3    H172161   3.608   4.048   2.680  0.4835  1.1206  0.9844
16890TIP3    H272162   3.575   3.981   2.811 -0.2930  0.7759  0.6197
16891TIP3   OH272163   4.623   1.864   6.030 -0.4802 -0.0184  0.0644
16891TIP3    H172164   4.528   1.867   6.033 -0.4870 -0.6324  0.7689
16891TIP3    H272165   4.650   1.954   6.049 -0.9104 -0.0207  0.7242
16892TIP3   OH272166   0.696   6.566  16.869 -0.2300  0.1005  0.4544
16892TIP3    H172167   0.609   6.546  16.835  0.6080  1.1512 -2.7138
16892TIP3    H272168   0.741   6.482  16.873 -1.5001 -0.5388  2.7422
16893TIP3   OH272169   4.398   4.086   0.370  0.4021 -0.2079  0.4836
16893TIP3    H172170   4.444   4.105   0.451  0.3032  2.4171  0.0293
16893TIP3    H272171   4.464   4.050   0.312  1.5305  1.8255  0.4261
16894TIP3   OH272172   2.951   3.463  12.902  0.3627 -0.5441  0.3021
16894TIP3    H172173   2.983   3.444  12.991 -0.5265 -0.7961  0.5732
16894TIP3    H272174   2.971   3.556  12.889  0.2664 -0.4380  0.8692
16895TIP3   OH272175   6.361   4.945   5.820  0.2620 -0.8046 -0.0512
16895TIP3    H172176   6.456   4.940   5.836  0.5491 -0.0516 -1.3619
16895TIP3    H272177   6.351   4.920   5.728 -0.4412  1.9603 -0.8284
16896TIP3   OH272178   1.860   1.142  16.245  0.2436 -0.1659  0.5947
16896TIP3    H172179   1.868   1.121  16.151 -0.1267 -2.7040  1.0660
16896TIP3    H272180   1.776   1.188  16.252  0.4219  0.3385 -0.3371
16897TIP3   OH272181   6.129   2.940   1.843 -0.5670 -0.1216 -0.0433
16897TIP3    H172182   6.097   3.014   1.792 -1.2120  0.3301  0.9786
16897TIP3    H272183   6.081   2.945   1.926  1.0999 -0.2660  0.9949
16898TIP3   OH272184   6.849   2.830   2.509  0.2184 -0.3641 -0.1420
16898TIP3    H172185   6.861   2.923   2.529 -1.4133 -0.5326  2.0208
16898TIP3    H272186   6.883   2.784   2.586  0.8754 -1.5725 -1.1136
16899TIP3   OH272187   6.287   3.538   2.739 -0.0595 -0.5616  0.5913
16899TIP3    H172188   6.262   3.556   2.648  2.3387 -0.6599 -0.1387
16899TIP3    H272189   6.275   3.443   2.748 -1.0861 -0.4429  0.6774
16900TIP3   OH272190   5.166   2.573  12.120 -0.3889 -0.3140  0.0612
16900TIP3    H172191   5.261   2.579  12.129 -0.5629  1.5531  1.1307
16900TIP3    H272192   5.140   2.503  12.180  0.4494 -2.3892 -1.8496
16901TIP3   OH272193   2.039   0.576   5.222  0.7022  0.1663  0.1024
16901TIP3    H172194   2.012   0.521   5.147  1.2714  0.8703 -0.6407
16901TIP3    H272195   1.959   0.619   5.250  0.6339  0.5746 -0.6820
16902TIP3   OH272196   0.285   2.462   5.230 -0.2580  0.2134  0.2784
16902TIP3    H172197   0.300   2.384   5.177 -0.4860  0.7536 -0.5863
16902TIP3    H272198   0.190   2.467   5.240 -0.2885  0.7606 -0.2494
16903TIP3   OH272199   2.141   2.023   0.272 -0.2195 -0.2053 -0.2559
16903TIP3    H172200   2.185   1.940   0.293 -0.3054 -0.5103 -1.2246
16903TIP3    H272201   2.206   2.074   0.225 -0.1612  0.2920  0.3600
16904TIP3   OH272202   4.815   2.950  16.315 -0.3407  0.0167  0.4452
16904TIP3    H172203   4.811   2.925  16.223 -1.0915  0.2779  0.4018
16904TIP3    H272204   4.906   2.977  16.328  0.2650 -1.8048  0.2636
16905TIP3   OH272205   5.931   4.920   5.061  0.1998  0.4128 -0.3428
16905TIP3    H172206   5.943   4.949   5.152 -0.4766 -1.9528  0.5715
16905TIP3    H272207   5.884   4.993   5.019 -0.2476  1.2101  1.4303
16906TIP3   OH272208   1.774   6.518   2.347  0.0279 -0.2627 -0.5947
16906TIP3    H172209   1.699   6.491   2.294  0.0241  0.6360 -1.0616
16906TIP3    H272210   1.847   6.523   2.285  0.7473 -2.1407  0.0334
16907TIP3   OH272211   2.094   5.526  13.099  0.2880  0.0515 -0.2668
16907TIP3    H172212   2.005   5.517  13.065  0.2013  0.8143 -0.2626
16907TIP3    H272213   2.131   5.438  13.094 -1.3638 -0.8910  2.3078
16908TIP3   OH272214   0.694   5.484   6.783 -0.5112 -0.5475  0.0500
16908TIP3    H172215   0.772   5.455   6.737 -1.1331 -0.6359 -0.9776
16908TIP3    H272216   0.706   5.454   6.873  1.4815  1.0425  0.3900
16909TIP3   OH272217   0.160   4.014   0.150  0.0668  0.2974  0.5264
16909TIP3    H172218   0.231   4.035   0.090  0.6054 -0.1659  1.0000
16909TIP3    H272219   0.157   3.919   0.152  0.2118  0.3098  1.4295
16910TIP3   OH272220   0.806   0.473  16.506  0.8043 -0.1169  0.2702
16910TIP3    H172221   0.714   0.493  16.526  0.5604  1.1697 -1.7717
16910TIP3    H272222   0.801   0.399  16.445  1.0160  0.5488 -0.5873
16911TIP3   OH272223   3.439   1.112   0.978 -0.2148 -0.2853  0.1207
16911TIP3    H172224   3.429   1.161   1.060 -0.1897  0.1269 -0.1173
16911TIP3    H272225   3.350   1.104   0.945 -0.2253 -0.4546  0.1920
16912TIP3   OH272226   5.943   2.414  13.702  0.2747  0.2222 -0.4392
16912TIP3    H172227   5.851   2.386  13.708  0.9877 -2.1590  0.5628
16912TIP3    H272228   5.946   2.467  13.623 -2.0007  0.5435 -0.3994
16913TIP3   OH272229   5.759   6.456  12.853  0.1510 -0.1200 -0.1886
16913TIP3    H172230   5.750   6.545  12.819 -3.2457 -0.0868  0.4363
16913TIP3    H272231   5.723   6.400  12.784  0.3830 -0.8086  0.2334
16914TIP3   OH272232   0.132   0.012   0.090  0.2166  0.5261 -0.0933
16914TIP3    H172233   0.151  -0.002  -0.003 -1.1129  2.7630 -0.7848
16914TIP3    H272234   0.041   0.041   0.092 -0.1362 -0.5263  2.0698
16915TIP3   OH272235   2.865   4.009   2.863  0.3459  0.2661 -0.0962
16915TIP3    H172236   2.832   3.975   2.946  0.6918 -0.2116 -0.1563
16915TIP3    H272237   2.849   4.104   2.868 -1.9893 -0.0451 -0.5436
16916TIP3   OH272238   2.363   4.336  13.585 -0.2225 -0.5997 -0.1107
16916TIP3    H172239   2.359   4.381  13.501  0.2439  2.5485  1.4147
16916TIP3    H272240   2.456   4.324  13.602 -0.3251 -1.7200 -0.2246
16917TIP3   OH272241   3.991   3.239   4.382  0.5052 -0.3397  0.4519
16917TIP3    H172242   3.896   3.249   4.394  0.2866  0.0937 -1.3219
16917TIP3    H272243   4.001   3.154   4.340  0.4719  1.0407 -2.6893
16918TIP3   OH272244   0.190   6.794  12.167  0.0795 -0.6949  0.1098
16918TIP3    H172245   0.197   6.728  12.097 -0.1216  1.1970 -1.8183
16918TIP3    H272246   0.255   6.860  12.143 -1.8287  1.3164  0.1495
16919TIP3   OH272247   5.890   2.511  14.873 -0.5107  0.3701  0.0520
16919TIP3    H172248   5.929   2.586  14.919  0.6516 -0.1492 -0.0667
16919TIP3    H272249   5.964   2.464  14.836 -1.1871 -1.1508  0.5700
16920TIP3   OH272250   2.870   0.423  14.579 -0.1356 -0.6345  0.1392
16920TIP3    H172251   2.802   0.400  14.643  3.0331 -1.9707  3.3547
16920TIP3    H272252   2.887   0.516  14.596  1.5418 -1.2506  2.3831
16921TIP3   OH272253   6.301   5.626  16.777 -0.0715  0.0137  0.3630
16921TIP3    H172254   6.345   5.575  16.845  1.6421  0.8582 -0.0415
16921TIP3    H272255   6.217   5.651  16.816  0.0094 -1.2223  1.3839
16922TIP3   OH272256   6.257   2.426  16.301  0.1476 -0.5278 -0.6892
16922TIP3    H172257   6.169   2.462  16.288 -0.2055 -0.9914  0.3261
16922TIP3    H272258   6.246   2.331  16.290  0.2300 -0.7313  0.8392
16923TIP3   OH272259   6.532   1.069  10.772  0.2460  0.0178 -0.0832
16923TIP3    H172260   6.576   0.994  10.813  0.7436 -0.2388 -1.0503
16923TIP3    H272261   6.462   1.030  10.720  1.5252  0.0266 -1.9262
16924TIP3   OH272262   6.675   6.220   1.866 -0.1051  0.2846 -0.4056
16924TIP3    H172263   6.754   6.188   1.910 -1.3174 -2.8145 -0.2624
16924TIP3    H272264   6.698   6.220   1.773  0.8972  2.1927 -0.2185
16925TIP3   OH272265   2.833   2.615   4.291  0.1427  0.3699 -0.7284
16925TIP3    H172266   2.895   2.586   4.224  2.4697  1.7656  0.6716
16925TIP3    H272267   2.830   2.544   4.354  1.0491  0.6162 -0.3823
16926TIP3   OH272268   1.364   1.991  13.027  0.3130 -0.0502  0.0678
16926TIP3    H172269   1.450   1.955  13.004 -0.0373 -0.5200 -0.5642
16926TIP3    H272270   1.328   2.021  12.944  0.3245  1.1966  0.4972
16927TIP3   OH272271   4.994   1.825  14.024  0.5956 -0.1458 -0.3962
16927TIP3    H172272   4.941   1.881  13.967  0.6758  0.6702  0.3260
16927TIP3    H272273   4.950   1.827  14.109 -0.6942 -3.0000 -0.8709
16928TIP3   OH272274   6.044   2.821   0.400 -0.8839  0.3886 -0.0526
16928TIP3    H172275   6.126   2.780   0.373 -0.4354 -0.3008  2.1521
16928TIP3    H272276   6.049   2.910   0.365  0.2680  0.0102 -0.9083
16929TIP3   OH272277   2.203   5.276  13.088  0.0064 -0.0621  0.3569
16929TIP3    H172278   2.233   5.198  13.135  1.2963 -0.1953 -0.6430
16929TIP3    H272279   2.274   5.297  13.028 -0.8823  1.1242 -0.3262
16930TIP3   OH272280   0.178   0.738   0.516 -0.0258 -0.0248  0.4928
16930TIP3    H172281   0.214   0.810   0.465  0.8973  0.5495  1.8995
16930TIP3    H272282   0.212   0.659   0.473  1.0654  0.4490  0.4549
16931TIP3   OH272283   3.209   5.120  11.690 -0.0429  0.2146 -0.1879
16931TIP3    H172284   3.140   5.080  11.637 -0.8941  1.2299  0.1326
16931TIP3    H272285   3.163   5.168  11.758  1.0035  0.4083  0.4038
16932TIP3   OH272286   5.324   1.154  14.570 -0.3586 -0.0617 -0.1508
16932TIP3    H172287   5.238   1.177  14.606 -0.4302 -0.2936 -0.1716
16932TIP3    H272288   5.387   1.197  14.628 -0.4938  0.2954 -0.2677
16933TIP3   OH272289   5.833   5.807   1.116  0.7507 -0.7874 -0.1515
16933TIP3    H172290   5.761   5.824   1.055  0.5926  0.4014  0.3400
16933TIP3    H272291   5.811   5.723   1.156 -0.5201 -0.3143  0.1894
16934TIP3   OH272292   3.568   2.141   4.447 -0.2773 -0.2814  0.6486
16934TIP3    H172293   3.543   2.189   4.526 -0.4219 -0.7830  0.9117
16934TIP3    H272294   3.558   2.049   4.471 -2.1699 -0.4362 -0.5619
16935TIP3   OH272295   2.570   4.218  14.435 -0.0064  0.0332  0.1581
16935TIP3    H172296   2.549   4.252  14.348 -1.0756 -0.1378  0.3430
16935TIP3    H272297   2.623   4.287  14.475  0.6247  0.0511 -0.6682
16936TIP3   OH272298   5.201   0.931  11.544 -0.5104  0.1918 -0.0964
16936TIP3    H172299   5.162   0.971  11.466 -2.3245 -0.1592  0.5670
16936TIP3    H272300   5.269   0.993  11.571 -1.0004  1.1606 -0.9854
16937TIP3   OH272301   4.207   2.517  16.672  0.6101 -0.1014  0.7086
16937TIP3    H172302   4.168   2.500  16.758  0.1050  3.2481  1.2586
16937TIP3    H272303   4.139   2.490  16.610 -0.1001 -0.0632  1.4421
16938TIP3   OH272304   0.569   0.082  16.533 -0.0632  0.5081 -0.3252
16938TIP3    H172305   0.476   0.084  16.513 -0.1769  0.7871  0.2043
16938TIP3    H272306   0.574   0.040  16.619 -0.0895  3.9879  1.5507
16939TIP3   OH272307   3.753   4.644  16.935  0.5101 -0.5584 -0.4714
16939TIP3    H172308   3.808   4.658  16.857  2.1168 -1.5070  0.4258
16939TIP3    H272309   3.815   4.649  17.008 -0.5355 -2.0376  0.5698
16940TIP3   OH272310   1.800   0.284  15.470 -0.3643 -0.8654 -0.0124
16940TIP3    H172311   1.885   0.240  15.470 -1.4954 -3.2016  0.6552
16940TIP3    H272312   1.797   0.329  15.385  2.1863  0.7425  0.6435
16941TIP3   OH272313   6.202   0.250   0.817 -0.1617 -0.7257  0.0830
16941TIP3    H172314   6.118   0.209   0.838 -1.4243  0.5806 -2.0256
16941TIP3    H272315   6.267   0.181   0.832 -1.7185 -2.1154  0.7501
16942TIP3   OH272316   6.713   5.202   1.314 -0.2390  0.1454 -0.6417
16942TIP3    H172317   6.703   5.296   1.301  0.1670 -0.0166 -2.3510
16942TIP3    H272318   6.624   5.170   1.325 -0.4021  0.6957 -0.3483
16943TIP3   OH272319   2.691   3.232  16.993  0.0933 -0.4945  0.1576
16943TIP3    H172320   2.730   3.199  17.073  0.5140  0.6438  0.4270
16943TIP3    H272321   2.597   3.212  17.002  0.0578  0.0521  1.1531
16944TIP3   OH272322   0.619   0.920   3.659  0.3281  0.2170  0.2064
16944TIP3    H172323   0.694   0.877   3.700  0.1101 -0.4418 -0.0708
16944TIP3    H272324   0.655   1.001   3.624  0.9942 -0.2542 -0.2339
16945TIP3   OH272325   4.248   1.264  13.989  0.4826 -0.5998  0.4000
16945TIP3    H172326   4.161   1.299  13.975  0.8181  0.0575 -0.0806
16945TIP3    H272327   4.241   1.213  14.070  0.3137  1.7809  2.0029
16946TIP3   OH272328   5.141   0.818  15.279  0.2531 -0.2226  0.2811
16946TIP3    H172329   5.119   0.779  15.195 -0.5327  1.4052 -0.2987
16946TIP3    H272330   5.184   0.901  15.257 -0.8398  0.6977  1.4498
16947TIP3   OH272331   3.334   2.439   0.130 -0.1717  0.3421 -0.0427
16947TIP3    H172332   3.267   2.446   0.198 -2.1727 -2.7754 -1.4528
16947TIP3    H272333   3.322   2.517   0.076 -0.4853  1.4049  1.5025
16948TIP3   OH272334   6.730   2.687  15.473 -0.0833  0.2637 -0.1048
16948TIP3    H172335   6.771   2.601  15.486  0.3717  0.6045  0.8382
16948TIP3    H272336   6.671   2.674  15.399 -1.7810 -1.5144  1.4060
16949TIP3   OH272337   3.870   3.700  13.275 -0.0164 -0.0763 -0.1727
16949TIP3    H172338   3.805   3.770  13.269  0.0904  0.0768  0.4033
16949TIP3    H272339   3.828   3.633  13.329  0.5481  0.3155  0.7786
16950TIP3   OH272340   2.348   1.691  13.141  0.3045  0.1247  0.1703
16950TIP3    H172341   2.266   1.735  13.162 -0.3732 -0.8141 -0.4349
16950TIP3    H272342   2.384   1.739  13.066 -0.4736 -0.3843 -0.5431
16951TIP3   OH272343   0.055   5.561   4.904 -0.2797  0.1613 -0.0847
16951TIP3    H172344   0.033   5.654   4.913  1.1324  0.4424  0.7182
16951TIP3    H272345  -0.019   5.515   4.942  0.4311  1.0751  2.5670
16952TIP3   OH272346   5.781   2.851   0.331 -0.2831  0.0943 -0.1842
16952TIP3    H172347   5.861   2.810   0.362 -0.1981  1.6406  1.8247
16952TIP3    H272348   5.807   2.900   0.253 -0.2984 -3.0820 -2.3707
16953TIP3   OH272349   0.529   3.908   2.457  0.2460 -0.0918  0.5375
16953TIP3    H172350   0.567   3.946   2.378  0.3335 -1.2906 -0.0305
16953TIP3    H272351   0.603   3.893   2.515  0.1002  1.4181  1.1451
16954TIP3   OH272352   1.784   4.522  10.651  0.1267  0.3040 -0.0504
16954TIP3    H172353   1.848   4.589  10.673 -0.1000  0.3118  0.5974
16954TIP3    H272354   1.836   4.443  10.637  0.3098  0.3957  0.1118
16955TIP3   OH272355   6.174   3.944  16.822 -0.0253 -0.2934  0.8062
16955TIP3    H172356   6.113   4.012  16.795 -1.4092 -1.0673  1.8765
16955TIP3    H272357   6.242   3.991  16.871 -0.0720  0.4965  0.1383
16956TIP3   OH272358   5.412   0.716   3.907 -0.2508 -0.3112  0.4688
16956TIP3    H172359   5.352   0.665   3.853 -0.4781 -1.0687  1.4058
16956TIP3    H272360   5.499   0.682   3.885 -0.1825  0.4861 -0.5687
16957TIP3   OH272361   4.185   0.179   1.963  0.1828  0.5952  0.0519
16957TIP3    H172362   4.212   0.140   2.045 -1.1430 -1.9199 -0.5956
16957TIP3    H272363   4.260   0.170   1.905 -0.2636 -1.7055 -0.2543
16958TIP3   OH272364   0.584   5.320   0.388  0.5120  0.3202  0.0160
16958TIP3    H172365   0.668   5.366   0.388 -0.5460  2.5117  2.3780
16958TIP3    H272366   0.591   5.257   0.317  4.8680 -0.9531  1.2379
16959TIP3   OH272367   2.480   6.155  16.745  0.4193  0.1893 -0.1116
16959TIP3    H172368   2.452   6.070  16.778 -0.5381  0.3161 -0.5537
16959TIP3    H272369   2.534   6.192  16.814  0.6791 -0.6943  0.1653
16960TIP3   OH272370   4.911   2.989  12.058  0.4427  0.2697  0.1705
16960TIP3    H172371   4.918   3.076  12.018  0.5061  0.2936  0.2341
16960TIP3    H272372   4.983   2.939  12.018  0.1287  0.1131 -0.2030
16961TIP3   OH272373   4.437   2.523   3.408  0.8408  0.3672  0.1304
16961TIP3    H172374   4.486   2.441   3.416  1.4729  0.5802 -1.2622
16961TIP3    H272375   4.503   2.588   3.385  0.2504  1.1608  0.6272
16962TIP3   OH272376   5.916   0.390  15.104  0.0277  0.0708  0.4810
16962TIP3    H172377   5.869   0.358  15.026 -0.4635  2.1754 -0.1414
16962TIP3    H272378   5.924   0.312  15.160 -1.7019 -0.9913 -0.6376
16963TIP3   OH272379   1.596   0.731  11.652 -0.0710  0.0091  0.0924
16963TIP3    H172380   1.601   0.636  11.639  1.2595  0.2465 -1.4772
16963TIP3    H272381   1.687   0.758  11.665 -0.4893  1.0124  1.0943
16964TIP3   OH272382   2.672   1.022  11.205  1.0155  0.1982  0.1632
16964TIP3    H172383   2.662   0.971  11.125  0.1536  2.0204 -0.9502
16964TIP3    H272384   2.586   1.015  11.249  0.6802  1.1742 -0.3160
16965TIP3   OH272385   1.432   5.686   2.101 -0.0515  0.3703 -0.0317
16965TIP3    H172386   1.428   5.675   2.006 -0.8134 -0.9287  0.1148
16965TIP3    H272387   1.364   5.626   2.134  0.0480  0.9720  1.3164
16966TIP3   OH272388   5.028   6.482   3.541 -0.1236  0.2812 -0.2295
16966TIP3    H172389   4.988   6.409   3.589 -1.6797  1.5853  0.5569
16966TIP3    H272390   5.054   6.444   3.457 -3.6498 -0.6154 -1.0948
16967TIP3   OH272391   3.030   3.888  14.177 -0.1778  0.2781 -0.2125
16967TIP3    H172392   3.114   3.851  14.149  0.1216  0.3016  0.6258
16967TIP3    H272393   2.986   3.911  14.095 -0.0432 -1.1923 -0.7215
16968TIP3   OH272394   3.474   5.475  12.776 -0.4710 -0.1494  0.3252
16968TIP3    H172395   3.413   5.532  12.729  0.2111  1.2707  1.0926
16968TIP3    H272396   3.558   5.488  12.732 -0.6636 -2.1024 -0.7331
16969TIP3   OH272397   1.885   3.076  11.868  0.1808 -0.1598 -0.0615
16969TIP3    H172398   1.973   3.048  11.890 -0.4728 -2.8694 -0.6264
16969TIP3    H272399   1.895   3.124  11.785  1.5636  3.2805  1.8581
16970TIP3   OH272400   0.513   4.267   1.579 -0.3427 -0.2756  0.3311
16970TIP3    H172401   0.501   4.260   1.674 -1.0452  0.0703  0.2702
16970TIP3    H272402   0.436   4.316   1.548 -0.1425 -0.4262 -0.4223
16971TIP3   OH272403   3.598   2.713   1.778  0.6890 -0.0964  0.2427
16971TIP3    H172404   3.581   2.621   1.799  0.0224  0.0218  0.2716
16971TIP3    H272405   3.663   2.741   1.841  1.6104 -0.8058 -0.3680
16972TIP3   OH272406   0.878   6.457   6.215 -0.4904  0.0488  0.6516
16972TIP3    H172407   0.907   6.544   6.241 -0.0790 -0.2847  1.3461
16972TIP3    H272408   0.787   6.469   6.187 -0.0387  0.9238 -0.5335
16973TIP3   OH272409   2.441   3.860  10.920  0.2301  0.2757  0.1257
16973TIP3    H172410   2.365   3.918  10.909  1.5462  2.3245  1.0513
16973TIP3    H272411   2.468   3.874  11.011  1.0770 -1.2253  0.1267
16974TIP3   OH272412   6.593   1.444  15.677 -0.0545 -0.8409  0.4959
16974TIP3    H172413   6.599   1.527  15.630  0.7459  0.1091  2.1999
16974TIP3    H272414   6.525   1.395  15.630 -0.4283  0.6915 -0.6410
16975TIP3   OH272415   3.410   3.520  15.716  0.3597 -0.4841 -0.5409
16975TIP3    H172416   3.422   3.425  15.722 -0.4862 -0.5324  1.1780
16975TIP3    H272417   3.320   3.531  15.685  0.3293 -0.2603 -0.3786
16976TIP3   OH272418   1.779   3.122   0.404 -0.2411  0.0570 -0.3002
16976TIP3    H172419   1.805   3.058   0.470  1.7571 -1.3957 -2.3503
16976TIP3    H272420   1.832   3.199   0.423 -1.0859  0.3893  0.8720
16977TIP3   OH272421   1.252   4.822   3.848  0.0002  0.6301 -0.4718
16977TIP3    H172422   1.262   4.828   3.943  1.7440  1.7140 -0.6672
16977TIP3    H272423   1.341   4.822   3.815 -0.5881  0.6720 -2.1427
16978TIP3   OH272424   2.102   3.516   3.226 -0.1985 -0.5235 -0.0964
16978TIP3    H172425   2.118   3.556   3.141 -1.9945 -1.1776 -0.7790
16978TIP3    H272426   2.105   3.589   3.288 -0.0057  0.1304 -0.8650
16979TIP3   OH272427   3.346   4.565   4.208  0.4474 -0.4575  0.7139
16979TIP3    H172428   3.370   4.634   4.270  0.1982  0.5185 -0.2614
16979TIP3    H272429   3.420   4.504   4.211  1.0861  0.3081  0.9303
16980TIP3   OH272430   6.455   2.900   3.798 -0.2219 -0.2164  0.2351
16980TIP3    H172431   6.402   2.935   3.870  0.8670  0.5360  0.6987
16980TIP3    H272432   6.527   2.961   3.790  1.2830 -1.8746  0.4795
16981TIP3   OH272433   5.962   0.629   0.056 -0.0985  0.4881  0.1630
16981TIP3    H172434   5.948   0.721   0.076 -1.7539  0.1236  0.8063
16981TIP3    H272435   5.890   0.605  -0.002 -0.0633 -0.5756  0.5387
16982TIP3   OH272436   4.792   0.592  13.038 -0.1102  0.0680  0.4417
16982TIP3    H172437   4.743   0.510  13.029 -0.9909  0.8021 -4.4784
16982TIP3    H272438   4.863   0.571  13.099 -2.9313 -2.8483  3.0707
16983TIP3   OH272439   0.589   0.506  12.276  0.4503 -0.1293 -0.1086
16983TIP3    H172440   0.653   0.574  12.253  0.2215  0.5772  1.2603
16983TIP3    H272441   0.521   0.513  12.210  0.7467  0.5509 -0.3454
16984TIP3   OH272442   4.593   0.573   1.040  0.0563  1.0123 -0.4205
16984TIP3    H172443   4.594   0.530   0.955 -1.9214  0.7763 -0.3672
16984TIP3    H272444   4.581   0.666   1.020 -0.5235  0.9427 -0.3961
16985TIP3   OH272445   5.710   5.446   5.076 -0.7229  0.4116 -0.0844
16985TIP3    H172446   5.714   5.533   5.037 -2.8642 -0.9515 -3.9387
16985TIP3    H272447   5.627   5.446   5.124 -1.1818  0.2796 -0.8560
16986TIP3   OH272448   1.611   1.227   3.194  0.1191 -0.1727 -0.5010
16986TIP3    H172449   1.567   1.153   3.152 -0.5551  0.5441 -1.0836
16986TIP3    H272450   1.678   1.187   3.250 -2.1230 -1.4095  1.4631
16987TIP3   OH272451   4.641   4.205  10.446 -0.0584  0.2965  0.5410
16987TIP3    H172452   4.690   4.270  10.396 -0.3369 -0.8056 -1.2533
16987TIP3    H272453   4.685   4.202  10.531  1.1582  1.4151 -0.0145
16988TIP3   OH272454   4.947   5.085   6.117  0.4544  0.5291  0.2962
16988TIP3    H172455   4.982   5.039   6.194 -0.1676  1.0291  0.8927
16988TIP3    H272456   4.875   5.138   6.152 -0.7251 -0.2549 -0.8274
16989TIP3   OH272457   2.674   5.146   1.491  0.2164 -0.1911  0.5461
16989TIP3    H172458   2.613   5.210   1.526  0.1770 -0.2621  0.6072
16989TIP3    H272459   2.622   5.068   1.475  0.3303 -0.3186  0.7901
16990TIP3   OH272460   3.524   3.504   6.561 -0.0648 -0.5436 -0.4160
16990TIP3    H172461   3.446   3.544   6.602  0.6654 -0.4644  0.9546
16990TIP3    H272462   3.523   3.414   6.591  0.0098 -0.7241 -0.9506
16991TIP3   OH272463   0.188   1.547  13.802  0.6397  0.9977 -0.9018
16991TIP3    H172464   0.104   1.517  13.768 -0.6876  0.2747  2.5535
16991TIP3    H272465   0.241   1.468  13.807 -1.1095 -0.1813  3.4744
16992TIP3   OH272466   4.475   5.361   3.714 -0.1249  0.3120 -0.0266
16992TIP3    H172467   4.484   5.345   3.620  0.7061  2.7022 -0.4310
16992TIP3    H272468   4.380   5.372   3.727 -0.2236  0.2604 -0.6440
16993TIP3   OH272469   3.347   4.119  12.177 -0.4686  0.3395  0.6344
16993TIP3    H172470   3.356   4.092  12.085  0.2633  1.6526  0.2854
16993TIP3    H272471   3.260   4.090  12.202 -0.2657 -1.0169 -0.1320
16994TIP3   OH272472   4.150   0.536   3.559 -0.1630 -0.4430 -0.0006
16994TIP3    H172473   4.071   0.589   3.567 -1.0644 -1.8783  1.2455
16994TIP3    H272474   4.127   0.466   3.498  0.2323 -0.6803  0.1151
16995TIP3   OH272475   2.633   5.483   1.195 -0.0612  0.7441 -0.1315
16995TIP3    H172476   2.561   5.462   1.254  1.1398  0.7046  1.3528
16995TIP3    H272477   2.654   5.400   1.152 -1.3889  0.9161 -1.1739
16996TIP3   OH272478   3.791   5.478  16.608  0.4514 -0.6797 -0.4888
16996TIP3    H172479   3.745   5.510  16.531  0.8869  1.5704  0.1189
16996TIP3    H272480   3.877   5.452  16.576  0.6046  0.1789 -0.8004
16997TIP3   OH272481   3.583   6.514  13.548 -0.3185 -0.0867  0.1556
16997TIP3    H172482   3.511   6.539  13.606 -0.3917  0.2588 -0.0788
16997TIP3    H272483   3.546   6.444  13.493 -0.4625  0.0572  0.0680
16998TIP3   OH272484   3.288   3.482   2.205  0.0232 -0.3137  0.1904
16998TIP3    H172485   3.246   3.564   2.180 -0.1213 -0.6611 -0.7448
16998TIP3    H272486   3.230   3.414   2.171  0.8418 -0.8022 -0.2423
16999TIP3   OH272487   4.068   5.205  12.610  0.0703 -0.1899 -0.3794
16999TIP3    H172488   4.037   5.263  12.541 -1.5955 -0.2664  0.2467
16999TIP3    H272489   4.001   5.136  12.616  1.9889 -2.2596 -1.1238
17000TIP3   OH272490   4.272   4.774  10.400  0.9535  0.1689  0.4665
17000TIP3    H172491   4.250   4.683  10.377 -0.9587  0.6130  0.3080
17000TIP3    H272492   4.328   4.767  10.477  0.3044 -1.1566  0.8541
17001TIP3   OH272493   2.056   4.266   1.055 -0.6575  0.0651 -0.3549
17001TIP3    H172494   1.986   4.203   1.044  0.7171 -2.7366  4.3167
17001TIP3    H272495   2.132   4.225   1.015 -0.3427  0.0087  0.2838
17002TIP3   OH272496   5.575   0.223   5.314  0.0877  0.5304  0.1855
17002TIP3    H172497   5.496   0.222   5.368 -0.0110 -0.7782  0.0587
17002TIP3    H272498   5.637   0.276   5.363 -0.9763  1.9252  0.0940
17003TIP3   OH272499   0.168   1.067   1.974 -0.3892  0.6439 -0.6538
17003TIP3    H172500   0.124   1.147   2.001  2.7796  2.2253  0.3371
17003TIP3    H272501   0.167   1.011   2.052 -0.9054  0.5489 -0.7305
17004TIP3   OH272502   6.646   5.972  17.045  0.6304  0.1270  0.2041
17004TIP3    H172503   6.569   6.026  17.064  0.6185 -0.6334  2.8064
17004TIP3    H272504   6.613   5.901  16.991  0.3560  1.8400 -2.0188
17005TIP3   OH272505   1.581   0.334  12.193  0.3789  0.0228  0.3118
17005TIP3    H172506   1.509   0.291  12.147  1.2713 -0.4262 -0.7224
17005TIP3    H272507   1.562   0.321  12.286 -2.2028  2.1393  0.2101
17006TIP3   OH272508   4.222   1.925   2.025 -0.3315 -0.0531 -0.2312
17006TIP3    H172509   4.138   1.965   2.000  0.4072  1.5240 -0.2679
17006TIP3    H272510   4.288   1.979   1.983  0.7647 -0.6168  0.7111
17007TIP3   OH272511   4.353   1.409   2.298 -0.1601 -0.2456 -0.1677
17007TIP3    H172512   4.333   1.316   2.306  0.0879 -0.1715  1.5652
17007TIP3    H272513   4.291   1.452   2.357 -0.5894  0.7520 -1.3045
17008TIP3   OH272514   5.448   5.239  10.301  0.3350  0.5168 -0.2998
17008TIP3    H172515   5.373   5.196  10.259  0.6216  0.8870 -1.2164
17008TIP3    H272516   5.465   5.316  10.247  1.7961  0.0864 -0.5158
17009TIP3   OH272517   6.242   2.218   3.528  0.0079 -0.6632  0.0451
17009TIP3    H172518   6.312   2.240   3.466 -0.9735  0.5687 -0.6622
17009TIP3    H272519   6.161   2.231   3.479 -0.7840 -3.7982  0.2551
17010TIP3   OH272520   3.906   3.789  15.271 -0.4341  0.3860 -0.4155
17010TIP3    H172521   3.900   3.863  15.210  1.8107 -0.4666 -1.7927
17010TIP3    H272522   3.881   3.713  15.219 -2.3092  0.0316  0.8767
17011TIP3   OH272523   0.893   3.235  12.263 -0.1421 -0.2537 -0.0103
17011TIP3    H172524   0.930   3.289  12.193 -0.1417  1.2037  1.0795
17011TIP3    H272525   0.932   3.149  12.249  0.8505  0.3320 -1.0474
17012TIP3   OH272526   3.873   5.008   0.404 -0.4742 -0.6560 -0.0722
17012TIP3    H172527   3.938   5.007   0.474  0.7349  0.1983 -1.1341
17012TIP3    H272528   3.836   5.096   0.407 -0.5470 -0.6764 -0.3826
17013TIP3   OH272529   5.577   4.034  14.891 -0.9227  0.4378  0.2332
17013TIP3    H172530   5.496   4.004  14.932 -1.5736  0.5214 -0.9370
17013TIP3    H272531   5.593   3.972  14.820  0.8193 -0.3930  1.2832
17014TIP3   OH272532   6.107   3.237  11.730 -0.3433  0.0924 -0.1636
17014TIP3    H172533   6.063   3.309  11.776 -2.3411 -0.6577 -0.7862
17014TIP3    H272534   6.107   3.165  11.793  0.6220  0.2634  0.0533
17015TIP3   OH272535   5.741   6.326   4.627 -0.2346  0.2403  0.0445
17015TIP3    H172536   5.715   6.320   4.719 -0.1960  2.8930  0.3121
17015TIP3    H272537   5.708   6.245   4.588  0.2267 -1.2237  2.4707
17016TIP3   OH272538   1.523   1.683   0.676  0.3618 -0.1147  0.6304
17016TIP3    H172539   1.539   1.656   0.585 -0.5214 -0.4436  0.5661
17016TIP3    H272540   1.456   1.750   0.669 -0.0240 -0.4551  1.0805
17017TIP3   OH272541   5.582   3.748  13.977 -0.5873 -0.0861 -0.0016
17017TIP3    H172542   5.593   3.654  13.960  1.0572 -0.0307  0.5727
17017TIP3    H272543   5.654   3.790  13.930 -1.0917  0.8628  0.0426
17018TIP3   OH272544   2.399   6.608   3.424  0.0395 -0.0493 -0.0279
17018TIP3    H172545   2.331   6.547   3.454 -0.4856 -0.2742 -1.6111
17018TIP3    H272546   2.385   6.687   3.477 -0.5944 -0.5690  0.5967
17019TIP3   OH272547   0.458   0.376   5.762  0.3901  0.0682  0.8285
17019TIP3    H172548   0.385   0.417   5.714  0.0758 -0.1862  1.0885
17019TIP3    H272549   0.433   0.382   5.854  0.5101 -0.3911  0.8910
17020TIP3   OH272550   3.576   3.707  12.307  0.2304  0.1314  0.1941
17020TIP3    H172551   3.576   3.786  12.253 -0.3671  0.8669  1.2252
17020TIP3    H272552   3.498   3.659  12.280  1.0863 -0.6304 -1.1013
17021TIP3   OH272553   4.047   0.162   2.750 -0.3117 -0.4902  0.3277
17021TIP3    H172554   4.069   0.219   2.823  1.2015 -0.4378 -0.1222
17021TIP3    H272555   3.968   0.200   2.712 -1.3116 -0.7023  2.0941
17022TIP3   OH272556   4.643   2.097  14.545  0.4570 -0.6729 -0.2798
17022TIP3    H172557   4.614   2.179  14.504  0.9662  0.3801  1.3584
17022TIP3    H272558   4.564   2.045  14.554  0.1230 -0.3621 -1.3578
17023TIP3   OH272559   6.068   2.473  15.656 -0.4209  0.7664 -0.0392
17023TIP3    H172560   6.045   2.477  15.749 -1.3200 -0.3161 -0.2058
17023TIP3    H272561   6.163   2.458  15.656 -0.5372 -0.0136  0.7108
17024TIP3   OH272562   1.046   2.450   3.367 -0.3890  0.2440 -0.0968
17024TIP3    H172563   0.991   2.422   3.441 -0.2644 -0.5586 -0.3037
17024TIP3    H272564   1.131   2.466   3.406 -0.5074  0.5130  0.0547
17025TIP3   OH272565   0.897   1.140  16.213 -0.2605  0.1368 -0.1946
17025TIP3    H172566   0.852   1.224  16.221 -1.1469 -0.4786  2.0274
17025TIP3    H272567   0.987   1.163  16.191 -0.7066  1.5937 -0.6095
17026TIP3   OH272568   5.654   4.727  16.369 -0.0651  0.1979 -0.1032
17026TIP3    H172569   5.737   4.735  16.416  0.8142 -1.6118 -1.2195
17026TIP3    H272570   5.629   4.635  16.380 -0.7358  0.1661 -1.6309
17027TIP3   OH272571   0.658   0.800  15.343  0.1073  0.4304  0.3281
17027TIP3    H172572   0.580   0.836  15.302  0.1445  1.4053  1.0555
17027TIP3    H272573   0.730   0.833  15.289  0.0213 -0.9119 -0.6620
17028TIP3   OH272574   1.702   4.259   4.878  0.0530  0.0251  0.0540
17028TIP3    H172575   1.723   4.341   4.923 -1.1583 -0.2432  1.1741
17028TIP3    H272576   1.606   4.256   4.878  0.0760 -1.5784  0.3950
17029TIP3   OH272577   6.502   0.818   6.112  0.4919  0.1273  0.2228
17029TIP3    H172578   6.570   0.829   6.178 -0.7109 -0.4595  1.6134
17029TIP3    H272579   6.448   0.746   6.145 -0.7597  0.5191 -0.8674
17030TIP3   OH272580   2.478   4.755  11.352 -0.4182  0.3859  0.5172
17030TIP3    H172581   2.537   4.816  11.397  0.4322 -0.4535  0.5524
17030TIP3    H272582   2.425   4.811  11.295 -1.5759  1.5124  2.5563
17031TIP3   OH272583   2.836   1.372  12.498  0.4891 -0.5762 -0.2140
17031TIP3    H172584   2.908   1.321  12.534  1.5539  0.4356 -0.8405
17031TIP3    H272585   2.789   1.404  12.575  1.4720 -0.1928  0.2408
17032TIP3   OH272586   6.749   5.606   3.995 -0.0985 -0.1156 -0.4183
17032TIP3    H172587   6.702   5.599   4.078  1.2133  1.4116  0.5035
17032TIP3    H272588   6.709   5.681   3.951 -1.2246 -1.3005 -1.5185
17033TIP3   OH272589   5.601   5.279  12.515  0.1573 -0.4914 -0.4712
17033TIP3    H172590   5.576   5.249  12.603 -0.4456  2.0426  0.2897
17033TIP3    H272591   5.519   5.301  12.473  0.6048  0.5852 -0.7983
17034TIP3   OH272592   6.665   3.478   6.370 -0.1839 -0.4675  0.3779
17034TIP3    H172593   6.582   3.524   6.379  0.4902  0.4666  2.6565
17034TIP3    H272594   6.722   3.539   6.323  0.1366  0.2837  1.6926
17035TIP3   OH272595   3.169   2.077  13.918 -0.1213  0.3549 -0.1821
17035TIP3    H172596   3.155   2.005  13.979 -0.1534  1.4802  1.1942
17035TIP3    H272597   3.217   2.038  13.845  1.2765 -0.7460  1.2540
17036TIP3   OH272598   3.178   1.515  12.478 -0.6612 -0.4771 -0.0916
17036TIP3    H172599   3.092   1.548  12.506 -0.2411 -0.4177  1.1761
17036TIP3    H272600   3.177   1.523  12.383 -0.8090  2.6866  0.0910
17037TIP3   OH272601   1.642   3.558   0.636  0.3570 -0.3934 -0.0340
17037TIP3    H172602   1.718   3.576   0.692 -0.4616  1.3664  0.5926
17037TIP3    H272603   1.577   3.522   0.695  0.5231 -1.4415 -0.4766
17038TIP3   OH272604   6.812   5.156   5.430  0.3391  0.3680  0.2575
17038TIP3    H172605   6.843   5.123   5.514  0.3457  0.8057  0.4319
17038TIP3    H272606   6.720   5.131   5.428  0.5219 -0.2884  0.0661
17039TIP3   OH272607   2.690   6.233   2.293  0.3646  0.1838  0.7657
17039TIP3    H172608   2.705   6.175   2.368  1.6245  1.1387  1.2794
17039TIP3    H272609   2.676   6.173   2.220 -0.8583 -0.7684  1.7349
17040TIP3   OH272610   5.704   1.137  13.656 -0.3451  0.2481  0.3096
17040TIP3    H172611   5.646   1.175  13.722 -0.5526  0.6554 -0.1042
17040TIP3    H272612   5.656   1.062  13.622 -1.4303  1.5799 -1.2770
17041TIP3   OH272613   4.231   3.444  16.433 -0.3649  0.6900  0.1233
17041TIP3    H172614   4.157   3.476  16.382 -1.4171  0.9673  1.7286
17041TIP3    H272615   4.225   3.493  16.516 -0.6310 -1.8898  1.7417
17042TIP3   OH272616   1.807   3.068   5.329  0.3541 -0.6886  0.0467
17042TIP3    H172617   1.773   3.100   5.412 -0.8475 -1.8984  0.0505
17042TIP3    H272618   1.729   3.050   5.276  1.0870  1.0039 -1.7498
17043TIP3   OH272619   4.959   0.820  16.207 -0.4665  0.1932 -0.5838
17043TIP3    H172620   4.974   0.854  16.119 -0.5314  1.5152 -0.0987
17043TIP3    H272621   4.880   0.766  16.199 -0.7958  0.7619 -1.2215
17044TIP3   OH272622   3.545   2.481   3.960 -0.2779 -0.3155 -0.2125
17044TIP3    H172623   3.587   2.421   4.022  2.6346  2.2163  0.5587
17044TIP3    H272624   3.572   2.449   3.874 -2.0466 -2.2611 -0.1154
17045TIP3   OH272625   0.321   2.069   3.636 -0.1876  0.1078 -0.2795
17045TIP3    H172626   0.316   1.973   3.636  0.5952  0.0637 -0.3121
17045TIP3    H272627   0.252   2.096   3.575  0.6810 -0.5006 -1.5643
17046TIP3   OH272628   1.996   3.322  16.074 -0.2278  0.1403 -0.7566
17046TIP3    H172629   1.943   3.398  16.051 -0.0424 -0.1308 -2.1369
17046TIP3    H272630   2.078   3.359  16.107 -0.7090  0.5411  0.0126
17047TIP3   OH272631   5.405   5.466   2.623  0.0394  0.2516  0.8119
17047TIP3    H172632   5.377   5.540   2.570  0.1672  0.4091  0.9645
17047TIP3    H272633   5.326   5.437   2.668  0.3761  1.5501  2.2989
17048TIP3   OH272634   0.498   1.055   1.424 -0.0663  0.4008 -0.0281
17048TIP3    H172635   0.446   1.111   1.481 -1.3746  1.2713 -1.9366
17048TIP3    H272636   0.566   1.018   1.480 -1.3533  1.0741  2.0689
17049TIP3   OH272637   5.932   3.106   2.864 -0.7945 -0.0619  0.5373
17049TIP3    H172638   5.853   3.149   2.895 -1.1998 -1.1009  0.9874
17049TIP3    H272639   5.984   3.092   2.943 -0.9615 -0.9724  0.4919
17050TIP3   OH272640   6.654   2.323   0.003  0.0713  0.1071  0.4106
17050TIP3    H172641   6.711   2.286   0.070 -0.1477 -0.2561  0.3996
17050TIP3    H272642   6.594   2.380   0.051  0.1709  0.1557  0.4748
17051TIP3   OH272643   4.166   6.154  17.135  0.5517  0.1862  0.2623
17051TIP3    H172644   4.161   6.233  17.082  1.5764  0.3643  0.4115
17051TIP3    H272645   4.136   6.181  17.222 -0.5873  0.0263 -0.0690
17052TIP3   OH272646   4.664   0.472  16.979 -0.2726  0.2209  0.7651
17052TIP3    H172647   4.621   0.509  16.902  1.2788  0.8245  0.1566
17052TIP3    H272648   4.747   0.519  16.986  0.6892 -1.4751  1.4136
17053TIP3   OH272649   3.353   1.017   1.391 -0.0526 -0.3954 -0.2544
17053TIP3    H172650   3.304   0.948   1.347  0.1720 -0.7570  0.0557
17053TIP3    H272651   3.334   1.096   1.340  1.7358 -1.1251 -2.2345
17054TIP3   OH272652   3.454   3.988   0.149  0.0593  0.3618 -0.5260
17054TIP3    H172653   3.491   3.982   0.237 -0.3175 -0.4660 -0.4189
17054TIP3    H272654   3.375   3.933   0.152 -0.3520  0.8959 -1.1791
17055TIP3   OH272655   1.115   4.461   0.803  0.0539 -0.5185  0.2608
17055TIP3    H172656   1.038   4.512   0.829 -0.5479 -1.6888  0.8444
17055TIP3    H272657   1.125   4.478   0.710  0.0291  0.8596  0.4937
17056TIP3   OH272658   1.852   2.482   1.870  0.2584  0.0068  0.1117
17056TIP3    H172659   1.904   2.562   1.870 -0.8184  0.7365  0.8293
17056TIP3    H272660   1.765   2.510   1.896 -0.8077 -1.0070 -2.1205
17057TIP3   OH272661   1.581   4.442   5.410  0.1054  0.2230 -1.0089
17057TIP3    H172662   1.656   4.387   5.386  0.1301  0.3346 -1.1961
17057TIP3    H272663   1.514   4.380   5.437  0.1335  0.0970 -1.2181
17058TIP3   OH272664   5.367   0.614   1.343 -0.1094  0.1867  0.8696
17058TIP3    H172665   5.462   0.615   1.345 -0.0350 -1.8845  0.6605
17058TIP3    H272666   5.345   0.578   1.257 -1.1698  2.2513  0.1950
17059TIP3   OH272667   2.299   4.064   0.186  0.2406 -0.1938 -0.0746
17059TIP3    H172668   2.339   4.121   0.121  1.0657 -1.1485 -0.4388
17059TIP3    H272669   2.374   4.027   0.234 -0.2845 -0.7196  0.3598
17060TIP3   OH272670   4.709   5.394   0.377 -0.5758 -0.5917 -0.0828
17060TIP3    H172671   4.671   5.474   0.414 -0.2001 -1.4989  2.4009
17060TIP3    H272672   4.788   5.424   0.333  0.9904  0.2061  3.0243
17061TIP3   OH272673   2.671   6.531  12.415  0.1170  0.4765  0.4366
17061TIP3    H172674   2.595   6.473  12.416 -0.3350  1.0464  1.8263
17061TIP3    H272675   2.689   6.545  12.322  0.5121 -2.1999  0.0221
17062TIP3   OH272676   2.115   2.065   4.451 -0.3806 -0.0749  0.4454
17062TIP3    H172677   2.106   2.157   4.474  0.2924  0.0082  0.3907
17062TIP3    H272678   2.144   2.065   4.360 -3.9777 -0.4125 -0.8331
17063TIP3   OH272679   1.808   4.588  11.494 -0.1917  0.1629 -0.2236
17063TIP3    H172680   1.854   4.508  11.522 -0.3128  0.5260  1.1108
17063TIP3    H272681   1.812   4.587  11.399  1.6426 -0.3733 -0.1700
17064TIP3   OH272682   6.638   5.490  16.120  0.3001  0.4015  0.2431
17064TIP3    H172683   6.589   5.488  16.038 -0.2534 -1.9967  0.5509
17064TIP3    H272684   6.729   5.505  16.093  0.3202 -1.5586 -0.9814
17065TIP3   OH272685   6.634   5.343  11.428  0.0232 -0.1798  0.0520
17065TIP3    H172686   6.566   5.383  11.482  0.7274  0.3746  0.5415
17065TIP3    H272687   6.651   5.257  11.469 -0.8340 -0.6026 -0.4576
17066TIP3   OH272688   0.897   5.643  16.679  0.1597  0.0392  0.3586
17066TIP3    H172689   0.812   5.670  16.714  0.2716  0.1936  0.5088
17066TIP3    H272690   0.960   5.670  16.746  0.4730  1.1846 -0.3878
17067TIP3   OH272691   2.583   3.606  14.262 -0.2296 -0.4494  0.4323
17067TIP3    H172692   2.521   3.623  14.192  0.6556  1.4566  0.0592
17067TIP3    H272693   2.660   3.658  14.239  0.1918 -0.0124  2.6644
17068TIP3   OH272694   5.604   1.211   0.273 -0.1407 -0.3557 -0.2894
17068TIP3    H172695   5.607   1.227   0.367  1.1356  3.6202 -0.8291
17068TIP3    H272696   5.511   1.210   0.252 -0.4418 -1.1837  0.9738
17069TIP3   OH272697   3.927   6.365  14.652  0.2979 -0.3839 -0.8320
17069TIP3    H172698   3.957   6.350  14.742  1.9657  1.1953 -1.0554
17069TIP3    H272699   3.963   6.292  14.602 -1.3400 -1.7372 -0.1397
17070TIP3   OH272700   1.682   6.486  13.508 -0.2780 -0.2392 -0.0107
17070TIP3    H172701   1.604   6.528  13.471  1.0038  1.3231 -1.1011
17070TIP3    H272702   1.722   6.554  13.563  0.2598 -1.0519  0.6268
17071TIP3   OH272703   1.514   3.561  15.910  0.6245  0.3791 -0.0163
17071TIP3    H172704   1.469   3.556  15.825 -2.0772  0.7381  1.2923
17071TIP3    H272705   1.568   3.640  15.903 -0.8474  1.3619 -0.8691
17072TIP3   OH272706   2.302   1.379  15.493 -0.3485  0.0395 -0.0143
17072TIP3    H172707   2.268   1.445  15.553 -0.0115 -0.2072  0.4538
17072TIP3    H272708   2.227   1.357  15.438 -0.9120 -0.3568  0.8795
17073TIP3   OH272709   6.734   3.918  14.764  0.5000 -0.1791 -0.3815
17073TIP3    H172710   6.797   3.858  14.723  0.0863 -1.6080  0.9881
17073TIP3    H272711   6.691   3.960  14.690  0.0371 -2.4063 -1.4670
17074TIP3   OH272712   1.453   5.095   3.016 -0.2698  0.2565 -0.3831
17074TIP3    H172713   1.383   5.128   2.961  1.5254 -1.0942 -3.7832
17074TIP3    H272714   1.410   5.033   3.075 -2.1913  1.1367 -0.7949
17075TIP3   OH272715   1.073   1.819   2.843  0.7646  0.1748  0.1413
17075TIP3    H172716   1.125   1.740   2.852  2.0543  1.0041  0.1863
17075TIP3    H272717   0.997   1.804   2.899  0.5272 -1.3857 -0.5545
17076TIP3   OH272718   3.454   5.787  16.411 -0.0230  0.5456 -0.1471
17076TIP3    H172719   3.486   5.866  16.454  0.7036  0.5474 -0.6603
17076TIP3    H272720   3.383   5.818  16.354 -0.1998  0.7212  0.1689
17077TIP3   OH272721   4.385   0.958   1.405 -0.2996 -0.1047 -0.1854
17077TIP3    H172722   4.370   1.029   1.343  0.8149  1.4300  1.2088
17077TIP3    H272723   4.478   0.937   1.395  0.2580  1.1199  1.8241
17078TIP3   OH272724   5.741   2.351  15.282 -0.4751  0.1506 -0.3148
17078TIP3    H172725   5.784   2.422  15.331  0.4918 -0.8906  0.4048
17078TIP3    H272726   5.813   2.295  15.253 -1.3089 -1.9967  1.4731
17079TIP3   OH272727   5.166   2.540   4.228  0.3035  0.0895 -0.5487
17079TIP3    H172728   5.120   2.622   4.249  0.6306 -0.0938  1.0658
17079TIP3    H272729   5.096   2.479   4.206 -0.0342  0.5058 -0.6648
17080TIP3   OH272730   4.949   3.931  16.460  0.1675 -0.0474 -0.2700
17080TIP3    H172731   4.924   3.871  16.390  0.9811  2.2427 -2.7101
17080TIP3    H272732   4.870   3.983  16.477 -0.4812 -1.5654  1.7035
17081TIP3   OH272733   1.587   0.533  16.506 -0.1923  0.2049  0.0008
17081TIP3    H172734   1.636   0.610  16.537  0.9273 -0.4300 -0.1301
17081TIP3    H272735   1.549   0.561  16.422 -0.4950  0.8722  0.3500
17082TIP3   OH272736   5.910   1.138  14.792 -0.2350 -0.2673  0.1684
17082TIP3    H172737   5.852   1.103  14.724  3.1720 -1.7997 -2.2785
17082TIP3    H272738   5.931   1.062  14.847  1.0865 -0.2958 -0.3392
17083TIP3   OH272739   3.589   2.271   5.409  0.8422  0.5996  0.7274
17083TIP3    H172740   3.583   2.366   5.416  0.8412  0.5391  1.6916
17083TIP3    H272741   3.681   2.251   5.428  1.3809  0.5472 -1.5668
17084TIP3   OH272742   3.560   6.786   5.365  0.2630  0.2829  0.2597
17084TIP3    H172743   3.630   6.849   5.382  0.2762  0.4429 -0.3521
17084TIP3    H272744   3.598   6.725   5.301 -0.3307  0.6859 -0.4825
17085TIP3   OH272745   1.532   6.162   3.849  0.2521  0.3597  0.0503
17085TIP3    H172746   1.575   6.231   3.900  0.3095 -0.3037  0.9294
17085TIP3    H272747   1.556   6.081   3.894 -1.7811 -0.0537  0.5131
17086TIP3   OH272748   4.356   5.078  16.305  0.0035 -0.1892 -0.2658
17086TIP3    H172749   4.342   5.169  16.333  2.0042  0.4532 -1.1536
17086TIP3    H272750   4.278   5.056  16.255  0.2726  1.7568 -1.6718
17087TIP3   OH272751   4.407   2.506  12.338 -0.3883 -0.7217  0.5967
17087TIP3    H172752   4.494   2.520  12.374 -0.8067  1.5090  0.9075
17087TIP3    H272753   4.415   2.428  12.284  1.0875 -2.2630  2.8512
17088TIP3   OH272754   4.690   1.107  11.201 -0.2016 -1.0800 -0.0628
17088TIP3    H172755   4.611   1.145  11.238  0.3325 -0.6280  0.6488
17088TIP3    H272756   4.678   1.112  11.106  0.4979  2.4173 -0.1185
17089TIP3   OH272757   2.005   2.039  16.288  0.7496 -0.2488  0.1814
17089TIP3    H172758   1.967   2.122  16.316  2.0026  0.6700 -0.7312
17089TIP3    H272759   2.094   2.039  16.324  0.7014 -1.2858  0.3361
17090TIP3   OH272760   0.549   4.763  14.095  0.6781  0.0210  0.4652
17090TIP3    H172761   0.498   4.840  14.069 -0.9692 -0.8035  1.0669
17090TIP3    H272762   0.625   4.764  14.038  1.0999  2.4772  0.9329
17091TIP3   OH272763   1.256   4.165  11.419 -0.4569 -0.0780 -0.2067
17091TIP3    H172764   1.183   4.193  11.474  0.1464  0.4758  0.3254
17091TIP3    H272765   1.221   4.090  11.369 -1.7878  0.9789 -0.9304
17092TIP3   OH272766   4.007   3.617  16.863  0.1623 -0.8676  0.0877
17092TIP3    H172767   3.935   3.679  16.873  1.3720  0.3241  2.1931
17092TIP3    H272768   3.979   3.539  16.912 -0.2917 -1.0034 -0.3773
17093TIP3   OH272769   3.749   4.900   2.771 -0.0263 -0.3221  0.8955
17093TIP3    H172770   3.655   4.899   2.790 -0.0131 -2.0285  0.9856
17093TIP3    H272771   3.781   4.815   2.801  1.0174 -0.9454 -1.7263
17094TIP3   OH272772   2.233   4.569  16.959  0.0146 -0.4735 -0.6415
17094TIP3    H172773   2.279   4.604  17.035 -1.3942 -1.3075  0.6454
17094TIP3    H272774   2.141   4.592  16.973 -0.3917 -1.3723 -1.6746
17095TIP3   OH272775   5.839   2.950   4.007 -0.4597 -0.0162 -0.1680
17095TIP3    H172776   5.783   2.878   4.034  0.2710 -1.7543 -2.9104
17095TIP3    H272777   5.835   2.949   3.912  1.0939  2.3926 -0.3423
17096TIP3   OH272778   6.564   0.431  15.999  0.4126  0.3826  0.5675
17096TIP3    H172779   6.578   0.337  16.009 -0.2470  0.2444  0.2592
17096TIP3    H272780   6.550   0.463  16.088 -1.1162 -0.1096  0.5242
17097TIP3   OH272781   5.345   5.582   1.649  0.2849 -0.0168  0.2668
17097TIP3    H172782   5.408   5.618   1.587  0.5325 -0.5756  0.1852
17097TIP3    H272783   5.304   5.509   1.602 -0.2872  0.2204  0.3862
17098TIP3   OH272784   1.439   6.002   3.259 -0.3557  0.0379 -0.0929
17098TIP3    H172785   1.447   6.054   3.179  0.6327 -0.3214 -0.2406
17098TIP3    H272786   1.406   5.917   3.228  0.3331 -0.2080 -0.1746
17099TIP3   OH272787   0.834   4.132   4.727 -0.1161  0.3475  0.4428
17099TIP3    H172788   0.830   4.118   4.821  1.4627 -0.7670  0.3731
17099TIP3    H272789   0.923   4.108   4.702 -0.1511  1.6967 -1.1813
17100TIP3   OH272790   2.381   1.349   3.117  0.0271  0.2723  0.0333
17100TIP3    H172791   2.426   1.276   3.158 -0.6052 -0.9025 -1.2863
17100TIP3    H272792   2.300   1.359   3.168  0.2103  0.2081  0.3410
17101TIP3   OH272793   5.853   1.209  13.899 -0.4197  0.2083 -0.1579
17101TIP3    H172794   5.867   1.170  13.812 -2.0710 -0.8906  0.0196
17101TIP3    H272795   5.758   1.211  13.908 -0.3391  2.7041  0.5952
17102TIP3   OH272796   4.797   5.501   3.571 -0.3545  0.1908 -0.0526
17102TIP3    H172797   4.749   5.570   3.525 -0.7927 -0.9407 -1.3559
17102TIP3    H272798   4.821   5.439   3.502  0.0500 -0.9440  1.0818
17103TIP3   OH272799   4.810   4.036   2.531  0.4535  0.2087  0.1184
17103TIP3    H172800   4.893   4.077   2.553  1.3723 -1.5798  0.1174
17103TIP3    H272801   4.821   4.007   2.440 -1.3618  2.7406 -1.0538
17104TIP3   OH272802   4.481   6.189  16.255  0.1646  0.0214 -0.0824
17104TIP3    H172803   4.538   6.146  16.319  0.5463  0.2338 -0.2786
17104TIP3    H272804   4.533   6.262  16.221  0.6320 -1.0992 -1.9000
17105TIP3   OH272805   6.568   2.817   2.477  0.0677 -0.2595 -0.1877
17105TIP3    H172806   6.662   2.810   2.465  0.2265  0.4478  0.6348
17105TIP3    H272807   6.555   2.892   2.534 -1.0142 -0.1802 -0.4965
17106TIP3   OH272808   4.822   3.308   6.018 -0.1983  0.4480 -0.0592
17106TIP3    H172809   4.881   3.321   5.944 -0.9496  0.4744 -0.6628
17106TIP3    H272810   4.764   3.384   6.017 -2.5315 -1.2317 -1.6503
17107TIP3   OH272811   0.713   0.985   0.254 -0.1715  0.2370 -0.0079
17107TIP3    H172812   0.806   0.976   0.237 -0.0458  1.6825 -0.1814
17107TIP3    H272813   0.683   1.052   0.192 -0.6733  2.0578  2.0838
17108TIP3   OH272814   1.692   0.833   0.498  0.1916 -0.4793  0.0781
17108TIP3    H172815   1.685   0.920   0.538  0.1766 -0.7991  0.7696
17108TIP3    H272816   1.634   0.778   0.550  1.1351 -1.1818  0.4042
17109TIP3   OH272817   1.428   4.392  11.387  0.7840  0.2145 -0.3289
17109TIP3    H172818   1.361   4.325  11.375  0.6113  0.1619  0.8149
17109TIP3    H272819   1.395   4.446  11.458  0.7359  1.7670 -1.4750
17110TIP3   OH272820   4.217   6.102   3.408 -0.4157 -0.4472  0.0484
17110TIP3    H172821   4.247   6.012   3.399 -1.6068 -0.6978 -2.2159
17110TIP3    H272822   4.194   6.111   3.501  1.7111 -1.7739  0.7549
17111TIP3   OH272823   3.718   0.939   1.871 -0.4385 -0.1104 -0.0772
17111TIP3    H172824   3.745   0.981   1.789  0.4142 -0.0720  0.2102
17111TIP3    H272825   3.635   0.897   1.850 -0.9845  1.1490 -0.5517
17112TIP3   OH272826   3.783   6.684   2.202  0.7615 -0.3004  0.2419
17112TIP3    H172827   3.805   6.593   2.181  0.1835 -0.1147 -1.3291
17112TIP3    H272828   3.822   6.735   2.130  0.9546  0.6849  1.0202
17113TIP3   OH272829   4.327   5.877   0.821 -0.3244  0.5558 -0.2219
17113TIP3    H172830   4.320   5.968   0.850  1.7949  0.5889  0.3420
17113TIP3    H272831   4.419   5.855   0.833 -0.8148 -1.7310 -0.2096
17114TIP3   OH272832   0.035   2.894   1.361 -0.6131  0.1653 -0.5072
17114TIP3    H172833   0.070   2.982   1.348 -1.7363  0.8138  0.5812
17114TIP3    H272834   0.013   2.891   1.454  0.2335 -1.6068 -0.3348
17115TIP3   OH272835   0.386   5.877  10.798 -0.2471  0.3012  0.5539
17115TIP3    H172836   0.464   5.907  10.844  0.6288 -0.7983 -0.1568
17115TIP3    H272837   0.330   5.955  10.792  0.6933  1.0559  1.2587
17116TIP3   OH272838   2.020   1.383   1.072  0.4667 -0.0073  0.3112
17116TIP3    H172839   2.043   1.347   0.987  0.3135 -0.5600  0.4989
17116TIP3    H272840   2.028   1.309   1.133 -1.3153 -0.1195  0.4657
17117TIP3   OH272841   3.235   6.804  13.948  0.6320 -0.3169  1.3761
17117TIP3    H172842   3.185   6.791  13.867  0.1416  1.5057  1.3443
17117TIP3    H272843   3.168   6.815  14.015  1.0146  0.4541  1.6354
17118TIP3   OH272844   5.349   4.189   2.512  0.5812  0.3285  0.3386
17118TIP3    H172845   5.314   4.101   2.527  1.1134  0.2384  1.0980
17118TIP3    H272846   5.322   4.210   2.422 -0.0619 -0.3648  0.3579
17119TIP3   OH272847   2.416   4.987  17.136  0.2046 -0.3118 -0.2841
17119TIP3    H172848   2.390   5.060  17.081 -0.1109  0.0694  0.3594
17119TIP3    H272849   2.512   4.985  17.129  0.2526  0.4459  0.0432
17120TIP3   OH272850   6.661   2.398   2.733 -0.9707  0.3719  0.3197
17120TIP3    H172851   6.676   2.436   2.819 -1.4751  0.3136  0.4349
17120TIP3    H272852   6.744   2.409   2.687 -0.9555  1.1625  0.5214
17121TIP3   OH272853   6.133   2.904  13.113  0.3288 -0.2501  0.3375
17121TIP3    H172854   6.193   2.853  13.168  1.0949  0.3051  0.0455
17121TIP3    H272855   6.124   2.987  13.158 -1.3588 -0.8138  1.0953
17122TIP3   OH272856   1.074   0.951  16.728  0.3243  0.2849 -0.9488
17122TIP3    H172857   1.130   1.028  16.736  3.3206 -1.7749 -0.3888
17122TIP3    H272858   1.037   0.939  16.815 -0.0609  0.9812 -1.0092
17123TIP3   OH272859   4.769   0.462  13.607 -0.6219  0.0512 -0.3529
17123TIP3    H172860   4.847   0.497  13.562 -0.3230 -1.5499 -1.1259
17123TIP3    H272861   4.711   0.434  13.536 -0.7724 -1.1740  0.2399
17124TIP3   OH272862   4.842   1.837   6.639 -0.5004 -0.1453 -0.1774
17124TIP3    H172863   4.926   1.876   6.614 -0.4373 -0.4875 -0.5117
17124TIP3    H272864   4.864   1.772   6.706 -0.6250  0.4956  0.4982
17125TIP3   OH272865   1.330   6.763   0.035  0.2631 -0.4473 -0.5166
17125TIP3    H172866   1.255   6.804   0.079  2.1689  2.9536 -0.0524
17125TIP3    H272867   1.405   6.788   0.089  1.9873 -1.9052 -2.1205
17126TIP3   OH272868   0.210   5.665  15.330  0.2261  0.2213 -0.0599
17126TIP3    H172869   0.277   5.687  15.265  1.7269 -0.2264  1.2512
17126TIP3    H272870   0.166   5.748  15.348 -0.0095  0.4059 -1.3954
17127TIP3   OH272871   0.863   4.523  14.358  0.3984  0.6337 -0.3035
17127TIP3    H172872   0.826   4.595  14.308 -0.4781  0.2961 -0.1523
17127TIP3    H272873   0.957   4.527  14.339  0.1988  1.0580 -1.2654
17128TIP3   OH272874   3.393   2.405   1.186  0.0292 -0.1428 -0.3004
17128TIP3    H172875   3.459   2.436   1.248  2.0277 -1.6537 -1.5362
17128TIP3    H272876   3.399   2.310   1.191 -0.5238 -0.2962 -2.0136
17129TIP3   OH272877   2.400   2.649   1.940 -0.1104 -0.2322  0.3017
17129TIP3    H172878   2.418   2.616   1.852  1.9676  2.2402 -0.3396
17129TIP3    H272879   2.458   2.598   1.997 -0.3886 -0.8503  0.0404
17130TIP3   OH272880   4.159   5.538  12.467 -0.2007  0.3661 -0.4643
17130TIP3    H172881   4.102   5.507  12.537  0.1948  0.1925 -0.2182
17130TIP3    H272882   4.102   5.593  12.413 -1.3168 -1.9098 -1.7543
17131TIP3   OH272883   2.639   0.390  12.367  0.2566 -0.4977  0.1204
17131TIP3    H172884   2.545   0.377  12.357  0.2510 -0.7664  0.5001
17131TIP3    H272885   2.677   0.302  12.363  0.7868 -0.2414 -2.7365
17132TIP3   OH272886   2.121   6.438  14.568  0.4865 -0.4619 -0.2574
17132TIP3    H172887   2.135   6.405  14.656 -2.1128 -0.6125  0.1988
17132TIP3    H272888   2.171   6.380  14.512  2.0310 -0.4730  1.0812
17133TIP3   OH272889   3.917   0.748   6.110 -0.3668  0.0884 -0.3568
17133TIP3    H172890   3.842   0.790   6.153  0.9037  0.3773  1.6785
17133TIP3    H272891   3.988   0.811   6.118  0.7562 -1.1757 -0.0253
17134TIP3   OH272892   3.036   0.581  11.106 -0.5351 -0.2004 -0.3055
17134TIP3    H172893   2.973   0.631  11.158 -2.2626 -0.7590 -1.7651
17134TIP3    H272894   3.003   0.586  11.017  0.9812 -1.3431 -0.9822
17135TIP3   OH272895   2.480   3.997   5.643 -0.4161  0.2153 -0.3232
17135TIP3    H172896   2.465   4.057   5.716 -1.8195  0.4398 -0.7791
17135TIP3    H272897   2.563   4.026   5.606  1.3033 -1.0016  2.2166
17136TIP3   OH272898   3.018   5.994   0.447  0.3158  0.2361 -0.5647
17136TIP3    H172899   3.004   6.087   0.464 -0.0827 -0.1357  1.3793
17136TIP3    H272900   2.937   5.964   0.407 -0.7262  0.1580  1.4915
17137TIP3   OH272901   0.755   0.474   1.011  0.1733 -0.0952 -0.1376
17137TIP3    H172902   0.798   0.471   1.096  0.5314 -1.8277 -0.3439
17137TIP3    H272903   0.667   0.505   1.030  0.2156 -0.5501  0.8936
17138TIP3   OH272904   1.252   1.332  12.592  0.0749  0.0305 -0.0502
17138TIP3    H172905   1.171   1.365  12.630 -0.1619  1.8184 -1.9746
17138TIP3    H272906   1.226   1.287  12.512  0.7543 -1.9183  0.7628
17139TIP3   OH272907   2.600   0.751   4.464 -0.2514 -0.1595 -0.0365
17139TIP3    H172908   2.557   0.745   4.550 -0.9480  0.2286 -0.3456
17139TIP3    H272909   2.658   0.827   4.471 -1.1972  0.6043 -0.2753
17140TIP3   OH272910   2.535   0.576  14.720  0.1602 -0.5820 -0.5767
17140TIP3    H172911   2.543   0.485  14.747  2.2428 -0.4039 -0.4353
17140TIP3    H272912   2.553   0.575  14.626 -0.4515 -0.3803 -0.7025
17141TIP3   OH272913   5.215   1.521   0.486 -0.5430  0.5824  0.3603
17141TIP3    H172914   5.136   1.487   0.528 -0.2233 -2.2039 -1.0634
17141TIP3    H272915   5.191   1.608   0.454 -2.1500  0.8979  2.2469
17142TIP3   OH272916   0.567   3.241  11.769  0.3320  0.5223  0.4620
17142TIP3    H172917   0.587   3.334  11.759  0.9264  0.7178  2.7897
17142TIP3    H272918   0.650   3.202  11.798 -0.3813 -0.3465  1.4221
17143TIP3   OH272919   2.680   4.847  12.413  0.2851 -0.5404  0.3463
17143TIP3    H172920   2.603   4.813  12.367 -0.4656 -0.2942  1.3752
17143TIP3    H272921   2.650   4.859  12.503  0.6576  2.4135  0.1506
17144TIP3   OH272922   4.137   3.317  10.987 -0.1337  0.8702 -0.6004
17144TIP3    H172923   4.227   3.339  10.966 -0.4544  0.6332 -2.4310
17144TIP3    H272924   4.143   3.237  11.040  0.6904 -1.0416 -3.3752
17145TIP3   OH272925   6.639   2.440   3.687 -0.0316  0.5693 -0.2545
17145TIP3    H172926   6.668   2.459   3.776  0.7321 -1.1294 -0.1097
17145TIP3    H272927   6.598   2.522   3.657  1.6824  1.8934  0.8351
17146TIP3   OH272928   3.448   4.607  11.208  0.5145  0.1415  0.2149
17146TIP3    H172929   3.457   4.567  11.294 -0.4075  1.5073  0.9906
17146TIP3    H272930   3.426   4.699  11.226 -0.9804  0.1683 -1.4587
17147TIP3   OH272931   5.044   5.900   3.023 -0.0486 -0.0270 -0.4195
17147TIP3    H172932   5.030   5.956   3.099  1.0143  0.2074 -0.3812
17147TIP3    H272933   5.062   5.962   2.951 -1.8671 -0.1927 -1.0885
17148TIP3   OH272934   5.499   0.532   0.432  0.3809  0.1393  0.5134
17148TIP3    H172935   5.479   0.594   0.502  0.9411  1.8223 -0.7663
17148TIP3    H272936   5.413   0.508   0.396  0.1186 -0.4003  1.4582
17149TIP3   OH272937   0.343   4.424   3.443 -0.1368  0.0164 -0.1556
17149TIP3    H172938   0.357   4.512   3.408 -1.3390  0.0091 -0.7089
17149TIP3    H272939   0.285   4.382   3.379  0.0581 -1.0287  0.3306
17150TIP3   OH272940   2.916   4.860   0.007 -0.5045 -0.4398  0.0837
17150TIP3    H172941   2.988   4.913   0.039  0.1573 -0.1730 -1.7164
17150TIP3    H272942   2.842   4.920   0.001  0.0783  0.1754 -1.3639
17151TIP3   OH272943   2.272   1.794   2.373 -0.2190 -0.1433 -0.2689
17151TIP3    H172944   2.242   1.813   2.284  0.1677  0.9223 -0.1941
17151TIP3    H272945   2.211   1.841   2.429 -1.1491 -1.7347  0.1078
17152TIP3   OH272946   5.072   6.333  15.190  0.0197  0.1234  0.4134
17152TIP3    H172947   5.015   6.269  15.148 -0.1168 -1.2175  2.5284
17152TIP3    H272948   5.033   6.418  15.167 -0.7632 -0.5815 -1.0440
17153TIP3   OH272949   3.620   2.576   0.881  0.2258 -0.9534  0.3919
17153TIP3    H172950   3.566   2.505   0.848 -0.1533 -0.1646 -0.7714
17153TIP3    H272951   3.570   2.614   0.953  0.9644 -2.5682  1.8051
17154TIP3   OH272952   0.504   6.559  12.165 -0.2681 -0.2825 -0.1247
17154TIP3    H172953   0.472   6.522  12.247 -0.6877 -2.2935 -1.1480
17154TIP3    H272954   0.530   6.649  12.188 -3.4027  0.3401  1.4998
17155TIP3   OH272955   4.543   1.978   5.554 -0.1570 -0.1840  0.1256
17155TIP3    H172956   4.620   1.939   5.597  0.3927  1.0075  0.2759
17155TIP3    H272957   4.555   2.072   5.565 -0.7009  0.1052 -1.4848
17156TIP3   OH272958   6.364   4.865  16.077 -0.1163  0.5812  0.3479
17156TIP3    H172959   6.415   4.860  15.996 -1.0137  0.2771 -0.2202
17156TIP3    H272960   6.279   4.901  16.050 -0.5255  0.2186  1.0975
17157TIP3   OH272961   6.613   5.366   1.976  0.2474 -0.1163 -0.3552
17157TIP3    H172962   6.587   5.391   1.888  1.3509  0.1205 -0.6282
17157TIP3    H272963   6.691   5.419   1.995 -0.4556  0.4683  1.0992
17158TIP3   OH272964   3.619   2.533   5.447 -0.1788 -0.2078  0.3684
17158TIP3    H172965   3.606   2.578   5.364 -2.0963 -0.0223  0.7215
17158TIP3    H272966   3.705   2.562   5.478 -0.4463  1.5274 -0.4322
17159TIP3   OH272967   2.658   0.512   6.448 -0.1139 -0.0861 -0.2086
17159TIP3    H172968   2.597   0.510   6.521  0.1627  0.2876  0.0374
17159TIP3    H272969   2.626   0.582   6.392 -0.9914 -1.1140 -1.0459
17160TIP3   OH272970   1.655   6.396   2.748 -0.2650 -0.4393 -0.0536
17160TIP3    H172971   1.676   6.391   2.654 -1.0974 -1.0409 -0.2198
17160TIP3    H272972   1.671   6.487   2.771 -0.9116 -0.0743 -0.9920
17161TIP3   OH272973   0.625   6.260   3.316 -0.1975  0.5793  0.4567
17161TIP3    H172974   0.566   6.280   3.243  0.0134  2.1907  0.6897
17161TIP3    H272975   0.712   6.264   3.278 -0.1408  0.0556  0.5194
17162TIP3   OH272976   3.177   0.281   4.048  0.1196  0.0685 -0.0851
17162TIP3    H172977   3.161   0.342   3.975  0.0504  0.9858  0.6733
17162TIP3    H272978   3.268   0.298   4.073 -0.8974  2.6311  2.5314
17163TIP3   OH272979   2.518   1.243  15.790  0.4303  0.1172  0.2092
17163TIP3    H172980   2.538   1.232  15.883  1.3270 -1.6947 -0.1393
17163TIP3    H272981   2.428   1.276  15.789 -0.1529 -1.2419  1.7277
17164TIP3   OH272982   2.231   2.095   2.725 -0.4060  0.0692 -0.0367
17164TIP3    H172983   2.179   2.141   2.791 -2.0610 -1.2626 -0.3398
17164TIP3    H272984   2.233   2.155   2.650 -1.0947  0.3569  0.1669
17165TIP3   OH272985   0.733   6.825   2.259 -0.0432 -0.1087 -0.0190
17165TIP3    H172986   0.723   6.730   2.269 -1.6133 -0.0398 -0.5720
17165TIP3    H272987   0.663   6.862   2.313 -0.8574  0.6409 -1.5276
17166TIP3   OH272988   4.837   2.764   0.044  0.1787 -0.0990  0.1846
17166TIP3    H172989   4.843   2.686  -0.011  0.1712 -0.4447  0.6643
17166TIP3    H272990   4.812   2.730   0.130  0.2310  0.4280  0.4087
17167TIP3   OH272991   1.579   4.606  11.238  0.1701  0.1774 -0.4879
17167TIP3    H172992   1.611   4.523  11.203  0.8151  0.5190 -0.7331
17167TIP3    H272993   1.553   4.586  11.328 -0.8749 -0.5643 -0.9397
17168TIP3   OH272994   0.828   2.652   1.314 -0.4233  0.3832  0.0389
17168TIP3    H172995   0.868   2.579   1.266 -1.7614  0.9388 -2.0320
17168TIP3    H272996   0.892   2.722   1.308 -0.3107  0.2468 -0.4162
17169TIP3   OH272997   0.360   4.623   3.866 -0.1939 -0.8918  0.6293
17169TIP3    H172998   0.386   4.533   3.845 -1.2528 -0.7215 -1.6813
17169TIP3    H272999   0.300   4.648   3.795 -3.1318  0.2758  3.2871
17170TIP3   OH273000   1.357   0.521   0.885  0.3408  0.2894 -1.0007
17170TIP3    H173001   1.299   0.447   0.869 -0.8805  0.4290  2.1977
17170TIP3    H273002   1.445   0.486   0.867 -0.3288 -1.3709 -1.2679
17171TIP3   OH273003   6.783   0.517   0.347  0.2216  0.0993  0.2066
17171TIP3    H173004   6.823   0.430   0.354  0.3511  0.2265  1.3846
17171TIP3    H273005   6.707   0.513   0.405  0.4308  0.8737  0.5475
17172TIP3   OH273006   0.695   1.965   4.456 -0.8289 -0.5230  0.5535
17172TIP3    H173007   0.636   1.930   4.390 -1.6787  0.3562  0.8142
17172TIP3    H273008   0.770   1.906   4.456 -0.5442 -0.2456 -1.5700
17173TIP3   OH273009   5.480   0.587   6.054  0.2835 -0.1261 -0.7139
17173TIP3    H173010   5.445   0.537   5.980 -1.1947 -1.4533  0.8080
17173TIP3    H273011   5.431   0.556   6.130  1.9884  0.9316  0.9170
17174TIP3   OH273012   6.299   0.495   4.717 -0.0895 -0.0009 -0.0017
17174TIP3    H173013   6.388   0.464   4.700  0.2261  0.7341  0.2720
17174TIP3    H273014   6.283   0.470   4.808  1.0867  2.7065  1.0374
17175TIP3   OH273015   2.559   5.813   2.753 -0.0171 -0.1636  0.4461
17175TIP3    H173016   2.543   5.829   2.846 -0.1571  1.7929  0.1461
17175TIP3    H273017   2.516   5.730   2.735 -0.6353 -0.2149  1.9742
17176TIP3   OH273018   5.233   1.892  13.628 -0.6009  0.5036 -0.2139
17176TIP3    H173019   5.195   1.869  13.543  0.2555 -0.1624 -0.4355
17176TIP3    H273020   5.325   1.865  13.620 -0.8097 -0.7861  1.3788
17177TIP3   OH273021   0.584   2.554   5.914 -0.5200 -0.0463 -0.1658
17177TIP3    H173022   0.641   2.595   5.980  0.6237 -0.7096 -0.7048
17177TIP3    H273023   0.626   2.471   5.894 -1.2563 -0.1970 -1.1784
17178TIP3   OH273024   4.454   2.760   5.123 -0.7438 -0.0374  0.0766
17178TIP3    H173025   4.412   2.741   5.038 -3.2715  2.2464  0.6837
17178TIP3    H273026   4.544   2.782   5.100 -0.4998 -2.4102 -1.6422
17179TIP3   OH273027   6.634   0.396  14.790 -0.0435  0.2057 -0.1903
17179TIP3    H173028   6.703   0.450  14.828 -0.8445  0.8670  0.3419
17179TIP3    H273029   6.678   0.348  14.719  1.6030 -1.4838  1.8576
17180TIP3   OH273030   2.708   1.056  15.712 -0.0069  0.0496  0.0260
17180TIP3    H173031   2.648   1.124  15.743 -1.2215 -1.3420  0.8317
17180TIP3    H273032   2.658   0.975  15.719  2.0057 -1.1939  0.8057
17181TIP3   OH273033   6.409   0.401   3.548  0.2752 -0.0852 -0.5688
17181TIP3    H173034   6.418   0.477   3.491  0.4872  2.0178  2.0617
17181TIP3    H273035   6.495   0.393   3.591 -1.0439  1.2612  2.6367
17182TIP3   OH273036   5.514   3.137   1.586 -0.1376 -0.2188  0.1199
17182TIP3    H173037   5.584   3.174   1.531  0.2712  1.1899  1.5131
17182TIP3    H273038   5.532   3.043   1.588  1.3319  0.0342 -0.1218
17183TIP3   OH273039   5.907   4.940   0.789 -0.1651  0.5919 -0.1341
17183TIP3    H173040   5.922   4.884   0.713  0.7697 -3.9387  2.9722
17183TIP3    H273041   5.813   4.934   0.806 -0.4266  1.8579 -0.9963
17184TIP3   OH273042   4.934   4.571  15.074 -0.0598 -0.0750  0.1017
17184TIP3    H173043   4.996   4.644  15.067 -1.5933  1.4167  1.2529
17184TIP3    H273044   4.886   4.588  15.155 -0.5623 -2.3335  0.3322
17185TIP3   OH273045   5.837   5.520   4.742  0.2954 -1.1948  0.0342
17185TIP3    H173046   5.889   5.478   4.674 -1.0307  0.1813 -1.9178
17185TIP3    H273047   5.839   5.613   4.720 -1.3770 -0.8826  0.9982
17186TIP3   OH273048   5.363   6.094   1.143  0.4349 -0.6310  0.2496
17186TIP3    H173049   5.450   6.101   1.103  0.5714 -0.6316  0.5423
17186TIP3    H273050   5.370   6.143   1.224 -0.0907  0.0713 -0.1245
17187TIP3   OH273051   2.977   3.251  12.534  0.2583 -0.2344  0.3171
17187TIP3    H173052   2.921   3.245  12.611 -0.2009 -2.4747 -0.1387
17187TIP3    H273053   3.066   3.256  12.570 -0.0651  2.4992  1.0175
17188TIP3   OH273054   3.394   6.062   5.609 -0.3320  0.3108  0.2686
17188TIP3    H173055   3.445   6.045   5.689 -1.4975  0.3481  1.0330
17188TIP3    H273056   3.391   6.157   5.602  1.0594  0.3118 -0.6828
17189TIP3   OH273057   5.711   4.425   3.437  0.1870 -0.3463  0.2653
17189TIP3    H173058   5.789   4.440   3.490  0.3490  1.2370 -0.3708
17189TIP3    H273059   5.738   4.444   3.347 -1.0136  0.6284  0.0843
17190TIP3   OH273060   4.551   0.494   0.781 -0.2017 -0.1850  0.0527
17190TIP3    H173061   4.496   0.468   0.707 -0.4513  1.5006 -0.4150
17190TIP3    H273062   4.613   0.556   0.744  0.1928  0.0714  1.1014
17191TIP3   OH273063   5.895   4.102   2.917 -0.3174 -0.4613 -0.5625
17191TIP3    H173064   5.908   4.034   2.852  1.0232 -1.7907  1.0161
17191TIP3    H273065   5.944   4.177   2.883 -0.2698 -0.8818 -1.4462
17192TIP3   OH273066   2.431   0.077  15.887  0.2381 -0.2396  1.0131
17192TIP3    H173067   2.352   0.130  15.898 -1.8972 -3.1302  0.7435
17192TIP3    H273068   2.472   0.112  15.808 -1.6436  0.3447  0.2349
17193TIP3   OH273069   0.170   1.229   0.573  0.2782 -0.1485  0.2963
17193TIP3    H173070   0.120   1.307   0.549 -0.9759 -0.7629  0.8028
17193TIP3    H273071   0.148   1.214   0.665  0.8214 -0.8585  0.3200
17194TIP3   OH273072   4.159   1.265   2.082 -0.2429  0.6764 -0.4280
17194TIP3    H173073   4.192   1.197   2.022  2.2118 -0.7630  2.3048
17194TIP3    H273074   4.227   1.332   2.079  0.4556  0.1029  1.4023
17195TIP3   OH273075   0.116   4.730  11.500 -0.1185 -0.0094  0.2900
17195TIP3    H173076   0.123   4.682  11.417 -0.1688  0.1949  0.1677
17195TIP3    H273077   0.069   4.671  11.558 -0.0186 -0.1833  0.1962
17196TIP3   OH273078   5.844   0.083  11.594 -0.1430  0.7536  0.0136
17196TIP3    H173079   5.850   0.036  11.511  2.5336  1.1530 -0.1046
17196TIP3    H273080   5.873   0.172  11.574 -0.4504  1.1477  1.1923
17197TIP3   OH273081   3.846   3.863  14.237 -0.0027 -0.3687  0.2785
17197TIP3    H173082   3.923   3.877  14.292 -0.7442 -0.4220  1.3689
17197TIP3    H273083   3.873   3.795  14.175  0.9311 -0.1449  0.4315
17198TIP3   OH273084   3.883   3.202  12.303  0.2659  0.0771 -0.1531
17198TIP3    H173085   3.964   3.209  12.253  0.6098 -1.2221  0.1822
17198TIP3    H273086   3.907   3.232  12.391  0.3929 -0.2877 -0.0590
17199TIP3   OH273087   2.473   4.412  13.914 -0.0559  0.4307 -0.2599
17199TIP3    H173088   2.424   4.484  13.872 -0.2190  0.4182 -0.0914
17199TIP3    H273089   2.535   4.384  13.847 -1.2064 -0.4778 -0.9820
17200TIP3   OH273090   6.503   5.885   4.364 -0.1794  0.1722  0.2278
17200TIP3    H173091   6.484   5.974   4.335  1.8348  0.7966  0.6760
17200TIP3    H273092   6.586   5.892   4.410 -0.9845 -1.5979  2.1113
17201TIP3   OH273093   2.394   0.489  11.959  1.3958 -0.1276  0.5180
17201TIP3    H173094   2.323   0.501  11.896  0.5337 -0.9881  1.2988
17201TIP3    H273095   2.350   0.474  12.043  2.4642 -2.0348  0.7880
17202TIP3   OH273096   0.267   2.448   1.052 -0.4936  0.0225 -0.0176
17202TIP3    H173097   0.334   2.452   0.983  0.4983  1.6552  0.9654
17202TIP3    H273098   0.252   2.354   1.065  0.4925 -0.3528 -1.3039
17203TIP3   OH273099   6.112   0.712  15.385  0.3413  0.1206  0.0137
17203TIP3    H173100   6.039   0.655  15.362  0.1284  1.0249 -1.7119
17203TIP3    H273101   6.095   0.737  15.476 -0.4159 -1.2452  0.2779
17204TIP3   OH273102   3.101   5.045  10.445  0.1843  0.2864 -0.1035
17204TIP3    H173103   3.048   4.970  10.419 -0.1146 -0.1637  1.6898
17204TIP3    H273104   3.055   5.121  10.409 -1.7719 -0.0835  1.4539
17205TIP3   OH273105   1.056   4.922  16.240  0.5179  0.1693 -1.0469
17205TIP3    H173106   1.000   4.997  16.262  0.1826 -0.2594 -0.4354
17205TIP3    H273107   0.997   4.858  16.201  0.4572 -0.5428  0.1944
17206TIP3   OH273108   2.114   1.051   0.538 -0.4369  0.8618 -0.5675
17206TIP3    H173109   2.053   0.995   0.490 -0.9602 -1.1719  2.1543
17206TIP3    H273110   2.059   1.112   0.586 -0.1601  0.7563 -0.1064
17207TIP3   OH273111   2.933   5.637  14.425 -0.2610 -0.0997  0.1523
17207TIP3    H173112   2.889   5.702  14.371 -1.3150 -0.6278  0.3597
17207TIP3    H273113   2.905   5.656  14.515  0.2565 -0.1852  0.3375
17208TIP3   OH273114   5.225   1.578   5.659 -0.0893  0.6135  0.1121
17208TIP3    H173115   5.299   1.596   5.718  0.4230  0.0065 -0.3322
17208TIP3    H273116   5.198   1.489   5.680  0.9016 -0.0897 -1.3859
17209TIP3   OH273117   3.731   5.137  14.409 -0.0915 -0.7588  0.1561
17209TIP3    H173118   3.673   5.099  14.342 -0.8046 -0.3429  0.5226
17209TIP3    H273119   3.717   5.231  14.402  0.3538 -0.6713  0.4334
17210TIP3   OH273120   3.269   6.102  13.465 -0.0824 -0.2894  0.3321
17210TIP3    H173121   3.303   6.014  13.449  0.2219 -0.0933 -0.1069
17210TIP3    H273122   3.174   6.090  13.472 -0.5940 -0.1386 -3.9142
17211TIP3   OH273123   6.495   4.976   1.090  0.1147 -0.3817  0.0300
17211TIP3    H173124   6.471   4.996   1.000  0.2192  0.1719  0.1200
17211TIP3    H273125   6.456   5.046   1.141 -0.6828 -1.1565  0.5211
17212TIP3   OH273126   5.590   4.170   2.101 -0.2336 -0.0492  0.7107
17212TIP3    H173127   5.526   4.125   2.047  1.8799 -0.6624 -1.4831
17212TIP3    H273128   5.644   4.100   2.138  0.6104  0.4977  0.5529
17213TIP3   OH273129   5.466   2.232   3.925  0.3510 -0.5781  0.5505
17213TIP3    H173130   5.485   2.253   3.833  0.6408 -1.9689  0.2747
17213TIP3    H273131   5.387   2.282   3.945  0.0258 -0.6058 -0.5994
17214TIP3   OH273132   5.377   5.229  11.327 -0.4422  0.7153 -0.1399
17214TIP3    H173133   5.457   5.267  11.291  0.1308 -0.2051  0.1453
17214TIP3    H273134   5.353   5.288  11.399  1.3272 -0.2727  1.3318
17215TIP3   OH273135   3.033   3.218  14.352  0.3113 -0.1860  0.6315
17215TIP3    H173136   2.991   3.166  14.283  2.2828 -1.6235  0.4197
17215TIP3    H273137   2.985   3.196  14.432 -0.8177  0.0684  0.0390
17216TIP3   OH273138   2.531   1.916   0.553  0.1566  0.1949  0.6741
17216TIP3    H173139   2.569   1.833   0.581  2.2934  0.4620 -1.1557
17216TIP3    H273140   2.439   1.896   0.533  0.4968 -1.5738  0.7979
17217TIP3   OH273141   0.840   3.537   2.536 -0.2559  0.3563 -0.3030
17217TIP3    H173142   0.878   3.485   2.465  0.3960  0.6506 -0.1807
17217TIP3    H273143   0.912   3.548   2.598 -1.1439 -1.0096  1.0501
17218TIP3   OH273144   4.940   6.156   0.651  0.1929 -0.3275  0.4137
17218TIP3    H173145   4.888   6.234   0.631  1.4298  1.0761  2.3395
17218TIP3    H273146   4.986   6.177   0.732  0.4976 -3.1395  1.0747
17219TIP3   OH273147   3.779   4.858  15.999 -0.0616 -0.1034  0.2614
17219TIP3    H173148   3.766   4.810  16.081 -0.3901  0.4184  0.5141
17219TIP3    H273149   3.847   4.808  15.954 -1.2124 -1.4764 -0.0031
17220TIP3   OH273150   0.751   1.265   3.169 -0.1386 -0.2619  0.1293
17220TIP3    H173151   0.713   1.249   3.082 -1.0688  1.0569  0.2673
17220TIP3    H273152   0.677   1.289   3.224  0.7911  1.7836  0.5626
17221TIP3   OH273153   0.794   6.197   4.002  0.1583 -0.2308  0.1276
17221TIP3    H173154   0.706   6.160   4.011  0.6030 -1.0187  1.5065
17221TIP3    H273155   0.806   6.207   3.908 -2.0686  1.5198 -0.0617
17222TIP3   OH273156   2.380   0.944   2.821  0.2553  0.3052  0.7604
17222TIP3    H173157   2.357   0.875   2.883  0.6333  0.3314  0.9380
17222TIP3    H273158   2.346   0.914   2.737 -1.0623  0.6905  1.1301
17223TIP3   OH273159   3.718   5.753   3.486  0.2890 -0.2805 -0.1520
17223TIP3    H173160   3.699   5.806   3.563 -2.2620 -1.2655 -0.0118
17223TIP3    H273161   3.736   5.817   3.417  1.1237  0.6401  0.8811
17224TIP3   OH273162   1.562   5.313  12.656 -0.1163 -0.0167 -0.4937
17224TIP3    H173163   1.517   5.229  12.649  0.0508 -0.2465  0.8802
17224TIP3    H273164   1.495   5.378  12.635 -0.8397 -0.4086  0.5054
17225TIP3   OH273165   1.638   0.008   1.654  0.0171  0.0822  0.3922
17225TIP3    H173166   1.651  -0.006   1.560  1.3685 -1.1573  0.7365
17225TIP3    H273167   1.651   0.102   1.666 -0.4931  0.3080 -0.7001
17226TIP3   OH273168   2.769   3.768   4.701 -0.0333  0.0248  0.5026
17226TIP3    H173169   2.757   3.862   4.684  1.1042  0.3436  1.3404
17226TIP3    H273170   2.798   3.764   4.792  2.1762 -0.9187 -0.1584
17227TIP3   OH273171   3.313   2.657   3.927  0.2480  0.0126 -0.2010
17227TIP3    H173172   3.384   2.600   3.955 -0.4773 -0.8439 -0.0688
17227TIP3    H273173   3.281   2.617   3.846  0.7993  1.1635 -1.0254
17228TIP3   OH273174   2.458   2.717  11.678 -0.2808  0.4057  0.0601
17228TIP3    H173175   2.478   2.661  11.753 -0.2594  0.7759  0.3289
17228TIP3    H273176   2.468   2.659  11.602  0.1438  0.1495  0.3093
17229TIP3   OH273177   1.199   2.973  16.577 -0.0188 -0.7418 -0.4493
17229TIP3    H173178   1.147   2.982  16.657  1.1809 -0.1753  0.2914
17229TIP3    H273179   1.138   2.995  16.506 -0.9956 -0.8920  0.3301
17230TIP3   OH273180   0.200   6.315   0.722 -0.0558  0.5115  0.2207
17230TIP3    H173181   0.148   6.260   0.781 -1.7779  0.6053 -1.1440
17230TIP3    H273182   0.193   6.403   0.759  2.4851 -0.0117  2.2589
17231TIP3   OH273183   0.021   4.188   3.931 -0.3816  0.1503  0.1051
17231TIP3    H173184   0.063   4.103   3.940  0.6007  0.6135  0.0369
17231TIP3    H273185   0.093   4.251   3.938 -0.5341  0.8819 -3.2324
17232TIP3   OH273186   2.198   5.736  16.934  0.2750  0.7141  0.6351
17232TIP3    H173187   2.222   5.671  17.000  1.8929  1.9597  1.3614
17232TIP3    H273188   2.107   5.759  16.955 -0.2999 -1.1693  0.4205
17233TIP3   OH273189   6.565   4.711   6.209 -0.2956 -0.4062  0.2427
17233TIP3    H173190   6.546   4.791   6.259  1.1016 -1.2664  2.2788
17233TIP3    H273191   6.647   4.730   6.164  0.7443 -1.1029  1.7865
17234TIP3   OH273192   5.197   3.176  11.500  0.3871 -0.5868  0.1477
17234TIP3    H173193   5.144   3.239  11.452  0.2161 -0.9353 -0.1219
17234TIP3    H273194   5.283   3.179  11.457  0.4332 -0.4052  0.2516
17235TIP3   OH273195   2.429   6.168  14.611  0.8426 -0.0419  0.0362
17235TIP3    H173196   2.513   6.149  14.569  1.3140  2.9842 -0.5738
17235TIP3    H273197   2.441   6.138  14.701  0.9779 -3.5496 -0.9939
17236TIP3   OH273198   6.680   6.461   0.547  0.0834  0.1555 -0.1954
17236TIP3    H173199   6.701   6.381   0.500 -0.0182 -0.2925  0.5090
17236TIP3    H273200   6.765   6.503   0.563  0.0391  0.8512 -1.7009
17237TIP3   OH273201   1.434   1.307   0.612  0.3444  0.6456  0.1363
17237TIP3    H173202   1.365   1.314   0.678 -0.3973 -1.3469 -0.3490
17237TIP3    H273203   1.397   1.250   0.544  2.8468 -1.5548  0.4504
17238TIP3   OH273204   2.714   5.539   2.122 -0.4394  0.6388  0.3615
17238TIP3    H173205   2.690   5.617   2.072 -1.3049  1.4209  1.9328
17238TIP3    H273206   2.789   5.565   2.174 -0.0554  0.0785  0.0971
17239TIP3   OH273207   4.686   5.999  15.233  0.1882 -0.1778 -0.0583
17239TIP3    H173208   4.695   6.068  15.298  0.8749  0.3493 -0.7005
17239TIP3    H273209   4.690   5.918  15.284 -0.7811  0.2455  0.7157
17240TIP3   OH273210   5.003   5.609   0.006 -0.0836 -0.5974  0.3293
17240TIP3    H173211   5.050   5.635  -0.073 -0.7655 -0.1343  0.0719
17240TIP3    H273212   5.036   5.667   0.074 -0.1177 -0.4268  0.1995
17241TIP3   OH273213   6.539   1.801  11.077 -0.1606 -0.7647  0.2809
17241TIP3    H173214   6.443   1.800  11.085 -0.0585 -0.1320  2.1200
17241TIP3    H273215   6.561   1.891  11.055  0.1007 -0.4117  1.8838
17242TIP3   OH273216   3.502   1.651  12.187 -0.4373  0.3044 -0.8779
17242TIP3    H173217   3.485   1.559  12.207  3.7814 -0.4147  0.2905
17242TIP3    H273218   3.533   1.650  12.096  1.3059  0.2051 -0.3208
17243TIP3   OH273219   0.055   0.123  11.520 -0.5290  0.5219 -0.5835
17243TIP3    H173220   0.119   0.157  11.458 -0.1103 -2.4919 -1.9805
17243TIP3    H273221  -0.012   0.191  11.525  0.8775  2.1227 -2.0335
17244TIP3   OH273222   4.632   1.090   5.959  0.1786 -0.2094  0.0937
17244TIP3    H173223   4.719   1.052   5.963  0.8616  1.2594 -0.1864
17244TIP3    H273224   4.585   1.051   6.034  2.1550  1.5072  2.4005
17245TIP3   OH273225   3.119   6.335  12.195  0.2939  0.1325  0.1523
17245TIP3    H173226   3.103   6.342  12.289  0.6504  1.1808  0.1421
17245TIP3    H273227   3.041   6.292  12.160  0.1562 -0.2570  0.9157
17246TIP3   OH273228   2.407   5.023  11.282 -0.6578  0.0981  0.0711
17246TIP3    H173229   2.346   5.018  11.356 -1.6864 -1.4945 -0.8309
17246TIP3    H273230   2.378   5.100  11.232 -1.5210 -0.2555  0.0177
17247TIP3   OH273231   0.941   6.280   6.426  0.5157  0.0028  0.0603
17247TIP3    H173232   0.921   6.344   6.358  1.9843 -0.7783 -1.1856
17247TIP3    H273233   0.876   6.296   6.494 -0.9680  0.8790 -1.4726
17248TIP3   OH273234   1.625   4.112  12.360 -0.1958  0.2376 -0.4899
17248TIP3    H173235   1.645   4.177  12.428 -2.4168  1.1144 -0.5963
17248TIP3    H273236   1.613   4.163  12.280  1.5063 -0.6997 -1.4097
17249TIP3   OH273237   3.289   2.229   2.343 -0.2720  0.3763 -0.4279
17249TIP3    H173238   3.238   2.296   2.299 -1.2168  1.3326  1.9852
17249TIP3    H273239   3.227   2.158   2.361  0.2272 -0.2447 -1.0731
17250TIP3   OH273240   5.652   3.815  13.661 -0.7142 -0.2289 -0.7844
17250TIP3    H173241   5.638   3.724  13.684  0.8824  0.0138  1.4563
17250TIP3    H273242   5.612   3.865  13.732  1.8937  0.6556  0.1805
17251TIP3   OH273243   1.990   3.665  10.804 -0.2420  0.8088 -0.4441
17251TIP3    H173244   1.914   3.615  10.775  0.3543  0.6114 -1.7368
17251TIP3    H273245   2.030   3.698  10.723  0.6018  1.5692  0.2530
17252TIP3   OH273246   6.376   3.159   5.133  0.4985  0.6700  0.4101
17252TIP3    H173247   6.305   3.100   5.107  0.8585  0.4219 -0.0100
17252TIP3    H273248   6.454   3.122   5.092  0.7395  1.4094  0.1952
17253TIP3   OH273249   3.757   6.710  13.494  0.3388  0.5124 -0.0314
17253TIP3    H173250   3.729   6.727  13.404  0.5503 -0.8141 -0.3757
17253TIP3    H273251   3.704   6.635  13.521 -0.1344  1.2579  1.1673
17254TIP3   OH273252   6.836   5.645   1.321 -0.0514 -0.7311 -0.4286
17254TIP3    H173253   6.767   5.644   1.387  1.2387 -0.9743  0.9850
17254TIP3    H273254   6.892   5.571   1.344  1.1820 -0.0023 -0.9579
17255TIP3   OH273255   6.668   5.418   5.013 -0.2005 -0.0687 -0.4887
17255TIP3    H173256   6.623   5.493   5.051 -1.3000  0.5620 -2.8633
17255TIP3    H273257   6.600   5.351   5.003  0.3093 -0.6222 -0.3218
17256TIP3   OH273258   0.167   6.249   1.288  0.2317 -0.4845  0.2037
17256TIP3    H173259   0.226   6.195   1.236  2.2217  0.0105  1.8123
17256TIP3    H273260   0.201   6.243   1.377 -0.0622  2.5428  0.6327
17257TIP3   OH273261   5.716   1.250   0.011 -0.2907 -0.1168  0.4222
17257TIP3    H173262   5.626   1.279  -0.003 -0.4990 -1.1072 -0.4421
17257TIP3    H273263   5.712   1.194   0.089  0.0926  1.9517  2.0238
17258TIP3   OH273264   6.456   5.185   5.223 -0.9942  0.4603  0.3688
17258TIP3    H173265   6.478   5.119   5.157 -0.6463  0.6629  0.2825
17258TIP3    H273266   6.396   5.245   5.178  0.0885  1.2173 -0.1087
17259TIP3   OH273267   4.202   0.131  14.773  0.7368 -0.1154 -0.0172
17259TIP3    H173268   4.258   0.108  14.848  1.5557  0.2496 -0.5015
17259TIP3    H273269   4.237   0.214  14.742 -1.1721  1.0309  0.7262
17260TIP3   OH273270   6.500   3.408  12.685  0.0760 -0.1100 -0.4693
17260TIP3    H173271   6.583   3.455  12.694 -0.0755  0.2697 -0.9414
17260TIP3    H273272   6.497   3.383  12.592 -0.1406 -0.4934 -0.3602
17261TIP3   OH273273   6.711   3.570  12.706  0.1023  0.0124  0.9860
17261TIP3    H173274   6.707   3.592  12.613 -0.1312  0.5849  1.1242
17261TIP3    H273275   6.713   3.655  12.751  0.3468 -0.2592  1.4967
17262TIP3   OH273276   0.022   5.028   2.182 -0.0815 -0.6651 -1.0415
17262TIP3    H173277  -0.028   4.970   2.239  0.6482 -0.8746 -0.6005
17262TIP3    H273278   0.086   5.069   2.240 -1.5007  1.7251 -1.0428
17263TIP3   OH273279   1.592   1.072  10.758 -0.3041 -0.4093  0.0317
17263TIP3    H173280   1.602   0.984  10.722 -1.0669 -0.2841 -0.5199
17263TIP3    H273281   1.658   1.124  10.714  0.5749 -0.8310  0.8253
17264TIP3   OH273282   6.572   6.477   5.276  0.1964 -0.0253 -0.4306
17264TIP3    H173283   6.644   6.464   5.214  1.2028 -0.0161  0.7003
17264TIP3    H273284   6.587   6.566   5.310  1.4239 -1.0800  1.9842
17265TIP3   OH273285   0.002   1.652  14.336  0.0997  0.1298  0.3649
17265TIP3    H173286  -0.067   1.694  14.285  0.0634 -1.0264 -0.5859
17265TIP3    H273287   0.056   1.724  14.367  0.3969  0.8740 -1.7199
17266TIP3   OH273288   0.274   6.717  11.215 -0.1720 -0.3846 -0.2168
17266TIP3    H173289   0.296   6.666  11.137 -0.9307 -1.0446 -0.0063
17266TIP3    H273290   0.348   6.778  11.225  0.8412 -1.5550 -0.3640
17267TIP3   OH273291   2.171   6.539   0.313  0.1185  0.0481 -1.0319
17267TIP3    H173292   2.127   6.472   0.366 -0.4314  0.8213 -0.4965
17267TIP3    H273293   2.264   6.517   0.320 -0.0661 -0.7893 -1.0430
17268TIP3   OH273294   2.145   0.811  13.104 -0.1613 -0.6762  0.2231
17268TIP3    H173295   2.224   0.851  13.067 -0.8086  0.5826  0.1441
17268TIP3    H273296   2.115   0.751  13.036 -0.4607  0.4419 -0.6682
17269TIP3   OH273297   3.364   5.598  16.577  0.5493 -0.6220 -0.4976
17269TIP3    H173298   3.385   5.650  16.499 -0.2372  0.8225  0.2136
17269TIP3    H273299   3.271   5.576  16.566  0.1358  0.5358  0.5362
17270TIP3   OH273300   6.169   3.932   5.873 -0.4026  0.0117  0.1507
17270TIP3    H173301   6.197   4.007   5.821 -1.0393  0.2870  0.1954
17270TIP3    H273302   6.247   3.905   5.921 -0.5071  1.5695  1.2809
17271TIP3   OH273303   4.838   4.761   0.075  0.0361  0.5838 -0.5121
17271TIP3    H173304   4.766   4.823   0.063 -0.0585  0.8235  1.0481
17271TIP3    H273305   4.901   4.783   0.006 -0.9801  0.9577 -1.3376
17272TIP3   OH273306   5.563   1.081   4.426 -0.1013 -0.0473  0.6117
17272TIP3    H173307   5.583   1.152   4.365  1.7477  0.3176  1.5769
17272TIP3    H273308   5.530   1.010   4.370 -0.9173  1.1520 -0.4860
17273TIP3   OH273309   2.563   1.183  11.970 -0.0634  0.4492 -0.7367
17273TIP3    H173310   2.511   1.244  11.919 -0.4742  0.4391 -0.3359
17273TIP3    H273311   2.647   1.228  11.984  0.3275  0.1577 -2.0235
17274TIP3   OH273312   0.647   5.499   2.950  0.0586 -0.2303  0.3600
17274TIP3    H173313   0.672   5.545   3.030 -0.5502 -0.7960  0.8826
17274TIP3    H273314   0.678   5.409   2.963  0.6547 -0.1395 -0.3778
17275TIP3   OH273315   4.361   5.237   4.736  1.0179  0.4135 -0.6428
17275TIP3    H173316   4.393   5.208   4.650 -0.6722  1.2838 -1.6084
17275TIP3    H273317   4.435   5.220   4.795  1.1231 -3.3036 -1.5635
17276TIP3   OH273318   1.748   2.443  11.771  0.1781 -0.4613  0.6521
17276TIP3    H173319   1.817   2.506  11.794 -0.3118  0.3745 -0.0906
17276TIP3    H273320   1.671   2.476  11.818 -0.3517  0.1430 -0.6075
17277TIP3   OH273321   6.238   3.257  13.832  0.2928  0.1034  0.4457
17277TIP3    H173322   6.296   3.330  13.854 -2.0091  1.8859  1.0820
17277TIP3    H273323   6.168   3.263  13.897 -0.2680 -2.3676  0.1415
17278TIP3   OH273324   2.373   1.866   4.918  0.0510 -0.1889  0.0511
17278TIP3    H173325   2.323   1.896   4.842  0.0382 -0.2672  0.0278
17278TIP3    H273326   2.326   1.902   4.993  1.0121  1.3078 -0.0340
17279TIP3   OH273327   4.452   1.689  12.007  0.2188 -0.1592 -0.0985
17279TIP3    H173328   4.511   1.758  11.974  0.0799  0.4945  0.9815
17279TIP3    H273329   4.367   1.733  12.015 -0.5528 -1.1665 -1.9412
17280TIP3   OH273330   3.251   1.523  11.207 -0.1358  0.4854  0.6551
17280TIP3    H173331   3.200   1.484  11.136  1.5451  0.2508 -0.4787
17280TIP3    H273332   3.193   1.589  11.245 -0.8689  1.0510 -1.3329
17281TIP3   OH273333   5.987   6.775  15.153 -0.0609 -0.7340  0.1202
17281TIP3    H173334   6.002   6.693  15.107 -0.7786 -0.4707 -0.5873
17281TIP3    H273335   5.907   6.761  15.204 -1.0385 -0.0022 -1.1591
17282TIP3   OH273336   5.903   4.176   4.222  0.3742 -0.1319  0.4892
17282TIP3    H173337   5.913   4.108   4.288 -0.0206  1.7360  2.6009
17282TIP3    H273338   5.990   4.215   4.214  0.7188 -1.1185 -1.0798
17283TIP3   OH273339   6.821   2.334   0.259 -0.5056  0.4883  0.0607
17283TIP3    H173340   6.904   2.301   0.294 -2.1641 -0.6455  3.4164
17283TIP3    H273341   6.819   2.426   0.284  0.5866  1.1269 -1.9876
17284TIP3   OH273342   5.844   0.493   5.867  0.0194 -0.1073 -0.4340
17284TIP3    H173343   5.864   0.557   5.936 -0.5758  0.6570 -0.9474
17284TIP3    H273344   5.770   0.443   5.901  0.0116 -0.0284 -0.3354
17285TIP3   OH273345   0.705   1.616   1.041 -0.1877  0.8870  0.1173
17285TIP3    H173346   0.786   1.581   1.004 -0.9200 -1.1031  0.2804
17285TIP3    H273347   0.733   1.655   1.124  0.5919  0.0467  0.2740
17286TIP3   OH273348   2.178   4.858   4.257 -0.0028  0.0239  0.2513
17286TIP3    H173349   2.229   4.777   4.266 -0.3369 -0.2570 -0.2881
17286TIP3    H273350   2.087   4.827   4.251 -0.2415  0.5142  1.2142
17287TIP3   OH273351   5.340   2.212  12.409 -0.1306  0.8654  0.0444
17287TIP3    H173352   5.292   2.135  12.438 -1.8669  1.4563 -1.1191
17287TIP3    H273353   5.366   2.255  12.491 -2.5694  1.0894  0.7972
17288TIP3   OH273354   6.709   6.747   0.245  1.0299  0.1272 -0.1420
17288TIP3    H173355   6.683   6.800   0.169  0.1080  2.7920  1.8672
17288TIP3    H273356   6.649   6.672   0.244  1.5887 -0.3715 -2.4255
17289TIP3   OH273357   2.884   6.598  13.724 -0.0208 -0.3150  0.0409
17289TIP3    H173358   2.814   6.642  13.676  1.5904  1.1184 -1.1340
17289TIP3    H273359   2.963   6.647  13.701  1.5291 -2.4221  0.5701
17290TIP3   OH273360   1.778   4.304  13.666  0.0705  0.3335  0.4982
17290TIP3    H173361   1.874   4.304  13.665  0.0642  0.8409 -0.1464
17290TIP3    H273362   1.754   4.387  13.706 -0.1091  0.5645 -0.0892
17291TIP3   OH273363   5.135   1.761   1.239 -0.1719  0.5345 -0.6041
17291TIP3    H173364   5.192   1.794   1.169 -1.6149  1.4706 -1.3886
17291TIP3    H273365   5.155   1.668   1.244  2.1661  1.0069 -0.1138
17292TIP3   OH273366   5.635   2.465  16.094  0.0551 -0.2821 -0.6487
17292TIP3    H173367   5.682   2.389  16.058 -0.2131 -0.6939 -0.1437
17292TIP3    H273368   5.543   2.440  16.092 -0.0716  0.1927 -0.8532
17293TIP3   OH273369   2.147   4.046  12.148  0.4838 -0.4943 -0.0744
17293TIP3    H173370   2.085   4.017  12.082  0.5589  0.5578 -0.6265
17293TIP3    H273371   2.225   3.992  12.133 -0.6440 -2.6669  1.3914
17294TIP3   OH273372   0.874   4.943   3.746  0.1316 -0.2854  0.0212
17294TIP3    H173373   0.894   4.992   3.826  0.7715 -0.5689  0.0470
17294TIP3    H273374   0.779   4.944   3.740 -0.0390 -1.6510  1.6802
17295TIP3   OH273375   5.112   3.316   3.528 -0.5085  0.0322  0.1679
17295TIP3    H173376   5.018   3.331   3.540 -0.7094 -0.4888 -0.6205
17295TIP3    H273377   5.147   3.308   3.617 -1.4680 -1.2186  0.4577
17296TIP3   OH273378   3.488   4.690  13.876  0.1309  0.3897 -0.4814
17296TIP3    H173379   3.478   4.683  13.781 -0.7316 -3.3726 -0.2724
17296TIP3    H273380   3.539   4.613  13.900 -1.1992  0.2613  2.2654
17297TIP3   OH273381   5.851   0.548   2.439 -0.0736  0.3965 -0.3208
17297TIP3    H173382   5.941   0.571   2.419 -0.0206 -0.4082 -1.0566
17297TIP3    H273383   5.823   0.614   2.503  0.3757  1.8816 -1.5975
17298TIP3   OH273384   0.575   4.227   6.609 -0.3975 -0.0771 -0.0798
17298TIP3    H173385   0.586   4.183   6.693 -0.4537  2.7788  1.5388
17298TIP3    H273386   0.660   4.266   6.591 -0.8892  0.9033 -0.3673
17299TIP3   OH273387   2.711   5.836  14.921  0.3274  0.5067  0.2231
17299TIP3    H173388   2.626   5.873  14.946 -0.4981 -1.2663  0.1639
17299TIP3    H273389   2.697   5.741  14.921  1.7019  0.2369 -1.9809
17300TIP3   OH273390   1.996   0.030   3.577 -0.0925 -0.2201  0.5282
17300TIP3    H173391   1.916   0.078   3.599  1.2471  2.9853 -0.9158
17300TIP3    H273392   1.996   0.026   3.481  0.1127 -2.8531  0.5661
17301TIP3   OH273393   5.418   1.951   3.869 -0.2558 -0.0337 -0.2556
17301TIP3    H173394   5.425   2.046   3.875 -1.3760  0.0104  0.6726
17301TIP3    H273395   5.352   1.927   3.934 -0.2315 -1.4195 -0.6993
17302TIP3   OH273396   5.595   4.197  13.318  0.2416 -0.5092  0.4611
17302TIP3    H173397   5.609   4.112  13.360 -2.2707 -2.2613 -1.9243
17302TIP3    H273398   5.570   4.176  13.228 -0.4599  2.7857 -0.2414
17303TIP3   OH273399   3.362   3.450   1.794  0.6155  0.3549 -0.2345
17303TIP3    H173400   3.405   3.396   1.727 -0.0627  1.6280 -1.7818
17303TIP3    H273401   3.407   3.428   1.875  2.3934 -0.2943 -1.3311
17304TIP3   OH273402   0.202   5.169   5.842  0.5734  0.3832  0.1172
17304TIP3    H173403   0.196   5.264   5.845  1.1624  0.4882 -1.1519
17304TIP3    H273404   0.267   5.151   5.774  1.0580 -0.9205  0.8740
17305TIP3   OH273405   0.888   6.005   1.375 -0.3028  0.3420 -0.0725
17305TIP3    H173406   0.923   6.051   1.298  1.2472  1.5889  1.3127
17305TIP3    H273407   0.881   5.914   1.347 -1.1454  0.9862 -2.1393
17306TIP3   OH273408   5.857   0.814   3.383  0.0215 -0.1917 -0.0245
17306TIP3    H173409   5.768   0.780   3.374  0.3522 -1.0248 -0.1553
17306TIP3    H273410   5.844   0.906   3.407 -0.8787 -0.6459  1.3275
17307TIP3   OH273411   0.091   4.886   2.527  0.2810  0.0748  0.5267
17307TIP3    H173412   0.161   4.839   2.482 -0.5529  1.8636 -3.0609
17307TIP3    H273413   0.136   4.943   2.590  2.0837  0.7208 -1.2446
17308TIP3   OH273414   2.603   3.590  10.695  0.0731 -0.3377 -0.1278
17308TIP3    H173415   2.537   3.659  10.706  0.6878  0.1801  0.3959
17308TIP3    H273416   2.621   3.590  10.601 -1.7756 -1.5543 -0.5343
17309TIP3   OH273417   5.603   0.597  11.527 -0.3213  0.0033 -0.0172
17309TIP3    H173418   5.570   0.664  11.467 -0.6122 -1.1481 -1.1808
17309TIP3    H273419   5.687   0.570  11.489 -0.1687 -0.2380  0.4844
17310TIP3   OH273420   0.857   5.244  11.111  0.3605  0.1063  0.4091
17310TIP3    H173421   0.879   5.311  11.046  0.6178  1.5832  1.9706
17310TIP3    H273422   0.819   5.292  11.184 -0.5422 -1.5848  1.1136
17311TIP3   OH273423   1.402   5.312  16.117  0.3493 -0.0886 -0.0469
17311TIP3    H173424   1.316   5.273  16.100 -0.2139  0.7321  0.8015
17311TIP3    H273425   1.444   5.252  16.178 -0.1187  0.1189  0.4871
17312TIP3   OH273426   1.591   0.190   4.360  0.9982  0.2957 -0.0472
17312TIP3    H173427   1.512   0.145   4.332  1.3616 -0.7000  0.5069
17312TIP3    H273428   1.595   0.177   4.454  0.7492  2.0969  0.2506
17313TIP3   OH273429   5.494   6.101   0.183  0.4544 -0.4915 -0.0274
17313TIP3    H173430   5.520   6.176   0.130 -2.0830 -0.0651 -0.7954
17313TIP3    H273431   5.499   6.133   0.273  0.8828  0.0933 -0.2545
17314TIP3   OH273432   2.541   0.528  15.903 -0.4209  0.3603 -0.2283
17314TIP3    H173433   2.575   0.462  15.963  0.2311  1.5742  0.7692
17314TIP3    H273434   2.478   0.480  15.848 -1.0220 -0.7866  1.3909
17315TIP3   OH273435   1.204   1.565   0.622  0.1018  0.3667  0.1441
17315TIP3    H173436   1.156   1.513   0.556 -0.3926 -0.7408  1.3258
17315TIP3    H273437   1.247   1.633   0.571  0.9520 -1.3117 -1.5414
17316TIP3   OH273438   6.834   4.084  15.952 -0.4609 -0.1488  0.8245
17316TIP3    H173439   6.829   4.010  16.013  1.8580 -2.6650 -1.7295
17316TIP3    H273440   6.896   4.144  15.992  0.8889 -1.6713  1.1450
17317TIP3   OH273441   2.141   5.372  13.450  0.1305  0.1532 -0.7118
17317TIP3    H173442   2.149   5.405  13.540 -1.6824 -0.6693 -0.1984
17317TIP3    H273443   2.210   5.417  13.402 -0.3203  2.4002  0.5813
17318TIP3   OH273444   6.583   2.983   4.824 -0.1501  0.3311 -0.3271
17318TIP3    H173445   6.623   2.919   4.765 -0.0497 -1.2460  1.3611
17318TIP3    H273446   6.490   2.965   4.820 -0.0720 -0.3104  0.5623
17319TIP3   OH273447   3.466   3.320  16.455  0.7084 -0.2385  0.0946
17319TIP3    H173448   3.415   3.400  16.445  1.9276  0.7107  1.1039
17319TIP3    H273449   3.440   3.285  16.540 -2.0372 -2.6512 -1.5289
17320TIP3   OH273450   0.289   1.695  13.159  0.0867  0.2471  0.5469
17320TIP3    H173451   0.216   1.672  13.217  0.7247 -0.6813  1.0086
17320TIP3    H273452   0.364   1.706  13.218  1.1717 -2.4513 -0.1918
17321TIP3   OH273453   1.916   3.297  12.388  0.3378  0.1998 -0.0609
17321TIP3    H173454   1.901   3.213  12.345 -0.4720  0.9230 -1.2691
17321TIP3    H273455   1.839   3.349  12.365  0.8036  1.2610  0.7066
17322TIP3   OH273456   4.357   6.550  11.931 -0.1152 -0.5597 -0.2475
17322TIP3    H173457   4.336   6.457  11.920  0.8095 -0.5913 -2.0486
17322TIP3    H273458   4.350   6.564  12.026 -1.7541 -2.0768 -0.0775
17323TIP3   OH273459   5.075   4.357  15.941 -0.0912 -0.5141 -0.6325
17323TIP3    H173460   5.165   4.359  15.973 -0.3645 -2.0577  0.3972
17323TIP3    H273461   5.080   4.391  15.852  1.2793  0.7090 -0.1231
17324TIP3   OH273462   0.144   0.846   0.757 -0.4100  0.4695 -0.1172
17324TIP3    H173463   0.155   0.777   0.692 -0.1473  0.1823  0.2317
17324TIP3    H273464   0.141   0.927   0.705  0.6109  0.3227 -0.4397
17325TIP3   OH273465   4.196   1.338   2.833  0.5677 -0.0370 -0.7370
17325TIP3    H173466   4.224   1.393   2.760 -0.1286  2.2868  0.6614
17325TIP3    H273467   4.147   1.396   2.890  2.0427 -1.4673  2.2167
17326TIP3   OH273468   5.123   5.655   5.681  0.4490 -0.2241 -0.1428
17326TIP3    H173469   5.201   5.657   5.736 -0.4906 -0.2385  1.2419
17326TIP3    H273470   5.075   5.735   5.704 -0.5982 -0.8891  0.0413
17327TIP3   OH273471   4.903   1.000   5.247 -0.4976  0.8721 -1.0847
17327TIP3    H173472   4.933   1.069   5.188  0.7094  0.9593 -0.4170
17327TIP3    H273473   4.861   1.046   5.319 -3.6839  0.7030 -2.6795
17328TIP3   OH273474   3.757   2.199   1.898  0.1158  0.5818  0.1512
17328TIP3    H173475   3.674   2.244   1.881  0.4453  1.3856  0.6543
17328TIP3    H273476   3.823   2.250   1.853  0.3833  0.0957 -0.0193
17329TIP3   OH273477   4.735   3.529  15.393  0.3003 -0.3092  0.2676
17329TIP3    H173478   4.815   3.486  15.426  0.3337 -1.0141 -0.6885
17329TIP3    H273479   4.664   3.472  15.422 -0.0077  0.8994  2.1006
17330TIP3   OH273480   1.354   5.024   5.853  0.0275 -0.3194  0.1026
17330TIP3    H173481   1.427   5.084   5.870  0.5699 -0.8049 -0.4331
17330TIP3    H273482   1.295   5.036   5.928 -0.4931  1.7385 -0.5732
17331TIP3   OH273483   1.678   0.558   1.613  0.0357 -0.1681 -0.3804
17331TIP3    H173484   1.665   0.464   1.602  0.8541 -0.5252  1.3848
17331TIP3    H273485   1.773   0.569   1.608  0.1439  0.1989  1.7070
17332TIP3   OH273486   5.765   6.790  16.360  0.5814 -0.4345 -0.1590
17332TIP3    H173487   5.706   6.717  16.377 -1.4335  1.0034 -0.5427
17332TIP3    H273488   5.753   6.848  16.435  1.4895 -0.0817 -0.2774
17333TIP3   OH273489   1.465   4.838  11.467  0.6222  0.4998  0.0500
17333TIP3    H173490   1.488   4.919  11.421  0.7958  1.0269  1.0529
17333TIP3    H273491   1.420   4.866  11.546  0.8599 -0.3719  0.5169
17334TIP3   OH273492   5.261   5.529  11.970 -0.5128  0.1648  0.2833
17334TIP3    H173493   5.331   5.514  11.906 -0.8719  0.1013 -0.0992
17334TIP3    H273494   5.301   5.508  12.054 -0.2414 -0.4449  0.0106
17335TIP3   OH273495   5.623   3.837  14.708  0.2774  0.4196  0.4107
17335TIP3    H173496   5.702   3.790  14.734 -0.0342 -0.2851  0.1055
17335TIP3    H273497   5.572   3.773  14.659  0.2308  1.3273 -0.7526
17336TIP3   OH273498   1.135   5.860   5.704 -0.1745  0.2194  0.0679
17336TIP3    H173499   1.217   5.909   5.712  0.5713 -0.9509 -0.1369
17336TIP3    H273500   1.085   5.884   5.782 -0.0684  1.6947 -0.2874
17337TIP3   OH273501   3.827   6.113   5.352 -0.0775  0.5848  0.4824
17337TIP3    H173502   3.748   6.160   5.381 -0.1710  0.4841  0.3919
17337TIP3    H273503   3.825   6.119   5.257 -0.9313 -0.9260  0.3699
17338TIP3   OH273504   0.213   0.128   4.301  0.0484  0.5157 -0.4187
17338TIP3    H173505   0.146   0.060   4.312 -1.5317  2.2157  1.1700
17338TIP3    H273506   0.227   0.133   4.206 -0.5807 -1.2365 -0.6476
17339TIP3   OH273507   0.110   0.849   3.435 -0.0131  0.1783  0.1719
17339TIP3    H173508   0.014   0.850   3.436 -0.0197  1.2310  0.0908
17339TIP3    H273509   0.134   0.936   3.468  0.9268 -0.4017  1.0515
17340TIP3   OH273510   1.482   4.313  14.609 -0.1096  0.2003 -0.3323
17340TIP3    H173511   1.556   4.290  14.554 -1.3757  0.0960 -2.0806
17340TIP3    H273512   1.519   4.367  14.679  1.6303 -0.1277 -0.9665
17341TIP3   OH273513   2.118   6.327  16.000 -0.3005  0.2333  0.1239
17341TIP3    H173514   2.171   6.406  16.008 -0.6061  0.3460  1.3518
17341TIP3    H273515   2.032   6.358  15.972 -0.4139  0.3551  0.5837
17342TIP3   OH273516   0.833   4.415  13.013  0.1232 -0.0799 -0.2658
17342TIP3    H173517   0.926   4.415  13.036 -0.0276  2.3664  0.6810
17342TIP3    H273518   0.832   4.419  12.917  1.0453  1.0188 -0.2525
17343TIP3   OH273519   5.974   1.883  15.295  0.2907 -0.6954 -0.2228
17343TIP3    H173520   5.905   1.912  15.354  0.8375 -1.2198  0.6985
17343TIP3    H273521   5.945   1.796  15.266 -0.4821 -0.0176 -1.5773
17344TIP3   OH273522   1.157   0.987   0.120 -0.3662  0.8608  0.4823
17344TIP3    H173523   1.195   1.062   0.073 -3.1011  2.3031  0.4163
17344TIP3    H273524   1.152   1.015   0.211 -0.9537  0.5768  0.5424
17345TIP3   OH273525   6.306   3.994   3.584 -0.2606 -0.2585  0.4936
17345TIP3    H173526   6.221   4.001   3.625 -1.0991 -0.0039 -1.1953
17345TIP3    H273527   6.292   4.025   3.494  1.2950 -1.4556 -0.2119
17346TIP3   OH273528   3.081   5.425   4.402  0.0366  0.5989 -0.7196
17346TIP3    H173529   3.147   5.390   4.343  0.7180  0.6035  0.0149
17346TIP3    H273530   2.998   5.393   4.368  0.6011 -1.4726 -0.2723
17347TIP3   OH273531   4.187   4.380   5.391  0.4407 -0.0427 -0.1622
17347TIP3    H173532   4.102   4.371   5.348  1.2980 -2.0699 -1.5772
17347TIP3    H273533   4.208   4.473   5.382 -0.6734  0.1065 -1.6967
17348TIP3   OH273534   6.832   1.941   0.067 -0.6237 -0.4913 -0.7838
17348TIP3    H173535   6.853   1.848   0.055  1.4700 -0.4986  1.8960
17348TIP3    H273536   6.889   1.986   0.005  1.1809 -0.9369  0.4457
17349TIP3   OH273537   1.921   0.975  13.978 -0.0839 -0.2486  0.2437
17349TIP3    H173538   1.837   1.019  13.990  0.1386  0.5313 -0.8847
17349TIP3    H273539   1.962   1.022  13.905  0.8335 -1.3503  0.0257
17350TIP3   OH273540   0.149   0.132   0.472 -0.0754  0.3286 -0.0045
17350TIP3    H173541   0.140   0.050   0.424 -0.5135  0.9083 -0.9259
17350TIP3    H273542   0.073   0.184   0.446 -1.0810  0.1588  2.3403
17351TIP3   OH273543   1.470   0.098  14.337 -0.2082 -0.2125 -0.0578
17351TIP3    H173544   1.444   0.087  14.428 -0.7928  0.6932 -0.1036
17351TIP3    H273545   1.565   0.109  14.340  0.0162 -1.9449  0.2603
17352TIP3   OH273546   5.447   5.334  16.279  0.1671 -0.4076  0.3674
17352TIP3    H173547   5.493   5.282  16.213 -1.4667 -1.0965 -0.3012
17352TIP3    H273548   5.375   5.375  16.231  0.4514  1.1559  1.2311
17353TIP3   OH273549   5.185   4.330  12.372 -0.1771  0.2288 -0.5129
17353TIP3    H173550   5.157   4.279  12.296  0.2004  0.3615 -0.7382
17353TIP3    H273551   5.117   4.396  12.382 -0.2028  0.2416 -0.7644
17354TIP3   OH273552   0.336   1.800   1.773 -0.0632 -0.0407 -0.6230
17354TIP3    H173553   0.367   1.889   1.754  1.4902 -0.2015  0.9129
17354TIP3    H273554   0.336   1.795   1.869 -0.0064 -1.7294 -0.6800
17355TIP3   OH273555   0.042   5.954   2.963 -0.0846 -0.1361  0.0608
17355TIP3    H173556   0.005   5.927   3.048 -1.7009  0.0627 -0.5395
17355TIP3    H273557   0.135   5.966   2.980 -0.2679 -0.7184  1.6617
17356TIP3   OH273558   4.330   1.023   5.860  0.7312 -0.0596 -0.3352
17356TIP3    H173559   4.333   1.115   5.884 -0.6927 -0.1031  0.1288
17356TIP3    H273560   4.398   0.982   5.912 -0.3713  0.3246  1.5030
17357TIP3   OH273561   1.974   0.601  13.019  0.2916  0.1378  0.1277
17357TIP3    H173562   1.945   0.519  13.060 -1.0063  0.8739  0.7336
17357TIP3    H273563   1.896   0.656  13.017  1.4073  1.8393  0.8680
17358TIP3   OH273564   0.771   1.270   5.612  0.2162  0.4191  0.2699
17358TIP3    H173565   0.742   1.192   5.564  0.2982  0.9010 -0.5669
17358TIP3    H273566   0.709   1.277   5.684  1.1433 -1.3472  1.3279
17359TIP3   OH273567   5.035   5.040  10.235 -0.5459  0.5086 -0.0178
17359TIP3    H173568   5.082   5.085  10.165  1.2241 -0.9546  0.1308
17359TIP3    H273569   4.998   5.110  10.288 -2.1098  1.6483 -2.4707
17360TIP3   OH273570   2.464   3.814   2.722 -0.9478 -0.1711  0.2969
17360TIP3    H173571   2.442   3.877   2.653 -2.1293 -0.5688  0.2895
17360TIP3    H273572   2.560   3.809   2.720 -0.8760  1.0172 -0.2380
17361TIP3   OH273573   5.377   4.123   1.914  0.3457 -0.2311  0.4504
17361TIP3    H173574   5.433   4.089   1.844  0.5537  0.5018  0.2590
17361TIP3    H273575   5.321   4.188   1.871 -1.4232 -1.6900  0.3972
17362TIP3   OH273576   1.407   0.080  11.371  0.1753  0.0540 -0.2662
17362TIP3    H173577   1.361   0.076  11.287  0.8096  0.8382 -0.6617
17362TIP3    H273578   1.497   0.057  11.350  0.7910  2.1927 -0.1860
17363TIP3   OH273579   3.466   1.861   5.609 -0.7089 -0.3186 -0.3527
17363TIP3    H173580   3.462   1.803   5.685 -0.3210 -1.6220 -1.2917
17363TIP3    H273581   3.384   1.846   5.562 -0.8875  0.3737 -0.2749
17364TIP3   OH273582   3.119   2.799  16.464 -0.1787 -0.0622 -0.3212
17364TIP3    H173583   3.058   2.749  16.410 -0.5020  0.2389 -0.2333
17364TIP3    H273584   3.109   2.761  16.551 -0.9228  0.6045 -0.1089
17365TIP3   OH273585   5.866   4.256  15.819 -0.0780  0.2406  0.1120
17365TIP3    H173586   5.838   4.247  15.728  0.3454 -1.9832  0.1508
17365TIP3    H273587   5.819   4.333  15.850 -1.7492 -0.0662 -1.4399
17366TIP3   OH273588   5.822   3.756  12.553 -0.4208 -0.6037  0.3944
17366TIP3    H173589   5.799   3.727  12.642 -1.1152 -1.2296  0.0311
17366TIP3    H273590   5.745   3.734  12.501 -0.8665  1.6453  0.0027
17367TIP3   OH273591   0.331   2.591  11.346  0.0512  0.3490 -0.1016
17367TIP3    H173592   0.300   2.505  11.377  0.6693 -0.5007 -1.7081
17367TIP3    H273593   0.426   2.587  11.357 -0.0035  1.2456  0.7653
17368TIP3   OH273594   5.287   6.397  16.961 -0.2167  0.5269  0.7769
17368TIP3    H173595   5.205   6.403  17.010 -1.4194  1.0039 -1.1582
17368TIP3    H273596   5.272   6.452  16.884  2.2486  1.2723  0.7663
17369TIP3   OH273597   5.657   1.698  14.821  0.7157 -0.3250 -0.2247
17369TIP3    H173598   5.650   1.726  14.912 -1.2276 -1.1690 -0.0807
17369TIP3    H273599   5.615   1.767  14.771 -0.3241 -0.9472 -0.2421
17370TIP3   OH273600   3.950   5.343   0.870  0.5198 -0.0479  0.0471
17370TIP3    H173601   4.035   5.386   0.868  0.2822  0.5333  1.2322
17370TIP3    H273602   3.900   5.392   0.936 -1.0353  0.1817 -1.2342
17371TIP3   OH273603   0.464   1.566  12.986  0.3087  0.1656 -0.6628
17371TIP3    H173604   0.483   1.480  13.023  0.2321  0.8777  1.1256
17371TIP3    H273605   0.387   1.596  13.034  0.4995  1.3435 -1.0690
17372TIP3   OH273606   5.637   0.991   5.494  0.3007  0.1281  0.4615
17372TIP3    H173607   5.725   0.964   5.467  0.2499 -0.9387  1.2998
17372TIP3    H273608   5.583   0.913   5.481 -0.4851  0.7047  0.1861
17373TIP3   OH273609   6.057   4.328   2.847 -0.1142  0.1786  0.2684
17373TIP3    H173610   6.038   4.342   2.754  0.4498  0.6219  0.2141
17373TIP3    H273611   6.150   4.348   2.856  0.0924 -0.9081  0.7343
17374TIP3   OH273612   4.276   1.413   0.959 -0.0487 -0.4002  0.4225
17374TIP3    H173613   4.363   1.437   0.990 -0.0495  0.1711 -0.0201
17374TIP3    H273614   4.241   1.492   0.919 -0.8164 -0.5917  0.6809
17375TIP3   OH273615   4.999   4.511   2.651  0.5968  0.0611  0.6430
17375TIP3    H173616   5.057   4.436   2.657  1.6994  0.7619 -0.8203
17375TIP3    H273617   5.034   4.564   2.580 -1.5933  0.7274 -0.0266
17376TIP3   OH273618   2.013   3.956   4.732  0.0870 -0.0710 -0.1057
17376TIP3    H173619   2.094   4.008   4.734 -0.1285  0.3073 -0.9142
17376TIP3    H273620   2.038   3.872   4.770  0.6285  0.3578  0.5208
17377TIP3   OH273621   3.390   6.569  11.309  0.2623 -0.3047 -0.0073
17377TIP3    H173622   3.295   6.572  11.324  0.4205 -0.3640  1.0446
17377TIP3    H273623   3.412   6.476  11.313  0.1387 -0.4457 -1.8327
17378TIP3   OH273624   4.672   0.443  14.672 -0.0561  0.1841 -0.3671
17378TIP3    H173625   4.689   0.373  14.609  2.0350  0.5991 -0.3163
17378TIP3    H273626   4.656   0.520  14.617  0.0522  0.1838 -0.3990
17379TIP3   OH273627   5.275   3.127  17.010  0.2831  0.0360 -0.6619
17379TIP3    H173628   5.277   3.037  16.977 -0.7870  0.7686 -2.9353
17379TIP3    H273629   5.183   3.151  17.008  0.5059  1.0464  0.3691
17380TIP3   OH273630   4.849   3.465  12.267 -0.1155  0.1083  0.1501
17380TIP3    H173631   4.783   3.483  12.334 -1.5114  0.8769 -1.3480
17380TIP3    H273632   4.909   3.539  12.272 -0.8393  0.7224 -0.1730
17381TIP3   OH273633   4.137   0.318  14.177  0.0132 -0.1019 -0.3311
17381TIP3    H173634   4.104   0.293  14.090  0.4396 -3.4930  0.3254
17381TIP3    H273635   4.060   0.352  14.223 -0.1733  1.9793 -2.0125
17382TIP3   OH273636   6.416   2.626   2.694 -0.3282  0.0950 -0.4496
17382TIP3    H173637   6.369   2.546   2.720  1.0280 -0.7645 -0.5479
17382TIP3    H273638   6.505   2.612   2.725 -0.3622  2.1810  0.7191
17383TIP3   OH273639   2.924   1.549  11.953  0.5875 -0.2093 -0.1585
17383TIP3    H173640   2.914   1.626  12.007 -0.7013 -0.8227  0.5101
17383TIP3    H273641   2.919   1.582  11.863  0.4240  0.5252  0.1128
17384TIP3   OH273642   5.783   6.131  10.856  0.2988  0.0720  0.1399
17384TIP3    H173643   5.874   6.151  10.835  0.6010 -1.0555  0.2890
17384TIP3    H273644   5.776   6.036  10.843 -0.5892 -0.0095  1.0781
17385TIP3   OH273645   5.269   0.577  14.987  0.4808 -0.4287  0.0775
17385TIP3    H173646   5.226   0.530  15.058  1.8412 -2.3013 -0.2839
17385TIP3    H273647   5.363   0.562  15.000  0.7798 -1.0285 -2.1820
17386TIP3   OH273648   5.261   6.658  13.386  0.0752 -0.1636  0.2413
17386TIP3    H173649   5.329   6.663  13.453  0.0965  0.5981  0.1745
17386TIP3    H273650   5.186   6.702  13.426 -0.0983 -0.2302 -0.0118
17387TIP3   OH273651   6.566   5.025  15.424 -0.7447  0.4488  0.2009
17387TIP3    H173652   6.489   5.026  15.368 -0.8449 -0.6238  0.2980
17387TIP3    H273653   6.539   4.976  15.501 -0.1678  0.6572  0.5459
17388TIP3   OH273654   2.554   5.673  11.598 -0.3354 -0.1884  0.8162
17388TIP3    H173655   2.515   5.627  11.525 -1.7779  0.6653  1.0061
17388TIP3    H273656   2.481   5.717  11.641  0.5018 -0.4259  2.6040
17389TIP3   OH273657   3.181   6.670  16.353  0.1792  0.4238  0.2665
17389TIP3    H173658   3.245   6.652  16.421  0.4130  0.9062  0.1774
17389TIP3    H273659   3.121   6.735  16.392  0.7541  1.2783 -0.2318
17390TIP3   OH273660   6.543   4.434  11.720  0.2741 -0.2401  0.6095
17390TIP3    H173661   6.612   4.374  11.749  3.0723  2.6822  0.5265
17390TIP3    H273662   6.528   4.491  11.795 -0.8335  0.2157  0.0581
17391TIP3   OH273663   5.982   5.970  14.537  0.2298  0.0275 -0.4372
17391TIP3    H173664   5.994   6.048  14.591  0.9482 -0.6270  0.3668
17391TIP3    H273665   5.929   5.912  14.591 -0.0857 -0.1545 -0.9349
17392TIP3   OH273666   1.764   3.783   4.294  0.3884 -0.4997  0.1978
17392TIP3    H173667   1.764   3.853   4.359 -0.7166 -0.3675  0.0725
17392TIP3    H273668   1.671   3.767   4.276  0.6718 -0.6498 -1.2198
17393TIP3   OH273669   4.670   0.569   0.217  0.6299 -0.2991 -0.3549
17393TIP3    H173670   4.632   0.562   0.129 -0.4638 -0.4800  0.1210
17393TIP3    H273671   4.599   0.547   0.276  1.6257 -1.1820  0.5624
17394TIP3   OH273672   4.812   5.315  14.704  0.8704 -0.0694 -0.1535
17394TIP3    H173673   4.733   5.299  14.653  0.4113 -1.2072  0.8452
17394TIP3    H273674   4.861   5.381  14.655 -1.1490  1.3947 -0.3059
17395TIP3   OH273675   4.521   5.475  14.886  0.3329 -0.1074  0.3270
17395TIP3    H173676   4.453   5.542  14.878  0.9879  0.3682 -1.8821
17395TIP3    H273677   4.525   5.456  14.980 -0.9485  1.8219  0.8292
17396TIP3   OH273678   2.074   3.442  12.628 -0.0462 -0.1930  0.2406
17396TIP3    H173679   2.141   3.491  12.580 -0.4848  0.2186  0.0362
17396TIP3    H273680   2.016   3.408  12.560 -0.0336 -0.5722  0.4151
17397TIP3   OH273681   6.374   5.686  12.755  0.2461 -0.0099  0.0323
17397TIP3    H173682   6.392   5.654  12.843 -1.3267  0.7731  0.6823
17397TIP3    H273683   6.432   5.761  12.744 -0.4531  0.7093  0.9592
17398TIP3   OH273684   5.029   4.841  15.762 -0.3023  0.4134 -0.5985
17398TIP3    H173685   4.995   4.880  15.681  0.5852 -0.9486 -1.6744
17398TIP3    H273686   5.096   4.779  15.733  0.2790  0.1246  1.2148
17399TIP3   OH273687   0.118   6.468   3.221 -0.6465  0.1606 -0.0640
17399TIP3    H173688   0.191   6.423   3.178 -0.2707  0.4435  0.2699
17399TIP3    H273689   0.152   6.492   3.307 -2.0354 -2.3225  1.3089
17400TIP3   OH273690   3.928   6.221  12.847 -0.0914 -0.2625  0.2818
17400TIP3    H173691   3.858   6.239  12.785 -0.1479 -0.1193  0.3878
17400TIP3    H273692   3.975   6.147  12.808 -0.6583 -0.7482  0.5015
17401TIP3   OH273693   2.796   2.866   4.505  0.3781 -0.3580  0.3313
17401TIP3    H173694   2.822   2.812   4.431 -1.2887 -1.0527  0.1997
17401TIP3    H273695   2.812   2.956   4.477 -1.1620 -0.5407 -1.3053
17402TIP3   OH273696   2.694   4.487  12.852 -0.2541 -0.3264  0.4432
17402TIP3    H173697   2.691   4.444  12.767 -1.4618  1.8332 -0.6605
17402TIP3    H273698   2.609   4.529  12.862 -0.0462 -0.2884  2.6193
17403TIP3   OH273699   2.221   6.083  12.644 -0.0723 -0.7353  0.0363
17403TIP3    H173700   2.233   6.002  12.694  1.1936  0.2635  1.4361
17403TIP3    H273701   2.300   6.134  12.663 -0.6871  0.6836 -1.1012
17404TIP3   OH273702   4.113   1.616  13.423 -0.3341 -0.1743  0.2714
17404TIP3    H173703   4.206   1.609  13.443 -0.4880  0.6468  1.3363
17404TIP3    H273704   4.089   1.530  13.389  1.6553  0.5995 -3.8338
17405TIP3   OH273705   1.453   2.619  12.834  0.2856 -0.2317 -0.2655
17405TIP3    H173706   1.461   2.524  12.828  1.1858 -0.2868  1.3640
17405TIP3    H273707   1.410   2.634  12.918  2.4529  0.8380  0.7424
17406TIP3   OH273708   2.227   1.111  12.473 -0.9423 -0.3458  0.2761
17406TIP3    H173709   2.278   1.165  12.412  0.7357 -1.8837  0.2112
17406TIP3    H273710   2.203   1.034  12.422 -2.4905 -0.1261  0.6271
17407TIP3   OH273711   5.747   6.030  11.678 -0.0170  0.1324 -0.0437
17407TIP3    H173712   5.691   6.078  11.618  1.2310  0.4999 -0.9459
17407TIP3    H273713   5.836   6.050  11.650  0.5652 -1.2023  0.7448
17408TIP3   OH273714   6.179   2.751   3.016 -0.0050  0.2706 -0.3293
17408TIP3    H173715   6.086   2.730   3.028 -0.1022 -0.3880 -2.0343
17408TIP3    H273716   6.220   2.666   3.000  1.0551  0.4595  1.1304
17409TIP3   OH273717   4.929   1.225  14.937  0.0326 -0.1638 -0.7161
17409TIP3    H173718   4.940   1.146  14.991  0.1418  0.4916  0.2438
17409TIP3    H273719   4.843   1.259  14.962  0.8189  1.0979  0.3334
17410TIP3   OH273720   2.172   1.901  13.162  0.1038 -0.2161  0.0575
17410TIP3    H173721   2.178   1.996  13.169  1.8410 -0.3861  1.6515
17410TIP3    H273722   2.082   1.881  13.185 -0.2582  1.0201 -0.2006
17411TIP3   OH273723   2.092   3.514   0.923 -0.5100  0.3372  0.7850
17411TIP3    H173724   2.134   3.443   0.972  1.1768  2.2435  2.2845
17411TIP3    H273725   2.044   3.563   0.989 -0.6056  1.3114  0.0103
17412TIP3   OH273726   6.501   1.265  11.836  0.4179 -0.1649  0.5519
17412TIP3    H173727   6.473   1.184  11.794  1.3387 -1.3549  2.1250
17412TIP3    H273728   6.529   1.321  11.764 -2.7311 -0.1419 -0.8142
17413TIP3   OH273729   4.032   1.038  15.074  0.8422 -0.0367  0.6763
17413TIP3    H173730   3.979   0.972  15.029  0.8189  0.1586  0.4152
17413TIP3    H273731   4.015   1.023  15.167  0.4709 -0.0934  0.6005
17414TIP3   OH273732   5.230   0.725   3.278 -0.4243  0.3097  0.4631
17414TIP3    H173733   5.234   0.676   3.361  1.0839 -0.2051  0.1052
17414TIP3    H273734   5.250   0.815   3.303 -0.3891  0.2349  0.7135
17415TIP3   OH273735   6.520   2.000  15.696 -0.0058  0.5697  0.0294
17415TIP3    H173736   6.556   2.056  15.765 -0.0682  0.4734  0.1389
17415TIP3    H273737   6.552   1.912  15.718  0.0950  0.5624 -0.1448
17416TIP3   OH273738   4.646   2.590  16.037  0.4401  0.0427  0.9305
17416TIP3    H173739   4.624   2.603  16.129 -1.6984 -0.3502  0.5086
17416TIP3    H273740   4.652   2.495  16.026  0.4823  0.0783  0.6172
17417TIP3   OH273741   5.192   2.333   1.990 -0.0624 -0.1326  0.5583
17417TIP3    H173742   5.133   2.406   2.009 -2.1609 -1.4143 -0.7013
17417TIP3    H273743   5.222   2.350   1.900 -1.1764 -1.1651 -0.0343
17418TIP3   OH273744   1.880   4.022   0.187  0.0486  0.1132 -0.2150
17418TIP3    H173745   1.961   3.984   0.152  0.2914 -0.0389  0.4904
17418TIP3    H273746   1.860   3.969   0.264  0.3548  1.3630  0.7605
17419TIP3   OH273747   6.650   3.217   2.511  0.6390  0.3560  0.0428
17419TIP3    H173748   6.581   3.192   2.573 -0.1901 -0.7755 -1.2768
17419TIP3    H273749   6.730   3.182   2.549  0.1705 -0.1665  0.5699
17420TIP3   OH273750   3.945   4.757   3.311  0.0421 -0.3095 -0.1040
17420TIP3    H173751   3.870   4.790   3.260  0.3554  0.3347 -0.1526
17420TIP3    H273752   3.929   4.663   3.318 -1.1539 -0.0696  0.5199
17421TIP3   OH273753   3.495   6.168  13.915  0.2416 -0.6910 -0.4216
17421TIP3    H173754   3.430   6.098  13.925  1.7765 -2.2538 -0.7624
17421TIP3    H273755   3.548   6.162  13.995  0.8601 -0.4412 -0.8050
17422TIP3   OH273756   1.259   5.327   4.669  0.4493  0.8954 -0.2681
17422TIP3    H173757   1.334   5.281   4.709  1.0712  1.7971 -0.3704
17422TIP3    H273758   1.210   5.362   4.743 -0.4763 -0.5869 -0.1504
17423TIP3   OH273759   3.525   0.686  16.551  0.0831  0.5510  0.1789
17423TIP3    H173760   3.467   0.685  16.474  0.4103 -0.1214 -0.0651
17423TIP3    H273761   3.495   0.612  16.604  0.9575 -0.0496 -0.1392
17424TIP3   OH273762   0.513   5.876  12.109  0.3803 -0.4174 -0.6139
17424TIP3    H173763   0.492   5.960  12.148 -1.0872 -1.2746  0.5480
17424TIP3    H273764   0.599   5.889  12.069  1.9636  0.6066  2.7649
17425TIP3   OH273765   0.469   4.359  11.718 -0.6656  0.1934 -0.1642
17425TIP3    H173766   0.478   4.446  11.680 -0.4306 -0.0317 -0.6280
17425TIP3    H273767   0.376   4.351  11.740 -0.6512  0.6386  0.0820
17426TIP3   OH273768   0.799   1.566  13.343  0.3311  0.4368  0.0574
17426TIP3    H173769   0.745   1.636  13.381  2.1168  1.2547  1.2379
17426TIP3    H273770   0.815   1.593  13.253 -1.4291  0.0171 -0.4223
17427TIP3   OH273771   2.446   6.643   2.296 -0.5670 -0.5430 -0.2997
17427TIP3    H173772   2.402   6.564   2.327 -0.8779 -0.0991  0.4152
17427TIP3    H273773   2.411   6.713   2.351  1.8120 -0.3256  1.0912
17428TIP3   OH273774   2.661   6.243   6.170  0.4286 -0.0916 -0.1285
17428TIP3    H173775   2.693   6.288   6.249  0.4025 -1.1384  0.5023
17428TIP3    H273776   2.573   6.278   6.156  0.5402  0.3060  0.1454
17429TIP3   OH273777   0.770   0.582   0.196  0.4574 -0.1995 -0.0461
17429TIP3    H173778   0.815   0.545   0.120  0.2728  2.0402 -1.3325
17429TIP3    H273779   0.707   0.644   0.159  0.1301  0.7265  1.9296
17430TIP3   OH273780   2.694   5.723   5.204  0.1005  0.2035 -0.1800
17430TIP3    H173781   2.781   5.761   5.196 -0.3221  0.9387 -1.5542
17430TIP3    H273782   2.634   5.794   5.181 -0.8357 -0.4769  0.0723
17431TIP3   OH273783   2.529   0.876   2.161  0.5387  0.2889 -0.3498
17431TIP3    H173784   2.488   0.946   2.110  2.4166  0.6667 -1.4241
17431TIP3    H273785   2.515   0.797   2.108  3.0039  0.7753 -1.8680
17432TIP3   OH273786   2.758   1.291  11.208 -0.2412  0.6218  0.1940
17432TIP3    H173787   2.740   1.197  11.207 -0.7740  0.7086  0.6834
17432TIP3    H273788   2.734   1.318  11.296  2.1632  0.8079  0.8707
17433TIP3   OH273789   2.560   0.943   4.839  0.1433 -0.1936 -0.1035
17433TIP3    H173790   2.527   0.987   4.917 -0.4645  0.6722 -0.8268
17433TIP3    H273791   2.627   0.883   4.871 -0.8628 -0.6669  1.2012
17434TIP3   OH273792   6.415   5.733   1.503  0.5994 -0.1305  0.1038
17434TIP3    H173793   6.456   5.722   1.588  1.1364 -0.1468 -0.1514
17434TIP3    H273794   6.352   5.805   1.515 -0.8799 -1.5368  1.0519
17435TIP3   OH273795   1.709   5.415   5.060  0.8413 -0.4240  0.5553
17435TIP3    H173796   1.693   5.445   5.149 -2.0253 -2.8688  1.0237
17435TIP3    H273797   1.785   5.357   5.067  1.6974  0.7176  1.0212
17436TIP3   OH273798   3.066   0.368   2.671  0.1863 -0.3505  0.1683
17436TIP3    H173799   3.109   0.331   2.749 -0.2970 -0.8581  0.2018
17436TIP3    H273800   3.092   0.310   2.600  0.6077  0.1011 -0.0538
17437TIP3   OH273801   0.787   0.742   5.258 -0.0367 -0.1144  0.1355
17437TIP3    H173802   0.762   0.649   5.261  2.7253 -0.9375  1.5427
17437TIP3    H273803   0.762   0.771   5.170 -2.2793 -1.7424  0.1555
17438TIP3   OH273804   2.600   5.873  11.964  0.5368 -0.6427 -0.1375
17438TIP3    H173805   2.565   5.825  11.890  2.0492 -0.7585 -0.8021
17438TIP3    H273806   2.542   5.949  11.973  1.0059  0.0013 -2.1849
17439TIP3   OH273807   5.736   6.603  14.744  0.0095 -0.7322  1.0622
17439TIP3    H173808   5.644   6.625  14.729  0.5756  0.3330 -1.3542
17439TIP3    H273809   5.763   6.663  14.813 -0.6395  0.3164  0.4349
17440TIP3   OH273810   5.597   2.025  11.687  0.4231  0.0162  0.3062
17440TIP3    H173811   5.543   1.948  11.704 -0.7106  0.7019 -0.0305
17440TIP3    H273812   5.534   2.097  11.683  1.3885  0.8643 -0.0184
17441TIP3   OH273813   4.109   2.097   0.971 -0.1784  0.0768 -0.2601
17441TIP3    H173814   4.167   2.028   1.005  1.4417  1.2659 -0.4948
17441TIP3    H273815   4.043   2.049   0.921 -0.6496 -1.4797  1.7105
17442TIP3   OH273816   1.374   1.946  14.275  0.5692 -0.5039 -0.2525
17442TIP3    H173817   1.389   1.872  14.333  1.2600  0.1792  0.4623
17442TIP3    H273818   1.323   2.008  14.327  3.0788  1.0820  0.4522
17443TIP3   OH273819   6.103   3.035  13.724 -0.0473  0.2289 -0.2759
17443TIP3    H173820   6.042   3.062  13.655 -0.6144  0.1455  0.1842
17443TIP3    H273821   6.153   3.114  13.744  0.8652 -0.0081 -1.5185
17444TIP3   OH273822   2.350   1.389  13.137  0.1485  0.1514 -0.1086
17444TIP3    H173823   2.368   1.391  13.231 -2.9130  0.9727  0.5816
17444TIP3    H273824   2.360   1.480  13.109 -1.1506  0.3383 -0.0311
17445TIP3   OH273825   3.908   4.106  15.439 -0.3573 -0.7147  0.3445
17445TIP3    H173826   3.966   4.088  15.513 -0.8489 -0.0835  0.9007
17445TIP3    H273827   3.841   4.038  15.443 -1.9028  0.7628  2.1156
17446TIP3   OH273828   3.449   2.511  12.883 -0.0321  0.5969  0.1383
17446TIP3    H173829   3.518   2.578  12.875 -0.3490  0.9936  0.6600
17446TIP3    H273830   3.494   2.436  12.922 -0.0987  1.2165  1.4830
17447TIP3   OH273831   3.358   0.246  16.175  0.0226  0.0271  0.6040
17447TIP3    H173832   3.270   0.263  16.141 -0.4236 -0.5105  1.4393
17447TIP3    H273833   3.394   0.180  16.116 -1.0695 -1.5437  1.6127
17448TIP3   OH273834   3.537   1.584   3.383  0.2702 -0.1099 -0.4513
17448TIP3    H173835   3.511   1.538   3.303 -0.7602  2.3532 -1.6472
17448TIP3    H273836   3.487   1.542   3.453 -0.0382 -1.2726 -1.3421
17449TIP3   OH273837   1.052   2.174  12.055 -0.2567  0.3111  0.3153
17449TIP3    H173838   1.018   2.220  11.979 -0.9197 -1.0107 -0.2236
17449TIP3    H273839   0.990   2.102  12.069 -0.8152  1.1558  2.8077
17450TIP3   OH273840   3.607   1.756  14.332  0.2624  0.1230  0.1512
17450TIP3    H173841   3.608   1.682  14.394  1.8133  0.3162  0.4123
17450TIP3    H273842   3.562   1.722  14.255  0.4404 -0.9204  0.4883
17451TIP3   OH273843   4.647   4.273   1.197  0.0067 -0.4685  0.5573
17451TIP3    H173844   4.665   4.187   1.159 -0.4834 -0.0946 -0.5453
17451TIP3    H273845   4.677   4.335   1.131 -0.0466  0.2178  1.1629
17452TIP3   OH273846   0.790   3.109  13.206  0.0602  0.2436  0.4156
17452TIP3    H173847   0.856   3.071  13.264 -0.8961 -0.2470  1.2201
17452TIP3    H273848   0.707   3.079  13.242 -0.5736  0.0316 -1.1562
17453TIP3   OH273849   1.947   6.841  11.481  0.1167 -0.3163  0.5446
17453TIP3    H173850   1.966   6.824  11.389 -1.6998  1.3240 -0.1994
17453TIP3    H273851   1.901   6.762  11.511  0.6579 -0.8310  0.0476
17454TIP3   OH273852   2.885   1.434   5.531  0.0919 -0.1735 -0.1828
17454TIP3    H173853   2.822   1.419   5.460 -0.5102  0.3588  0.2294
17454TIP3    H273854   2.942   1.503   5.497  1.4607 -1.7289 -1.1798
17455TIP3   OH273855   4.312   0.902   6.490  0.3265 -0.0445  0.0753
17455TIP3    H173856   4.219   0.924   6.494  0.3908  0.6681 -1.5301
17455TIP3    H273857   4.314   0.808   6.474 -0.1263 -0.0280 -0.0800
17456TIP3   OH273858   4.368   6.115  13.875  0.1815 -0.6800  0.2653
17456TIP3    H173859   4.463   6.104  13.871  0.2920 -0.1302  1.1713
17456TIP3    H273860   4.348   6.125  13.968 -0.3504  2.3514 -0.0714
17457TIP3   OH273861   4.796   6.672  13.546 -0.3174 -0.0953  0.1360
17457TIP3    H173862   4.874   6.724  13.566 -1.7397  1.6037  1.5859
17457TIP3    H273863   4.811   6.588  13.590  1.7035 -0.7902 -1.6648
17458TIP3   OH273864   6.268   6.266   4.549  0.3696 -0.4040  0.6005
17458TIP3    H173865   6.230   6.326   4.614 -0.0092  0.8775 -0.7593
17458TIP3    H273866   6.225   6.182   4.567  0.6718 -0.2394  2.3336
17459TIP3   OH273867   3.880   3.133   3.181  0.0665  0.6528  0.0599
17459TIP3    H173868   3.812   3.144   3.114  1.0414 -0.0345 -1.0634
17459TIP3    H273869   3.947   3.079   3.139  1.1067  0.9392  1.3045
17460TIP3   OH273870   4.771   2.214  15.069  0.2827 -0.0996  0.1258
17460TIP3    H173871   4.701   2.218  15.004 -0.5769 -0.7257  0.9860
17460TIP3    H273872   4.802   2.305  15.075 -0.8507  0.3095  0.1429
17461TIP3   OH273873   3.075   5.222  11.917 -0.6861 -0.0396 -0.2407
17461TIP3    H173874   3.018   5.287  11.958 -1.6208 -0.2700 -1.1252
17461TIP3    H273875   3.071   5.146  11.975 -1.4000 -0.1018 -0.3625
17462TIP3   OH273876   1.300   4.064   4.804 -0.0313 -0.4240  0.0595
17462TIP3    H173877   1.336   4.132   4.861 -0.1131 -0.1987 -0.1551
17462TIP3    H273878   1.214   4.044   4.842 -0.0580 -0.3213  0.0542
17463TIP3   OH273879   2.992   0.368  16.868  0.3013  0.2717  0.4527
17463TIP3    H173880   2.989   0.347  16.774  1.6345 -1.0931  0.6695
17463TIP3    H273881   2.986   0.463  16.872  0.3405  0.3584 -1.0275
17464TIP3   OH273882   3.138   6.499  10.989 -0.0465 -0.1711 -0.0952
17464TIP3    H173883   3.141   6.439  10.915  1.1211 -0.6700  0.3282
17464TIP3    H273884   3.093   6.577  10.956 -2.1843 -1.4848 -0.4734
17465TIP3   OH273885   0.994   6.824   2.327 -0.0624  0.5110  0.1265
17465TIP3    H173886   0.906   6.845   2.296 -0.4905 -0.7406  0.4404
17465TIP3    H273887   1.021   6.749   2.274  0.1796 -0.0948  1.0885
17466TIP3   OH273888   0.097   6.413   4.757 -0.0254 -0.3136 -0.1391
17466TIP3    H173889   0.139   6.357   4.822 -0.8651 -0.1845  0.5322
17466TIP3    H273890   0.161   6.420   4.686  1.1212 -0.0589  0.8819
17467TIP3   OH273891   2.430   1.899  12.927 -0.2674 -0.1108  0.1995
17467TIP3    H173892   2.393   1.987  12.942 -0.5562 -0.2820  0.5132
17467TIP3    H273893   2.488   1.885  13.002  1.1405  0.5124 -0.7362
17468TIP3   OH273894   5.363   6.837  12.379  0.3871 -0.1501  0.7933
17468TIP3    H173895   5.367   6.922  12.424  1.6079  0.7110 -0.8468
17468TIP3    H273896   5.310   6.854  12.301 -1.7679 -1.6454  1.8139
17469TIP3   OH273897   0.137   3.314   0.346 -0.2782 -0.5911  0.4508
17469TIP3    H173898   0.223   3.356   0.351 -0.3203 -0.5625  0.8951
17469TIP3    H273899   0.130   3.263   0.426 -1.0651  0.1482  0.8762
17470TIP3   OH273900   5.787   3.515   0.322  0.0784 -0.0928 -0.1264
17470TIP3    H173901   5.747   3.473   0.246  0.4615  2.3601 -1.8144
17470TIP3    H273902   5.758   3.463   0.396 -2.7021 -0.9636 -1.6581
17471TIP3   OH273903   4.646   2.732  15.152  0.0474 -0.2679 -0.2608
17471TIP3    H173904   4.698   2.671  15.100 -0.3676  0.0752 -1.1037
17471TIP3    H273905   4.573   2.679  15.185 -0.7661 -0.1006 -1.6642
17472TIP3   OH273906   0.758   5.378  14.507  0.1294 -1.2368  0.3479
17472TIP3    H173907   0.721   5.361  14.594  0.1387  0.1974  0.6614
17472TIP3    H273908   0.810   5.300  14.487 -0.9887 -2.1956  1.0113
17473TIP3   OH273909   3.893   5.081   0.951  0.3479  0.0833 -0.3566
17473TIP3    H173910   3.970   5.076   1.007 -1.4417  0.8152  2.3646
17473TIP3    H273911   3.885   5.174   0.930 -0.9972  0.3829  1.2987
17474TIP3   OH273912   3.454   5.622   4.698 -0.7240  1.1881 -0.6440
17474TIP3    H173913   3.402   5.662   4.629 -2.4701  1.8667  0.9747
17474TIP3    H273914   3.467   5.693   4.761 -4.4574 -0.6731  2.6425
17475TIP3   OH273915   5.276   6.729  16.445  0.7123  0.3380  0.4682
17475TIP3    H173916   5.201   6.778  16.478  1.2988  1.0892  0.7156
17475TIP3    H273917   5.352   6.783  16.469  1.2637  0.0994 -0.6861
17476TIP3   OH273918   0.744   4.445  16.119  0.0803 -0.5722  0.0689
17476TIP3    H173919   0.682   4.419  16.187  1.3430 -0.1510  1.4325
17476TIP3    H273920   0.690   4.461  16.042 -1.5879  0.5471  1.4077
17477TIP3   OH273921   5.224   3.493   2.674 -0.3512 -0.1510  0.0195
17477TIP3    H173922   5.211   3.404   2.705 -1.7703  0.7038  2.1167
17477TIP3    H273923   5.211   3.548   2.751  1.9045  1.8219 -0.8807
17478TIP3   OH273924   5.300   5.297  10.923 -0.6371  0.2196  0.3916
17478TIP3    H173925   5.374   5.293  10.862 -0.3436 -0.8909  0.8027
17478TIP3    H273926   5.250   5.218  10.906 -2.1581  1.3026 -0.3748
17479TIP3   OH273927   3.351   6.388   4.959 -0.1966 -0.1505 -0.3823
17479TIP3    H173928   3.303   6.313   4.924 -0.0235 -0.9524  1.0102
17479TIP3    H273929   3.423   6.349   5.008 -0.0169  0.9429  0.2523
17480TIP3   OH273930   2.410   4.422   0.158  0.0881  0.2262  0.0287
17480TIP3    H173931   2.346   4.490   0.180  1.0234  1.0005  0.3783
17480TIP3    H273932   2.375   4.383   0.077  1.0872  3.2283 -2.0070
17481TIP3   OH273933   0.917   1.041  15.520  0.1682  0.0063 -0.2580
17481TIP3    H173934   0.993   0.987  15.539  0.8640  1.0308 -0.0487
17481TIP3    H273935   0.892   1.017  15.430  1.0005 -0.0392 -0.4834
17482TIP3   OH273936   6.137   0.706  10.573 -0.2338 -0.6010 -0.1874
17482TIP3    H173937   6.134   0.782  10.630 -1.9017 -2.2121  2.0609
17482TIP3    H273938   6.230   0.684  10.567  0.0062 -0.3098  1.9064
17483TIP3   OH273939   3.467   3.733  13.094 -0.1337 -0.6133  0.5502
17483TIP3    H173940   3.509   3.755  13.011 -1.1449 -0.2827  0.1042
17483TIP3    H273941   3.486   3.641  13.108 -2.2776 -1.4648 -1.5104
17484TIP3   OH273942   3.765   3.767   6.242 -0.6765 -0.1597 -0.0264
17484TIP3    H173943   3.697   3.704   6.266 -1.1911 -0.3618 -1.8505
17484TIP3    H273944   3.718   3.837   6.198  0.1602  0.3584 -0.1044
17485TIP3   OH273945   0.466   5.497  11.326  0.0402 -0.5326 -0.4562
17485TIP3    H173946   0.455   5.480  11.233  1.1597 -0.4290 -0.6252
17485TIP3    H273947   0.459   5.593  11.334 -1.8094 -0.6496 -0.1534
17486TIP3   OH273948   5.293   5.016  12.041  0.1089 -0.0590  0.2331
17486TIP3    H173949   5.374   5.063  12.024  0.8614 -1.5713 -0.5380
17486TIP3    H273950   5.280   4.960  11.964 -1.6945  0.1732  0.3164
17487TIP3   OH273951   5.929   2.411  16.546  0.1109 -0.0206 -0.1374
17487TIP3    H173952   5.880   2.356  16.484  0.4235  0.2693 -0.6488
17487TIP3    H273953   5.891   2.498  16.535  1.1917  0.3556 -1.0425
17488TIP3   OH273954   5.356   4.951   3.829  0.3263 -0.0179 -0.0075
17488TIP3    H173955   5.419   4.917   3.766  1.2323 -0.0437  0.9009
17488TIP3    H273956   5.287   4.885   3.833  0.6510 -0.3799 -0.3816
17489TIP3   OH273957   1.966   3.556   4.820 -0.2337 -0.2330 -0.2144
17489TIP3    H173958   1.881   3.585   4.786 -0.5581 -1.7610 -0.7853
17489TIP3    H273959   2.008   3.512   4.746  0.8810  0.0990  0.1930
17490TIP3   OH273960   0.044   6.511   2.932  0.8762  0.4816  0.0367
17490TIP3    H173961   0.028   6.601   2.901 -0.5108  0.6800  1.2271
17490TIP3    H273962   0.048   6.519   3.027  0.6854 -0.7417  0.1540
17491TIP3   OH273963   5.655   1.321   5.215  0.3227  0.0455  0.0442
17491TIP3    H173964   5.574   1.276   5.241 -0.5482  1.0782 -0.7948
17491TIP3    H273965   5.626   1.391   5.157  1.5992  1.8120  1.4064
17492TIP3   OH273966   2.731   4.881  10.311  0.4766  0.0511  0.4152
17492TIP3    H173967   2.742   4.973  10.288  0.9832 -0.0027  0.4245
17492TIP3    H273968   2.820   4.850  10.330  0.0776  0.0876  2.4825
17493TIP3   OH273969   5.576   3.370  16.366 -0.2954  0.0468 -0.0294
17493TIP3    H173970   5.513   3.306  16.334 -0.2708 -0.6551  1.2798
17493TIP3    H273971   5.591   3.428  16.291 -1.6683 -0.4077 -0.6841
17494TIP3   OH273972   3.194   1.879  12.550 -0.1572 -0.9027  0.0477
17494TIP3    H173973   3.125   1.817  12.575 -1.1757  0.2494  0.1999
17494TIP3    H273974   3.261   1.825  12.508 -1.7692 -1.9020 -1.3592
17495TIP3   OH273975   4.557   4.618   3.218 -0.1040  0.4364  0.3504
17495TIP3    H173976   4.471   4.587   3.246 -0.0772  1.0019  1.0944
17495TIP3    H273977   4.616   4.591   3.288 -0.3033  3.3090  1.7609
17496TIP3   OH273978   3.313   0.055  14.699 -0.1637  0.0012 -0.3049
17496TIP3    H173979   3.345   0.039  14.788  1.4232  0.0350 -0.8425
17496TIP3    H273980   3.290  -0.032  14.666 -0.9596  0.0099  0.1798
17497TIP3   OH273981   5.086   0.285  13.746  0.4694 -0.0833  0.2189
17497TIP3    H173982   5.083   0.251  13.835  1.0393  2.3613  1.2532
17497TIP3    H273983   5.030   0.363  13.748  2.1577  1.2526 -0.9396
17498TIP3   OH273984   2.926   5.105   4.236  0.1152  0.1741 -0.1034
17498TIP3    H173985   3.016   5.104   4.268 -0.0102  0.2843  0.2544
17498TIP3    H273986   2.874   5.068   4.307 -0.0373 -0.5236 -0.5691
17499TIP3   OH273987   2.323   2.870   5.803 -0.6471 -0.2011 -0.2279
17499TIP3    H173988   2.293   2.946   5.753 -0.5397  0.9437  1.3607
17499TIP3    H273989   2.247   2.845   5.856  0.0831  0.5017  1.2164
17500TIP3   OH273990   2.987   6.782   0.987  0.1413  0.0995 -0.0086
17500TIP3    H173991   2.923   6.841   0.946 -0.1453 -0.8091 -0.8984
17500TIP3    H273992   2.948   6.762   1.073 -1.6240 -1.6989 -1.1371
17501TIP3   OH273993   6.343   2.347   2.166 -0.0116  0.3315 -0.3694
17501TIP3    H173994   6.333   2.439   2.187  0.9122  0.1152  1.1891
17501TIP3    H273995   6.371   2.346   2.075 -2.3999  1.4275 -1.1955
17502TIP3   OH273996   4.738   2.505   5.283  0.3681  0.7428  0.4941
17502TIP3    H173997   4.705   2.587   5.321 -0.2403  1.6244 -1.8100
17502TIP3    H273998   4.831   2.503   5.307  0.1600  1.5492  1.4527
17503TIP3   OH273999   2.654   1.774   3.920 -0.8115 -0.0421  0.0846
17503TIP3    H174000   2.730   1.831   3.907 -0.0374 -1.1828 -0.4309
17503TIP3    H274001   2.648   1.723   3.840 -0.1536 -2.2509  1.3770
17504TIP3   OH274002   5.854   1.377  16.538  0.4541 -0.1446  0.6167
17504TIP3    H174003   5.825   1.370  16.629  0.2523 -3.5920  0.4165
17504TIP3    H274004   5.948   1.360  16.541  0.6703  0.8827  0.2429
17505TIP3   OH274005   5.391   2.733   5.082 -0.7658 -0.0831 -0.0447
17505TIP3    H174006   5.446   2.662   5.050  2.1460  0.9101  2.3199
17505TIP3    H274007   5.369   2.709   5.172 -1.2413  1.1650  0.1991
17506TIP3   OH274008   0.124   1.158   4.355  0.6677 -0.1206 -0.0053
17506TIP3    H174009   0.038   1.117   4.354  0.3122  0.6075 -0.2491
17506TIP3    H274010   0.137   1.184   4.446  0.6977 -0.3634  0.0609
17507TIP3   OH274011   4.437   5.662  12.527  0.1291  0.5505  0.4516
17507TIP3    H174012   4.344   5.638  12.529  0.3808 -0.4753  1.3449
17507TIP3    H274013   4.482   5.582  12.499  0.7303  1.1410 -0.3248
17508TIP3   OH274014   6.655   1.112  16.443  0.1605 -0.0295 -0.0010
17508TIP3    H174015   6.607   1.086  16.364 -2.4191  1.5498  0.9123
17508TIP3    H274016   6.641   1.040  16.505  2.7364 -1.5770 -1.0866
17509TIP3   OH274017   6.017   0.784  15.914 -0.2326 -0.3571 -0.1125
17509TIP3    H174018   6.033   0.696  15.947 -1.1854 -1.2243 -1.8391
17509TIP3    H274019   5.949   0.820  15.972 -0.0376 -0.8449  0.4300
17510TIP3   OH274020   1.503   3.856   5.803  0.1016  0.0641 -0.6049
17510TIP3    H174021   1.597   3.860   5.820  0.1239 -1.0801 -0.3477
17510TIP3    H274022   1.496   3.824   5.712 -0.0006 -2.2395  0.1429
17511TIP3   OH274023   2.617   6.401  13.204  0.2186  0.0633 -1.0251
17511TIP3    H174024   2.606   6.419  13.110  2.7094 -0.2796 -1.4456
17511TIP3    H274025   2.700   6.441  13.227 -0.2885  0.0362  1.0504
17512TIP3   OH274026   5.450   0.321   4.698  0.1424  0.0585  0.1650
17512TIP3    H174027   5.454   0.390   4.632  0.1486 -0.4825 -0.4146
17512TIP3    H274028   5.542   0.303   4.719  0.1473  0.1091  0.1858
17513TIP3   OH274029   1.330   2.347  16.691 -0.1082 -0.6011 -0.0774
17513TIP3    H174030   1.376   2.265  16.675 -0.8131 -0.9122 -0.5508
17513TIP3    H274031   1.238   2.323  16.692 -0.2853  0.0800  0.4516
17514TIP3   OH274032   5.697   0.712  10.709 -0.1565 -0.0787 -0.0741
17514TIP3    H174033   5.673   0.764  10.633 -0.9509 -1.3878 -0.7564
17514TIP3    H274034   5.763   0.765  10.754  0.1661  0.8312 -1.5353
17515TIP3   OH274035   6.235   4.748  17.099 -0.3378  0.1118 -0.2108
17515TIP3    H174036   6.247   4.654  17.085 -0.4065 -0.2485  1.8857
17515TIP3    H274037   6.140   4.761  17.094 -0.2801  0.2410 -1.2841
17516TIP3   OH274038   0.373   5.175  16.444  0.2223  0.9867  0.1616
17516TIP3    H174039   0.340   5.133  16.364  0.8911 -0.5201  0.6292
17516TIP3    H274040   0.337   5.264  16.442 -1.8478  0.1930 -0.5369
17517TIP3   OH274041   6.818   2.593   0.338 -0.8329  0.7320 -0.2470
17517TIP3    H174042   6.825   2.656   0.266 -0.5772  1.3878  0.3419
17517TIP3    H274043   6.731   2.607   0.375 -1.3659 -0.2962 -1.0375
17518TIP3   OH274044   6.419   3.835   5.192  0.2667  0.1692  0.0809
17518TIP3    H174045   6.396   3.775   5.121  1.7356 -1.0004  0.5315
17518TIP3    H274046   6.404   3.922   5.155  0.4701 -0.4116 -1.4841
17519TIP3   OH274047   2.445   3.983  13.282 -0.1220 -0.1671  0.7774
17519TIP3    H174048   2.377   4.044  13.256  0.7655  1.4869  2.2083
17519TIP3    H274049   2.419   3.900  13.241 -2.5243  0.5957  0.6094
17520TIP3   OH274050   1.332   1.252   3.668  0.2515  0.0492  0.1407
17520TIP3    H174051   1.256   1.194   3.673 -1.1750  1.7179 -1.0452
17520TIP3    H274052   1.346   1.266   3.575  0.7130  1.3940  0.3871
17521TIP3   OH274053   2.106   5.501  15.537  0.4664 -0.3148  0.0345
17521TIP3    H174054   2.044   5.527  15.606 -0.6416  0.7672 -1.3032
17521TIP3    H274055   2.104   5.574  15.475 -1.5273 -2.7572 -3.1172
17522TIP3   OH274056   0.482   3.038   0.667  0.0685  0.1194 -0.0700
17522TIP3    H174057   0.577   3.027   0.663  0.1636  0.9609 -0.3421
17522TIP3    H274058   0.467   3.128   0.639 -0.5898  0.9855  2.7340
17523TIP3   OH274059   6.292   3.911   4.208 -0.4269 -0.4214 -0.1153
17523TIP3    H174060   6.233   3.987   4.204 -1.6832 -1.2740  1.1378
17523TIP3    H274061   6.364   3.934   4.150 -1.6153  0.9952 -1.1288
17524TIP3   OH274062   0.746   2.754  11.035 -0.0024 -0.1916 -0.1500
17524TIP3    H174063   0.694   2.822  11.079  1.0640  0.3747  0.2751
17524TIP3    H274064   0.799   2.803  10.972 -0.0456 -0.7739 -0.6462
17525TIP3   OH274065   6.085   0.333  12.247  0.5182  0.3807 -0.1214
17525TIP3    H174066   6.129   0.301  12.326 -1.4256  1.4852  1.5046
17525TIP3    H274067   6.020   0.395  12.280 -2.0955 -0.9644 -2.3467
17526TIP3   OH274068   2.922   2.381   6.597  0.5478  0.3915  0.3375
17526TIP3    H174069   2.994   2.319   6.609  0.5507  0.2109 -0.5468
17526TIP3    H274070   2.961   2.454   6.549 -0.3459 -0.7847 -2.3855
17527TIP3   OH274071   3.621   6.233   1.359  0.1948 -0.1353  0.8264
17527TIP3    H174072   3.559   6.306   1.367  0.2940 -0.0067  0.4702
17527TIP3    H274073   3.586   6.165   1.416 -0.3429 -0.1047  0.5411
17528TIP3   OH274074   5.402   3.041   4.341  0.2848  0.4771 -0.3660
17528TIP3    H174075   5.355   2.967   4.380  0.8210 -0.8175 -2.0501
17528TIP3    H274076   5.342   3.115   4.349 -1.7056 -0.9004 -1.6388
17529TIP3   OH274077   1.749   0.849   3.489 -0.6106 -0.2790 -0.3342
17529TIP3    H174078   1.837   0.862   3.524 -0.9382  0.0865  0.3608
17529TIP3    H274079   1.694   0.838   3.566 -1.6097  2.1267 -0.6497
17530TIP3   OH274080   0.252   2.338   0.791  0.2081  0.1229 -0.2117
17530TIP3    H174081   0.197   2.413   0.813  0.8592  0.6829 -0.4831
17530TIP3    H274082   0.309   2.369   0.721  1.1448 -0.3209  0.3316
17531TIP3   OH274083   6.551   3.903  16.629  0.5328  0.6315 -0.6095
17531TIP3    H174084   6.606   3.830  16.600  1.6693  0.7980  0.9861
17531TIP3    H274085   6.512   3.871  16.711  0.5277  1.5612 -0.2402
17532TIP3   OH274086   3.538   6.380   0.750  0.0106  0.0331  0.2767
17532TIP3    H174087   3.620   6.354   0.792 -0.7414 -1.0202  1.1633
17532TIP3    H274088   3.471   6.325   0.791 -1.1136  0.6753 -0.6097
17533TIP3   OH274089   0.900   2.730  12.574  0.2573 -0.0569 -0.1339
17533TIP3    H174090   0.867   2.780  12.649 -1.4131  0.8742 -1.4200
17533TIP3    H274091   0.838   2.749  12.504  1.3309 -1.5298 -1.5462
17534TIP3   OH274092   5.933   5.516   1.928  0.2614  0.1572 -0.2683
17534TIP3    H174093   5.942   5.585   1.994  0.8166  0.8522 -1.0461
17534TIP3    H274094   6.020   5.478   1.922  0.3362  0.4254 -0.9394
17535TIP3   OH274095   3.007   4.952  15.587 -0.0296  0.2921  0.2431
17535TIP3    H174096   2.959   4.944  15.505 -0.1124  0.7393  0.2448
17535TIP3    H274097   2.966   4.888  15.645 -0.6798  0.7172  0.2673
17536TIP3   OH274098   0.678   4.436   4.321  0.1351 -0.3122 -0.0787
17536TIP3    H174099   0.629   4.438   4.238  0.9525 -0.7452 -0.5858
17536TIP3    H274100   0.768   4.458   4.296  0.1308  0.9436  0.9074
17537TIP3   OH274101   3.988   0.677  12.616  0.2933 -0.0701  0.4515
17537TIP3    H174102   3.996   0.772  12.628  0.9083  0.0495 -0.7449
17537TIP3    H274103   4.019   0.640  12.699  1.3525  0.7501  0.4513
17538TIP3   OH274104   3.256   6.194  14.694  0.4339 -0.0026  0.2647
17538TIP3    H174105   3.312   6.247  14.751 -0.4802  0.3820  0.8482
17538TIP3    H274106   3.315   6.134  14.649  1.2797  0.2710  0.9916
17539TIP3   OH274107   2.173   4.224   4.165  0.4825 -0.3139  0.1172
17539TIP3    H174108   2.085   4.262   4.173  0.6244 -0.1689  1.1690
17539TIP3    H274109   2.228   4.279   4.220  1.4555  0.2028 -1.3431
17540TIP3   OH274110   5.492   0.040  16.558 -0.7977  0.1821 -0.3262
17540TIP3    H174111   5.449   0.013  16.639 -1.8821  0.5444 -0.7498
17540TIP3    H274112   5.585   0.031  16.576 -1.0296 -3.6200 -0.3908
17541TIP3   OH274113   0.795   4.097   3.920 -0.0727 -0.4573 -0.8439
17541TIP3    H174114   0.874   4.070   3.873  1.4809  0.5826  1.0297
17541TIP3    H274115   0.745   4.016   3.930  1.1069 -1.2907 -1.4050
17542TIP3   OH274116   3.457   0.637   2.643 -0.7881 -0.5460  0.2559
17542TIP3    H174117   3.456   0.591   2.726 -1.6989 -0.0688  0.5191
17542TIP3    H274118   3.371   0.621   2.605 -0.6247 -0.1895 -0.2764
17543TIP3   OH274119   2.149   1.222  16.047  0.1935  0.3452  0.1601
17543TIP3    H174120   2.145   1.166  16.125 -0.6949 -0.0233 -0.1351
17543TIP3    H274121   2.058   1.250  16.033  0.2464 -0.0061 -1.0272
17544TIP3   OH274122   5.026   6.329   2.964  0.1381  0.0242  0.8124
17544TIP3    H174123   4.932   6.329   2.983 -0.1737  1.7637 -0.4684
17544TIP3    H274124   5.034   6.378   2.882  2.1583 -0.1454  0.8590
17545TIP3   OH274125   3.097   0.819  11.997  0.0165 -0.4636  0.2891
17545TIP3    H174126   3.048   0.835  12.078 -0.3023  2.9162 -0.4262
17545TIP3    H274127   3.032   0.782  11.938 -0.4026 -0.6179  0.8366
17546TIP3   OH274128   0.550   3.549  17.060  0.2710  0.1083  0.5506
17546TIP3    H174129   0.612   3.605  17.107 -0.0348  0.2953  0.7331
17546TIP3    H274130   0.564   3.570  16.968  0.5223  0.1035  0.5862
17547TIP3   OH274131   1.307   6.683  14.137  0.2773 -0.1224 -0.1426
17547TIP3    H174132   1.370   6.744  14.098  1.3828 -0.8099  0.4910
17547TIP3    H274133   1.273   6.730  14.213  0.2153  0.1633 -0.3454
17548TIP3   OH274134   1.827   6.194  11.138  0.3467 -0.6259 -0.0973
17548TIP3    H174135   1.776   6.187  11.058  1.5478 -1.1321 -0.8551
17548TIP3    H274136   1.790   6.127  11.196 -1.9890  1.2249  0.6627
17549TIP3   OH274137   2.598   0.081   3.730 -0.0862  0.1020  0.3513
17549TIP3    H174138   2.643   0.156   3.690  0.9901  0.2680  1.8096
17549TIP3    H274139   2.618   0.007   3.671  1.3145  0.3738  0.4603
17550TIP3   OH274140   2.435   1.866  12.310 -0.0364 -0.8996 -0.3374
17550TIP3    H174141   2.414   1.906  12.226 -1.2591 -1.1540 -0.1738
17550TIP3    H274142   2.473   1.781  12.288 -0.0811 -0.8446 -0.6296
17551TIP3   OH274143   1.284   1.973   2.543  0.2712 -0.3900 -0.7678
17551TIP3    H174144   1.275   2.051   2.597  1.0964 -1.4736  1.0058
17551TIP3    H274145   1.359   1.926   2.579 -0.5115 -2.2786 -1.4210
17552TIP3   OH274146   5.688   0.637  12.942 -0.1405  0.3657  0.4896
17552TIP3    H174147   5.603   0.661  12.906  0.6712  0.2021 -1.7343
17552TIP3    H274148   5.680   0.545  12.966 -0.4495  0.1918 -0.2505
17553TIP3   OH274149   5.267   5.108   3.297  0.2393  0.8471 -0.2309
17553TIP3    H174150   5.289   5.015   3.302  1.5199  1.0868 -0.8414
17553TIP3    H274151   5.351   5.151   3.281 -0.4998  1.9801 -1.2549
17554TIP3   OH274152   0.689   4.907   5.290 -0.5320  0.5757  0.4114
17554TIP3    H174153   0.779   4.911   5.322 -0.8408 -1.3745  1.6742
17554TIP3    H274154   0.639   4.869   5.362 -1.8035 -1.2636 -1.3418
17555TIP3   OH274155   2.890   3.756   4.950  0.2374  0.0195 -0.4267
17555TIP3    H174156   2.957   3.712   5.002 -0.8284 -1.2642 -0.0937
17555TIP3    H274157   2.861   3.829   5.006  1.0173  0.3067 -0.3861
17556TIP3   OH274158   3.612   5.767  16.076 -0.3146 -0.0810  0.2504
17556TIP3    H174159   3.613   5.854  16.116 -0.7060 -0.3711  0.8979
17556TIP3    H274160   3.521   5.738  16.085  0.3287 -1.6118  2.3377
17557TIP3   OH274161   5.938   6.761  16.811  0.2197  0.4547 -0.1782
17557TIP3    H174162   5.889   6.817  16.871  2.6923  0.4205  2.0409
17557TIP3    H274163   6.005   6.720  16.865 -0.5000 -3.6299 -1.9618
17558TIP3   OH274164   4.358   5.356  13.801  0.3137 -0.0916  0.0940
17558TIP3    H174165   4.311   5.437  13.784  0.7240  0.2131  0.3792
17558TIP3    H274166   4.393   5.367  13.890  0.4094 -0.5597  0.1183
17559TIP3   OH274167   2.238   0.914  12.700 -0.7134  0.2895  0.6109
17559TIP3    H174168   2.237   0.984  12.634  2.0030  0.0576  0.2107
17559TIP3    H274169   2.267   0.837  12.651 -0.0622 -0.2193  1.7711
17560TIP3   OH274170   4.270   2.658   6.604 -0.4191 -0.1005 -0.3829
17560TIP3    H174171   4.215   2.596   6.651  0.9835 -1.3962 -0.3936
17560TIP3    H274172   4.263   2.739   6.654 -0.6625 -0.8330  0.7966
17561TIP3   OH274173   0.540   1.219   3.772 -0.5853 -0.0161  0.0433
17561TIP3    H174174   0.573   1.174   3.694  0.4830 -0.0363  0.4873
17561TIP3    H274175   0.611   1.279   3.795 -1.3564  0.7742  0.3615
17562TIP3   OH274176   0.594   3.017  16.947  0.6184 -0.0934 -0.2384
17562TIP3    H174177   0.684   3.034  16.975  0.0352 -0.2931  1.9559
17562TIP3    H274178   0.557   3.103  16.929  1.1120  0.0167 -0.7420
17563TIP3   OH274179   1.748   5.321   1.672  0.2595 -0.3550 -0.0989
17563TIP3    H174180   1.760   5.375   1.594  0.6854  0.0879  0.2646
17563TIP3    H274181   1.676   5.361   1.719 -0.9846 -1.4814 -0.9775
17564TIP3   OH274182   4.949   5.370  13.930  0.6002  0.6928 -0.0868
17564TIP3    H174183   4.996   5.302  13.979  2.0612  2.3400  0.9326
17564TIP3    H274184   5.017   5.410  13.875  0.4726  3.1626  1.4386
17565TIP3   OH274185   5.978   5.409  11.981  0.4278  0.1063 -0.2126
17565TIP3    H174186   5.934   5.445  12.058  0.9422 -0.2351  0.2490
17565TIP3    H274187   6.017   5.327  12.012  1.5585  0.4930 -0.5391
17566TIP3   OH274188   4.386   5.463   3.169 -0.0944  0.2211 -0.2139
17566TIP3    H174189   4.337   5.519   3.110  1.4192  0.1217 -1.6480
17566TIP3    H274190   4.323   5.398   3.199 -0.9289  0.2970 -1.7144
17567TIP3   OH274191   5.831   3.765   0.628 -0.0063  0.4821 -0.0016
17567TIP3    H174192   5.825   3.799   0.717 -0.1719  2.2576 -0.6563
17567TIP3    H274193   5.742   3.734   0.608  0.2107 -0.6616  0.6953
17568TIP3   OH274194   4.247   5.461  16.176  0.5923 -0.5563  0.0054
17568TIP3    H174195   4.173   5.490  16.229  0.8955 -1.4616  0.9488
17568TIP3    H274196   4.211   5.395  16.118  0.7484 -1.3918  0.8388
17569TIP3   OH274197   5.547   0.943  12.478  0.0036 -0.3109 -0.4453
17569TIP3    H174198   5.544   0.898  12.394 -0.5451 -0.1899 -0.4923
17569TIP3    H274199   5.580   1.031  12.457 -1.0453  0.0394 -0.6835
17570TIP3   OH274200   1.772   1.841   0.838  0.3215  0.2663 -0.2157
17570TIP3    H174201   1.806   1.899   0.906  1.8620 -1.3205  0.4454
17570TIP3    H274202   1.801   1.880   0.756  0.9994  0.6607  0.2013
17571TIP3   OH274203   3.457   6.173  10.669  0.1181 -0.0522  0.6453
17571TIP3    H174204   3.509   6.216  10.601  0.8373 -1.2963  0.3935
17571TIP3    H274205   3.464   6.232  10.745  2.1474 -0.3089  0.7164
17572TIP3   OH274206   0.505   4.846   5.504  0.7669 -0.3946  0.4613
17572TIP3    H174207   0.429   4.836   5.562  1.9927  1.4261  2.5384
17572TIP3    H274208   0.544   4.759   5.503 -1.2917 -1.3803 -0.6730
17573TIP3   OH274209   3.293   1.266   4.304 -0.7985  0.2553  0.7911
17573TIP3    H174210   3.316   1.353   4.272 -1.6529  0.0793 -0.3933
17573TIP3    H274211   3.241   1.281   4.383 -1.5988  0.8693  0.1644
17574TIP3   OH274212   4.380   1.474  12.471 -0.3362 -0.3653  0.4071
17574TIP3    H174213   4.323   1.550  12.479  0.2048 -0.0812  1.7245
17574TIP3    H274214   4.336   1.405  12.522 -0.0658 -0.4759  0.4942
17575TIP3   OH274215   5.999   1.966   1.799  0.1285  0.0956  0.1943
17575TIP3    H174216   5.907   1.950   1.780  0.3599  0.5361 -1.4096
17575TIP3    H274217   6.007   1.953   1.893 -1.7230  0.7880  0.4789
17576TIP3   OH274218   6.495   0.519   5.462 -0.2303  0.9115  0.0957
17576TIP3    H174219   6.551   0.443   5.448 -0.7977  0.6355 -0.7246
17576TIP3    H274220   6.489   0.527   5.558 -1.8043 -1.3347  0.2566
17577TIP3   OH274221   2.209   0.820   2.650 -0.0039 -0.1840 -0.5653
17577TIP3    H174222   2.136   0.760   2.635 -0.0021 -0.4865  0.5827
17577TIP3    H274223   2.222   0.863   2.565  0.6039 -2.4367 -1.6760
17578TIP3   OH274224   2.974   4.162  12.448  0.0205  0.5490  0.0309
17578TIP3    H174225   3.020   4.080  12.468 -1.1358 -0.0964  0.1362
17578TIP3    H274226   2.980   4.170  12.353 -1.8448 -0.9269 -0.2749
17579TIP3   OH274227   1.868   5.859  15.522  0.1352  0.4902  0.3857
17579TIP3    H174228   1.836   5.836  15.434  1.5351 -0.5507  0.1061
17579TIP3    H274229   1.948   5.908  15.505  0.8766 -0.4521  1.0674
17580TIP3   OH274230   2.347   4.927   4.045  0.1574  0.0383  0.1988
17580TIP3    H174231   2.263   4.918   4.090 -1.8208 -1.8898 -3.4104
17580TIP3    H274232   2.332   4.996   3.980  1.9773  0.8616  0.5929
17581TIP3   OH274233   1.385   5.718   1.828  0.2575 -0.1452 -0.3893
17581TIP3    H174234   1.379   5.793   1.769  1.6971 -1.3674 -2.2410
17581TIP3    H274235   1.320   5.657   1.794  0.9006 -0.7470 -0.5729
17582TIP3   OH274236   1.448   0.124  16.567 -0.2612 -0.3295 -0.4370
17582TIP3    H174237   1.390   0.111  16.493  1.5817  0.9523 -2.2349
17582TIP3    H274238   1.503   0.045  16.569 -1.6584 -1.3312  0.9730
17583TIP3   OH274239   2.646   1.597   3.699 -0.3013 -0.3525  0.2990
17583TIP3    H174240   2.607   1.524   3.650 -1.3531  0.2305  0.2554
17583TIP3    H274241   2.707   1.638   3.638  0.1027 -1.0218  0.2389
17584TIP3   OH274242   5.969   3.400   0.805 -0.4138 -0.3856 -0.5702
17584TIP3    H174243   5.956   3.305   0.811 -0.4373 -0.7389 -4.0786
17584TIP3    H274244   5.891   3.438   0.845 -1.9912 -1.9958 -1.9521
17585TIP3   OH274245   4.605   4.131   5.718  0.2075 -0.1380  0.1926
17585TIP3    H174246   4.548   4.135   5.642 -1.7615 -0.0372  1.6118
17585TIP3    H274247   4.613   4.037   5.737  1.5767 -0.2400 -0.7086
17586TIP3   OH274248   0.405   4.804  12.892  0.2484 -0.2416  0.1963
17586TIP3    H174249   0.467   4.822  12.962  1.0663 -1.5032 -0.1639
17586TIP3    H274250   0.331   4.862  12.909  2.5107  3.1942 -0.7338
17587TIP3   OH274251   3.361   2.710  12.284 -0.1011  0.1953  0.1256
17587TIP3    H174252   3.286   2.715  12.343 -0.9694 -1.2445 -0.8069
17587TIP3    H274253   3.408   2.631  12.311 -0.2436 -0.2152 -0.7829
17588TIP3   OH274254   6.063   0.085  14.102 -0.0629 -0.1150  0.4477
17588TIP3    H174255   6.075  -0.010  14.097  0.6766 -0.1354  2.1196
17588TIP3    H274256   5.968   0.096  14.106 -0.2918 -0.6068 -1.9605
17589TIP3   OH274257   4.651   5.730   4.945 -0.4466 -0.7954  0.1398
17589TIP3    H174258   4.596   5.719   4.868  0.0927  0.0081 -0.3773
17589TIP3    H274259   4.611   5.803   4.992  0.8928  0.6836 -0.9235
17590TIP3   OH274260   0.950   1.704   0.535  0.8965  0.3194  0.0673
17590TIP3    H174261   1.039   1.704   0.569  0.7448  1.6747  0.5527
17590TIP3    H274262   0.895   1.722   0.612  0.2889  0.3540 -0.3624
17591TIP3   OH274263   6.817   0.118   3.304  0.1320  0.2548  0.1668
17591TIP3    H174264   6.826   0.063   3.382  0.5542  0.0038 -0.0562
17591TIP3    H274265   6.907   0.138   3.277 -0.0048  1.8087  0.7632
17592TIP3   OH274266   6.187   4.308  16.533  0.4750 -0.0868 -0.4530
17592TIP3    H174267   6.255   4.243  16.515 -0.3325 -1.0272 -0.2610
17592TIP3    H274268   6.197   4.374  16.466  1.3879 -0.3705 -0.5999
17593TIP3   OH274269   5.608   2.804  16.029 -0.3191  0.0367 -0.6463
17593TIP3    H174270   5.564   2.746  15.967 -1.5994 -0.1374  0.3792
17593TIP3    H274271   5.662   2.746  16.082 -0.9146 -0.1250 -0.1998
17594TIP3   OH274272   2.088   6.101  11.037 -0.0328  0.1173 -0.6764
17594TIP3    H174273   2.000   6.104  11.073  0.2471  0.0252  0.0467
17594TIP3    H274274   2.076   6.083  10.944 -0.7418 -0.8403 -0.4217
17595TIP3   OH274275   5.935   5.211  11.271  0.0017 -0.3265 -0.1238
17595TIP3    H174276   5.884   5.272  11.218 -0.1855 -0.3572  0.0233
17595TIP3    H274277   5.884   5.198  11.350 -0.7793 -1.9619 -0.8391
17596TIP3   OH274278   3.254   4.989   0.597  0.1339  0.7426  0.0312
17596TIP3    H174279   3.210   5.004   0.514 -0.3508 -1.4605 -0.1862
17596TIP3    H274280   3.215   5.051   0.658  0.0752  1.9818 -1.2357
17597TIP3   OH274281   4.948   4.957  15.522  0.0497 -0.2058 -0.2992
17597TIP3    H174282   4.975   4.946  15.431 -0.7732  0.6660 -0.6631
17597TIP3    H274283   4.928   5.050  15.531 -0.1601 -0.3278  0.6970
17598TIP3   OH274284   5.159   0.062   0.755 -0.1558  0.6233  0.2718
17598TIP3    H174285   5.158   0.022   0.842  1.3317 -1.6226 -0.6470
17598TIP3    H274286   5.074   0.040   0.717  1.1977 -3.5740 -0.8703
17599TIP3   OH274287   6.084   2.276   4.039  0.2156  0.0345  0.0653
17599TIP3    H174288   6.089   2.222   3.961  0.2827 -1.6129  1.1733
17599TIP3    H274289   6.114   2.220   4.110  1.0903  1.7775  1.1616
17600TIP3   OH274290   1.101   0.829  12.664  0.1378  0.1747 -0.1380
17600TIP3    H174291   1.063   0.782  12.738  0.9343  0.8553  0.7112
17600TIP3    H274292   1.150   0.762  12.616  0.0139 -0.1696  0.2135
17601TIP3   OH274293   0.277   0.272  12.628  0.1118 -0.0342 -0.4482
17601TIP3    H174294   0.212   0.202  12.637  1.8225 -1.6721 -0.2445
17601TIP3    H274295   0.292   0.303  12.717 -0.7315  0.7006 -0.5511
17602TIP3   OH274296   1.521   5.965  16.316 -0.2024 -0.6462  0.0944
17602TIP3    H174297   1.592   5.984  16.255 -0.2298 -2.7921 -0.6815
17602TIP3    H274298   1.561   5.910  16.383 -0.7214 -0.3404  0.6583
17603TIP3   OH274299   5.135   0.572  12.223 -0.7046 -0.4552  0.4530
17603TIP3    H174300   5.175   0.527  12.149  0.7533 -1.8636  2.0178
17603TIP3    H274301   5.174   0.660  12.223 -0.2185 -0.6711 -0.0356
17604TIP3   OH274302   6.339   2.474  11.575 -0.3863 -0.0270 -0.0944
17604TIP3    H174303   6.407   2.531  11.540  1.1139 -0.1379  2.4102
17604TIP3    H274304   6.276   2.464  11.503  1.3808  1.4293 -1.9410
17605TIP3   OH274305   6.092   5.173   1.712 -0.0489  0.0103  0.1397
17605TIP3    H174306   6.015   5.230   1.709  0.0793  0.1896  0.2372
17605TIP3    H274307   6.072   5.109   1.781  0.4646  0.8913  1.1235
17606TIP3   OH274308   5.341   3.463   1.926  0.0498 -0.2572 -0.4727
17606TIP3    H174309   5.418   3.519   1.927  0.3769 -0.6990  1.0041
17606TIP3    H274310   5.274   3.513   1.971 -0.1312 -0.4124 -0.5668
17607TIP3   OH274311   3.266   0.287  14.216 -0.0431 -0.2473  0.3735
17607TIP3    H174312   3.190   0.246  14.175 -1.6933  0.5576  2.4586
17607TIP3    H274313   3.301   0.219  14.274  0.8489 -0.5955 -0.5345
17608TIP3   OH274314   5.343   1.828  16.389 -0.6826  0.5154 -0.8110
17608TIP3    H174315   5.412   1.791  16.444 -1.3107 -2.0893 -1.5900
17608TIP3    H274316   5.380   1.908  16.353  1.7627 -0.5272 -0.7922
17609TIP3   OH274317   4.670   0.736  16.584 -0.2922 -0.5756 -0.0299
17609TIP3    H174318   4.624   0.724  16.501  2.8426 -0.8506 -1.8753
17609TIP3    H274319   4.676   0.831  16.594  0.3817 -0.5245 -0.8021
17610TIP3   OH274320   5.757   4.967   2.902 -0.1062 -0.6219 -0.2715
17610TIP3    H174321   5.851   4.949   2.894 -0.1247 -0.3554 -1.1714
17610TIP3    H274322   5.715   4.908   2.840 -0.3495  0.7078 -1.4418
17611TIP3   OH274323   6.437   0.693  16.108 -0.0654  0.2118 -0.3596
17611TIP3    H174324   6.386   0.656  16.036 -0.8771 -0.1512  0.3828
17611TIP3    H274325   6.372   0.715  16.174  0.6386  0.8451  0.1398
17612TIP3   OH274326   1.030   3.726  11.860  0.3996  0.6128 -0.0412
17612TIP3    H174327   0.971   3.721  11.934  0.0559 -2.0213 -0.3710
17612TIP3    H274328   1.106   3.672  11.886  0.1199 -0.6628 -1.6413
17613TIP3   OH274329   1.534   2.670  15.915 -0.6458 -0.5121 -0.1847
17613TIP3    H174330   1.560   2.586  15.877 -0.4155  0.4966 -2.3825
17613TIP3    H274331   1.568   2.736  15.855  1.6964  1.3662  2.9160
17614TIP3   OH274332   6.768   4.440  10.671 -0.0657 -0.1609  0.2017
17614TIP3    H174333   6.833   4.370  10.668 -0.6873 -0.7625  0.3441
17614TIP3    H274334   6.818   4.520  10.687  0.5947 -0.6747  0.7579
17615TIP3   OH274335   3.447   3.861   5.138 -0.0958  0.7213  0.3756
17615TIP3    H174336   3.502   3.825   5.069 -0.1472  0.3722  0.5129
17615TIP3    H274337   3.358   3.851   5.105 -0.1637 -0.0687  0.7698
17616TIP3   OH274338   1.272   1.759   0.461 -0.4358 -0.0120 -0.2277
17616TIP3    H174339   1.258   1.853   0.475 -1.8393 -0.3476  0.7169
17616TIP3    H274340   1.323   1.756   0.380  1.2254  1.6378  0.6665
17617TIP3   OH274341   4.219   2.179   5.108  0.0007  0.3211  0.0057
17617TIP3    H174342   4.313   2.169   5.119  0.2809  1.0427 -1.4969
17617TIP3    H274343   4.209   2.255   5.051 -1.4703 -0.1003 -0.3488
17618TIP3   OH274344   0.289   1.636   4.455  0.6105  1.2382 -0.2713
17618TIP3    H174345   0.227   1.627   4.527  1.1630 -1.4851 -0.0624
17618TIP3    H274346   0.236   1.623   4.376  0.8581 -1.2539 -0.0874
17619TIP3   OH274347   2.390   5.123  13.773  1.1044 -0.3238  0.7074
17619TIP3    H174348   2.309   5.088  13.736  1.0358  0.0404  0.5068
17619TIP3    H274349   2.412   5.062  13.844  0.0908  0.1263  1.4406
17620TIP3   OH274350   3.888   5.263  10.432 -0.3002  0.1284 -0.0724
17620TIP3    H174351   3.804   5.249  10.388 -0.3844 -2.0701  0.6529
17620TIP3    H274352   3.869   5.246  10.525  0.7152  0.7776  0.2658
17621TIP3   OH274353   5.728   0.352  13.360 -0.0920 -0.0502  0.2720
17621TIP3    H174354   5.808   0.400  13.339  0.9179 -1.3049  1.1012
17621TIP3    H274355   5.677   0.413  13.414  0.0281  0.9596 -0.7100
17622TIP3   OH274356   6.447   1.444  12.347  0.4838 -0.4623  0.3520
17622TIP3    H174357   6.394   1.364  12.342 -1.1196  0.4534  1.9353
17622TIP3    H274358   6.536   1.414  12.328 -0.1430 -2.5457  0.4646
17623TIP3   OH274359   6.532   1.821  17.030 -0.4065 -0.3163  0.1164
17623TIP3    H174360   6.490   1.740  17.059 -0.0735 -1.1289 -1.5360
17623TIP3    H274361   6.531   1.877  17.107 -3.2013 -0.8077  0.5499
17624TIP3   OH274362   5.082   2.422   1.140  0.2228  0.3083 -0.4864
17624TIP3    H174363   5.063   2.330   1.159 -1.6412  0.2873 -2.1503
17624TIP3    H274364   5.150   2.419   1.073 -1.0907  0.0263 -1.8651
17625TIP3   OH274365   4.050   1.304  12.904 -0.2656  0.1702 -0.1991
17625TIP3    H174366   4.029   1.353  12.983  0.3491 -1.1160  0.8126
17625TIP3    H274367   4.135   1.339  12.875 -0.4065  0.5167 -0.1954
17626TIP3   OH274368   5.021   5.137  12.496 -0.0891 -0.8366  0.0340
17626TIP3    H174369   4.972   5.071  12.447 -1.8458  0.5131 -0.1257
17626TIP3    H274370   5.019   5.215  12.440 -1.0349  0.3579  1.6384
17627TIP3   OH274371   5.010   6.269   0.903 -0.5563  0.0047  0.4380
17627TIP3    H174372   5.047   6.255   0.990 -0.5602 -0.5396  0.3500
17627TIP3    H274373   4.978   6.360   0.905 -1.7285 -0.4023  1.4350
17628TIP3   OH274374   1.017   4.683  10.951  0.1470 -0.0938 -0.1493
17628TIP3    H174375   1.066   4.701  10.871  0.4139 -1.5989 -0.3598
17628TIP3    H274376   0.947   4.749  10.952  1.5604  1.4809 -0.3411
17629TIP3   OH274377   2.928   3.241   5.014  0.3723 -0.1745  0.2801
17629TIP3    H174378   2.866   3.301   5.057  2.6565  2.6632 -0.0493
17629TIP3    H274379   3.013   3.262   5.053  1.5576 -2.1328 -1.0359
17630TIP3   OH274380   0.064   4.098  14.381 -0.5728  0.4347  0.4355
17630TIP3    H174381   0.056   4.003  14.393  0.8630  0.3483  0.9673
17630TIP3    H274382   0.099   4.130  14.465 -0.1977  1.2948 -0.0325
17631TIP3   OH274383   2.654   2.096  13.493  0.2438 -0.1717 -0.3356
17631TIP3    H174384   2.663   2.191  13.501 -2.3916  0.3176 -1.8590
17631TIP3    H274385   2.670   2.079  13.400  0.7558 -1.2514 -0.0610
17632TIP3   OH274386   2.937   2.934  12.735 -0.2499 -0.3188  0.4459
17632TIP3    H174387   2.898   2.883  12.664 -1.7052  1.8872 -0.4459
17632TIP3    H274388   2.900   3.021  12.725  1.7187  0.8095  2.2237
17633TIP3   OH274389   3.604   3.570   0.275 -0.0108 -0.2015  0.0064
17633TIP3    H174390   3.664   3.625   0.225  0.3579  1.3064  1.9460
17633TIP3    H274391   3.538   3.631   0.308  0.1945 -0.9201  1.9156
17634TIP3   OH274392   0.995   2.951  16.797  0.0421  0.0949  0.4988
17634TIP3    H174393   0.952   3.017  16.742 -2.6334 -2.2589 -0.4474
17634TIP3    H274394   0.943   2.949  16.877  2.6328  1.9475  2.4227
17635TIP3   OH274395   6.175   4.598  12.125 -0.0837  0.5441 -0.6851
17635TIP3    H174396   6.212   4.686  12.129  0.3486  0.3865 -1.1187
17635TIP3    H274397   6.092   4.609  12.077  0.0648  0.6856 -0.9115
17636TIP3   OH274398   6.538   4.684   3.614  0.6504 -0.2694  0.2908
17636TIP3    H174399   6.461   4.650   3.568  1.0282  1.4450 -1.7752
17636TIP3    H274400   6.515   4.774   3.635  1.1942 -0.4850  1.9085
17637TIP3   OH274401   3.927   1.377  10.627 -0.2373 -0.2086 -0.3352
17637TIP3    H174402   3.832   1.370  10.628 -0.1860 -0.9345 -0.1743
17637TIP3    H274403   3.946   1.461  10.668 -0.8328  0.2727 -1.0168
17638TIP3   OH274404   5.318   1.277  14.275  0.0529  0.0293  0.3941
17638TIP3    H174405   5.319   1.248  14.366  0.1391 -0.2090  0.3158
17638TIP3    H274406   5.407   1.261  14.244 -0.5290 -1.9435 -0.3884
17639TIP3   OH274407   0.497   2.216  11.879  0.3207  0.2603  0.8531
17639TIP3    H174408   0.417   2.250  11.837  0.6149  1.3893  1.1627
17639TIP3    H274409   0.467   2.181  11.963  0.3165  2.0128  1.6241
17640TIP3   OH274410   4.404   1.979   4.170 -0.9378 -0.5569 -0.2346
17640TIP3    H174411   4.410   1.922   4.094 -0.4502 -0.7989 -0.0189
17640TIP3    H274412   4.490   2.022   4.175 -1.7744  1.3630 -1.2926
17641TIP3   OH274413   0.786   2.642  15.096 -0.1051 -0.3926 -0.2314
17641TIP3    H174414   0.800   2.734  15.073 -0.0568  0.0580  1.4152
17641TIP3    H274415   0.785   2.642  15.192  0.1472 -2.1561 -0.1998
17642TIP3   OH274416   6.735   4.805  16.812  0.2753  0.8847 -0.4584
17642TIP3    H174417   6.769   4.864  16.879  1.7027  1.4934 -1.6602
17642TIP3    H274418   6.650   4.842  16.788  0.7584  1.9667 -0.5559
17643TIP3   OH274419   4.477   4.651  16.814 -0.2376  0.5581 -0.0554
17643TIP3    H174420   4.493   4.641  16.720 -0.1798 -2.7485  0.1766
17643TIP3    H274421   4.383   4.665  16.821 -0.4632 -0.5830 -0.5773
17644TIP3   OH274422   6.195   1.217  15.628 -0.4788  0.2762  0.0109
17644TIP3    H174423   6.276   1.188  15.587 -1.1618 -1.0379 -0.4424
17644TIP3    H274424   6.184   1.160  15.704 -1.6147 -0.4257 -0.6486
17645TIP3   OH274425   4.350   3.271  15.013  0.2418  0.2753  1.1911
17645TIP3    H174426   4.268   3.223  15.006 -0.8765  2.3154 -1.2891
17645TIP3    H274427   4.396   3.229  15.086 -1.9504 -2.4229  1.1844
17646TIP3   OH274428   0.236   6.394  12.103 -0.0933 -0.2791 -0.2923
17646TIP3    H174429   0.254   6.475  12.056 -0.4837 -0.7305 -1.2386
17646TIP3    H274430   0.235   6.420  12.195 -0.3351  0.8162 -0.5903
17647TIP3   OH274431   3.099   1.908   2.577 -0.1398  0.0353  0.1434
17647TIP3    H174432   3.071   1.954   2.498  1.6416  0.5289 -0.2469
17647TIP3    H274433   3.180   1.952   2.603 -0.1895 -0.7226  1.7198
17648TIP3   OH274434   2.178   3.984   6.291  0.2378 -0.0218  0.0903
17648TIP3    H174435   2.180   4.051   6.359  1.4377  0.5027 -0.4284
17648TIP3    H274436   2.179   4.033   6.209 -0.1641 -0.6642 -0.3073
17649TIP3   OH274437   4.557   4.855  12.320  0.2343 -0.3806  0.1861
17649TIP3    H174438   4.465   4.849  12.344 -0.4219 -0.9687 -2.2098
17649TIP3    H274439   4.564   4.808  12.237  2.7381 -0.4977  0.3645
17650TIP3   OH274440   0.532   1.753   2.451  0.2641  0.0468  0.1194
17650TIP3    H174441   0.528   1.673   2.503  2.7949 -1.7006 -2.1189
17650TIP3    H274442   0.624   1.780   2.456  0.5952 -0.1212 -3.1454
17651TIP3   OH274443   5.596   0.114  10.763  0.3605  0.3957  0.1632
17651TIP3    H174444   5.613   0.048  10.830  0.6217 -0.9884 -1.2194
17651TIP3    H274445   5.520   0.082  10.716  1.3678  0.2975 -1.4695
17652TIP3   OH274446   4.360   2.336  12.758 -0.7434  0.4654 -0.5626
17652TIP3    H174447   4.445   2.378  12.745  0.1744 -1.5445 -1.5878
17652TIP3    H274448   4.301   2.385  12.701  0.4210  0.0197 -2.2340
17653TIP3   OH274449   6.228   4.895   2.118 -0.3559 -0.3691  0.5405
17653TIP3    H174450   6.216   4.819   2.175 -2.0711  0.3160  1.1770
17653TIP3    H274451   6.141   4.936   2.115  0.0234  0.3781 -1.4945
17654TIP3   OH274452   4.490   5.473  12.008  0.0737  0.5119 -0.3037
17654TIP3    H174453   4.509   5.549  12.062 -2.5643  1.0486  0.0422
17654TIP3    H274454   4.480   5.401  12.071 -2.4523  1.0242  0.0042
17655TIP3   OH274455   5.783   0.793  16.278  0.8908  0.2669 -0.0436
17655TIP3    H174456   5.768   0.824  16.189 -1.6944  0.1380  0.2754
17655TIP3    H274457   5.739   0.857  16.334 -2.1264 -2.2570  0.7807
17656TIP3   OH274458   6.053   4.718  15.609 -0.1897  0.2324 -0.2573
17656TIP3    H174459   6.112   4.699  15.681  0.1521 -2.5198 -1.1531
17656TIP3    H274460   5.965   4.702  15.644 -0.1481  0.5516 -0.0043
17657TIP3   OH274461   2.639   5.438  10.852  0.0918  0.6825 -0.3781
17657TIP3    H174462   2.596   5.501  10.794  1.0589  0.3889 -1.4697
17657TIP3    H274463   2.585   5.359  10.848 -0.3919  0.9922 -0.0674
17658TIP3   OH274464   1.707   0.607  16.097  0.1299  0.2286  0.9279
17658TIP3    H174465   1.659   0.657  16.163 -1.4940  0.4020 -0.3228
17658TIP3    H274466   1.656   0.528  16.084  1.5884 -0.8329  1.3983
17659TIP3   OH274467   3.133   5.446  16.918 -0.2985  0.4225  0.7428
17659TIP3    H174468   3.101   5.510  16.855 -0.5944 -0.1770  0.2759
17659TIP3    H274469   3.182   5.383  16.866 -1.2359 -0.5252  0.9801
17660TIP3   OH274470   1.600   1.609   0.114 -0.2047  0.0601 -0.2737
17660TIP3    H174471   1.571   1.518   0.124  0.5379 -0.0401  1.2743
17660TIP3    H274472   1.680   1.603   0.062 -0.5553 -0.0877 -0.8052
17661TIP3   OH274473   6.750   6.114   3.530 -0.0691 -0.4409 -0.2028
17661TIP3    H174474   6.695   6.192   3.526  0.0622 -0.3773 -0.9340
17661TIP3    H274475   6.804   6.119   3.450  1.7046  0.0216  0.9642
17662TIP3   OH274476   0.448   2.543   3.404 -0.0759 -0.1931  0.4698
17662TIP3    H174477   0.371   2.564   3.352 -0.9627 -2.3774  0.8006
17662TIP3    H274478   0.418   2.548   3.495 -0.1126 -1.8727  0.5827
17663TIP3   OH274479   0.912   2.827   5.696 -0.2097 -0.0437  0.1779
17663TIP3    H174480   0.930   2.921   5.709  0.5518 -0.0876 -0.5071
17663TIP3    H274481   0.873   2.823   5.608 -0.2312 -0.3690  0.2046
17664TIP3   OH274482   2.324   5.797  12.436 -0.1188  0.0383 -0.1442
17664TIP3    H174483   2.243   5.748  12.420  0.1961 -0.4666 -0.2252
17664TIP3    H274484   2.316   5.829  12.526  0.6290 -2.0806  0.7555
17665TIP3   OH274485   0.346   6.271  12.397  0.1326 -0.3716  0.7914
17665TIP3    H174486   0.398   6.277  12.478 -0.6469  1.1446  1.2248
17665TIP3    H274487   0.255   6.278  12.427 -0.1849 -0.1622 -0.1919
17666TIP3   OH274488   4.493   5.928   5.040  0.3005 -0.1963 -0.5252
17666TIP3    H174489   4.415   5.874   5.030  1.6284 -3.2986  3.2563
17666TIP3    H274490   4.463   6.004   5.090 -0.3457 -1.6384  1.4078
17667TIP3   OH274491   0.897   6.237  14.980  0.1101 -0.4231 -0.6624
17667TIP3    H174492   0.818   6.184  14.981  0.6590 -1.2430  0.2857
17667TIP3    H274493   0.942   6.212  14.900 -0.5312 -0.0103 -1.1655
17668TIP3   OH274494   4.211   0.945  13.809 -0.5681 -0.3823 -0.3658
17668TIP3    H174495   4.210   0.934  13.904  0.3462  0.0774 -0.2877
17668TIP3    H274496   4.181   1.034  13.795 -1.0919 -0.5842 -0.5366
17669TIP3   OH274497   0.222   2.160   1.066  0.3865  0.3877 -0.0301
17669TIP3    H174498   0.172   2.085   1.099 -0.5667  1.5852  1.3799
17669TIP3    H274499   0.208   2.159   0.972 -0.4913 -0.5773  0.0929
17670TIP3   OH274500   3.055   6.321   2.862 -0.0561  0.0331  0.1279
17670TIP3    H174501   3.102   6.366   2.932 -0.5006  0.4686  0.1501
17670TIP3    H274502   3.119   6.312   2.792  0.0164  0.7941  0.0846
17671TIP3   OH274503   0.143   0.061   1.551  0.3530  0.1765 -0.5123
17671TIP3    H174504   0.139   0.141   1.499  0.4334  0.0407 -0.7260
17671TIP3    H274505   0.235   0.052   1.573  0.1717  0.8695  0.6446
17672TIP3   OH274506   0.311   6.797   3.372  0.1663 -0.6476 -0.3328
17672TIP3    H174507   0.380   6.733   3.351  0.2705 -1.8363  2.9519
17672TIP3    H274508   0.238   6.744   3.402  0.2369  0.6514  2.4784
17673TIP3   OH274509   0.259   0.333   1.441  0.9003 -0.2122 -0.0014
17673TIP3    H174510   0.306   0.357   1.361 -1.0435  1.6944 -0.6768
17673TIP3    H274511   0.166   0.334   1.416  0.3396 -1.9601  1.7117
17674TIP3   OH274512   1.108   4.123  10.785 -0.6890  0.3840 -0.0153
17674TIP3    H174513   1.115   4.216  10.807  1.1400  0.7895 -2.0054
17674TIP3    H274514   1.191   4.086  10.814 -1.1602 -0.5309  0.1926
17675TIP3   OH274515   0.505   0.383  11.143 -0.4533 -0.2459 -0.4751
17675TIP3    H174516   0.420   0.341  11.125 -0.4690 -0.1066 -0.7289
17675TIP3    H274517   0.485   0.453  11.205 -0.3231 -1.0555  0.5162
17676TIP3   OH274518   1.689   3.342  11.900 -1.1641 -0.2905 -0.1701
17676TIP3    H174519   1.680   3.280  11.827  0.9409 -1.3665  0.4238
17676TIP3    H274520   1.661   3.293  11.977 -1.1822  0.1011  0.0741
17677TIP3   OH274521   4.994   1.289  14.464 -0.3036 -0.0445 -0.4197
17677TIP3    H174522   4.967   1.338  14.542  0.8070 -1.5763  1.0147
17677TIP3    H274523   5.049   1.350  14.415  0.9255  0.2416  1.2406
17678TIP3   OH274524   0.134   1.673   2.028  0.2856 -0.0023 -0.4677
17678TIP3    H174525   0.140   1.768   2.016  1.2522 -0.1054 -0.8625
17678TIP3    H274526   0.191   1.655   2.103 -1.2576 -0.0736  0.7438
17679TIP3   OH274527   1.830   1.537  10.998  0.0956 -0.0418  0.0061
17679TIP3    H174528   1.739   1.526  10.970  0.0204 -1.4334  0.7078
17679TIP3    H274529   1.824   1.565  11.089  0.3705 -0.5844  0.1939
17680TIP3   OH274530   3.324   6.813  16.808  0.4622  0.1524 -0.2024
17680TIP3    H174531   3.252   6.760  16.842  0.6086 -0.5770 -1.0021
17680TIP3    H274532   3.402   6.780  16.855  0.7057 -1.0340 -1.3803
17681TIP3   OH274533   4.875   6.566  11.680  0.1352 -0.2242  0.1875
17681TIP3    H174534   4.949   6.532  11.730 -0.6645 -1.3807  0.6175
17681TIP3    H274535   4.852   6.648  11.724  1.5433  0.4924 -0.3409
17682TIP3   OH274536   1.761   6.836  15.208  0.1522  0.2324  0.0512
17682TIP3    H174537   1.773   6.866  15.118 -0.3584  0.0140 -0.0953
17682TIP3    H274538   1.685   6.886  15.240  0.0705  0.0046  0.2193
17683TIP3   OH274539   5.728   0.043  11.926  0.1068 -0.1957  0.1239
17683TIP3    H174540   5.702  -0.005  11.848 -0.7375  1.2895 -0.5598
17683TIP3    H274541   5.802   0.096  11.898  0.3741 -0.3276  0.5738
17684TIP3   OH274542   1.526   2.319  14.133  0.1495  0.5519  0.1935
17684TIP3    H174543   1.477   2.267  14.069  1.7817 -0.1297 -0.5577
17684TIP3    H274544   1.459   2.367  14.181 -1.4964 -2.2474  0.9674
17685TIP3   OH274545   0.521   5.312  16.995 -0.0462  0.3262  0.4423
17685TIP3    H174546   0.600   5.309  17.048  1.4140 -1.4581 -1.6318
17685TIP3    H274547   0.550   5.287  16.907 -2.9884 -0.9817 -0.2985
17686TIP3   OH274548   0.853   0.536  15.069  0.3627  0.0228 -0.7845
17686TIP3    H174549   0.766   0.551  15.106  0.6636  1.6254 -0.6533
17686TIP3    H274550   0.836   0.490  14.987 -0.5097 -0.8800 -0.1103
17687TIP3   OH274551   4.309   3.330  12.053 -0.5295 -0.1471 -0.0953
17687TIP3    H174552   4.349   3.382  12.123 -0.0201 -0.6348 -0.0168
17687TIP3    H274553   4.384   3.297  12.002 -0.9051  0.7527 -1.2767
17688TIP3   OH274554   6.605   0.515  10.635 -0.5427  0.2125 -0.2794
17688TIP3    H174555   6.698   0.535  10.623  0.0025 -0.5634  2.0401
17688TIP3    H274556   6.601   0.419  10.637 -1.1337  0.2407  1.0575
17689TIP3   OH274557   0.945   0.599  16.245 -0.3517  0.8255  0.3526
17689TIP3    H174558   0.927   0.682  16.288 -0.3574  0.6898  0.6148
17689TIP3    H274559   0.902   0.533  16.300 -0.0506  0.6145  0.3376
17690TIP3   OH274560   1.348   6.546   4.947 -0.4807  0.5619  0.0953
17690TIP3    H174561   1.318   6.474   5.003 -0.7687  2.1141  2.0183
17690TIP3    H274562   1.279   6.612   4.954 -0.8975  0.5547 -2.7348
17691TIP3   OH274563   4.741   3.530  16.290 -0.4331  0.4894  0.5425
17691TIP3    H174564   4.799   3.457  16.271  0.3994  0.6674  2.2334
17691TIP3    H274565   4.655   3.500  16.260  0.1438 -0.6040 -0.0958
17692TIP3   OH274566   4.701   1.170   3.311 -0.1846 -0.4917  0.3348
17692TIP3    H174567   4.689   1.263   3.294 -1.8497 -0.7515 -0.0480
17692TIP3    H274568   4.785   1.165   3.357 -0.1186  1.1913  0.4660
17693TIP3   OH274569   2.502   4.220   5.807 -0.0020 -0.0682  0.2132
17693TIP3    H174570   2.480   4.270   5.728  0.7998  0.3638  0.2561
17693TIP3    H274571   2.448   4.259   5.876  0.8376  0.9454  0.3099
17694TIP3   OH274572   6.694   6.071   4.714 -0.0496  0.9763 -0.0057
17694TIP3    H174573   6.735   6.011   4.652  0.9871  1.5644  0.0799
17694TIP3    H274574   6.766   6.099   4.771 -1.0060  0.2805  1.6179
17695TIP3   OH274575   6.266   5.883   1.894 -0.2140 -0.2269  0.0790
17695TIP3    H174576   6.300   5.967   1.862 -2.6359  0.8476  0.1117
17695TIP3    H274577   6.320   5.863   1.971  1.1766  0.6844 -0.6287
17696TIP3   OH274578   3.540   2.395  13.904 -0.1761  0.2778  0.5307
17696TIP3    H174579   3.449   2.395  13.873 -0.3941  2.0647  1.0148
17696TIP3    H274580   3.578   2.475  13.867  1.3848 -0.7237 -0.1019
17697TIP3   OH274581   3.296   5.210  13.617 -0.1466 -0.0063 -0.0260
17697TIP3    H174582   3.295   5.157  13.537  0.6757 -0.8245  0.4844
17697TIP3    H274583   3.361   5.167  13.674 -0.9668  0.3339  1.2228
17698TIP3   OH274584   0.652   5.248   3.126  0.6384  0.2415 -0.2153
17698TIP3    H174585   0.578   5.193   3.151  0.0109  1.2599  0.2529
17698TIP3    H274586   0.705   5.256   3.205  0.4954  0.6461 -0.1551
17699TIP3   OH274587   0.787   0.355   4.438  0.2950  0.0342 -0.3034
17699TIP3    H174588   0.759   0.263   4.437  1.0835 -0.2276  0.5614
17699TIP3    H274589   0.794   0.379   4.346  1.5250 -1.2213 -0.5636
17700TIP3   OH274590   5.028   5.663   0.999 -0.1010 -0.1399  0.1892
17700TIP3    H174591   5.061   5.579   0.966  1.2463 -0.3920  2.0267
17700TIP3    H274592   5.102   5.723   0.989  0.0631 -0.0142  1.8663
17701TIP3   OH274593   2.372   4.940  12.909  0.2632  0.1105 -0.3476
17701TIP3    H174594   2.379   4.994  12.987  0.6586  0.7943 -0.8440
17701TIP3    H274595   2.448   4.882  12.912  0.1268 -0.0577 -0.0886
17702TIP3   OH274596   3.471   4.143  14.659 -0.4826  0.2827 -0.1431
17702TIP3    H174597   3.488   4.220  14.604  1.9319  0.4447  0.7214
17702TIP3    H274598   3.480   4.069  14.600  0.1814  0.5465 -0.3908
17703TIP3   OH274599   6.545   0.175  14.105  0.2820  0.3189  0.3674
17703TIP3    H174600   6.626   0.140  14.066  0.3437  1.4527 -0.5636
17703TIP3    H274601   6.493   0.204  14.030 -0.7669  0.1082  0.9980
17704TIP3   OH274602   6.484   2.838  12.768  0.0861 -0.1767 -0.2049
17704TIP3    H174603   6.569   2.880  12.777  1.5395 -2.9786  0.1398
17704TIP3    H274604   6.483   2.805  12.678  0.3262 -1.9723  0.4125
17705TIP3   OH274605   2.609   2.043  14.315  0.4058 -0.2350 -0.0861
17705TIP3    H174606   2.692   2.091  14.302  1.2309 -1.1859  1.4241
17705TIP3    H274607   2.595   1.998  14.231  1.0547  0.4625 -0.5895
17706TIP3   OH274608   4.931   3.730  11.486 -0.1180 -0.1913 -0.3849
17706TIP3    H174609   4.841   3.728  11.454 -0.0296 -0.6568 -0.6114
17706TIP3    H274610   4.961   3.819  11.468 -0.6640  0.1013  0.0723
17707TIP3   OH274611   6.310   1.895  16.392  0.2320  0.4035 -0.1832
17707TIP3    H174612   6.286   1.851  16.473 -0.2794  0.5824 -0.2309
17707TIP3    H274613   6.392   1.940  16.412 -0.4560  1.3679  0.5819
17708TIP3   OH274614   3.802   1.688   3.263  0.1012  0.1797 -0.3508
17708TIP3    H174615   3.729   1.650   3.311  0.3414 -1.9533 -1.5421
17708TIP3    H274616   3.874   1.626   3.274  0.6356  0.4123 -2.0834
17709TIP3   OH274617   0.129   3.213  12.756 -0.4864 -0.1513  0.6631
17709TIP3    H174618   0.047   3.227  12.707  0.4071  1.0823 -0.5701
17709TIP3    H274619   0.131   3.285  12.819  1.1655  1.9627 -1.5666
17710TIP3   OH274620   0.245   1.778   3.130  0.4358  0.4358  0.2223
17710TIP3    H174621   0.257   1.798   3.037 -0.8263 -1.2216 -0.3484
17710TIP3    H274622   0.178   1.840   3.160  0.4988  0.6568 -0.0918
17711TIP3   OH274623   0.923   3.188  16.680  0.3164  0.0218  0.4126
17711TIP3    H174624   0.845   3.155  16.636  1.0820 -2.0168  0.4792
17711TIP3    H274625   0.942   3.271  16.637 -1.1682 -0.0581 -0.4394
17712TIP3   OH274626   3.487   1.917   4.597 -0.3483  0.0241 -0.2041
17712TIP3    H174627   3.549   1.862   4.645 -0.6395 -0.2557 -0.1423
17712TIP3    H274628   3.436   1.961   4.665  0.9277  1.6083 -0.2228
17713TIP3   OH274629   2.196   5.390  16.230  0.0979  0.2897 -0.5345
17713TIP3    H174630   2.201   5.297  16.251 -0.8198  0.1233 -1.0218
17713TIP3    H274631   2.115   5.420  16.271  0.3233  0.8554 -0.4860
17714TIP3   OH274632   4.685   4.663  16.037 -0.5733  0.0918  0.5183
17714TIP3    H174633   4.728   4.746  16.015  0.6324 -0.6365 -0.0019
17714TIP3    H274634   4.752   4.612  16.083 -1.4742 -0.3934  1.3510
17715TIP3   OH274635   1.829   5.942  13.598  0.1328 -0.3401  0.5435
17715TIP3    H174636   1.864   5.930  13.509 -0.5431  1.1359  0.0448
17715TIP3    H274637   1.906   5.943  13.654  0.7845  0.9268 -0.3089
17716TIP3   OH274638   2.150   6.358   2.386 -0.3713 -0.4417  0.3623
17716TIP3    H174639   2.161   6.452   2.397 -0.8189 -0.2930 -0.3907
17716TIP3    H274640   2.239   6.324   2.382 -0.2053 -0.1392  1.2721
17717TIP3   OH274641   1.806   1.676   2.696 -0.2406 -0.1878  0.2059
17717TIP3    H174642   1.772   1.751   2.745 -1.6654 -1.1196  0.7282
17717TIP3    H274643   1.728   1.623   2.677  0.5274 -0.7940 -1.4576
17718TIP3   OH274644   4.826   5.241  14.274 -0.4127 -0.3602 -0.3731
17718TIP3    H174645   4.906   5.216  14.228  0.7921  0.7400  1.0201
17718TIP3    H274646   4.782   5.302  14.215 -1.7538 -3.0794 -2.3960
17719TIP3   OH274647   5.950   4.951  11.780  0.3182 -0.0354  0.5096
17719TIP3    H174648   5.993   4.882  11.831 -0.6181 -0.0336  1.3303
17719TIP3    H274649   5.952   4.919  11.690  2.3901  0.1555  0.4263
17720TIP3   OH274650   2.834   0.014   3.175  0.7189 -0.3008 -0.4608
17720TIP3    H174651   2.848   0.047   3.264 -0.0044  0.6706 -0.6915
17720TIP3    H274652   2.764  -0.051   3.184 -0.9342  1.3812 -0.6035
17721TIP3   OH274653   2.018   2.652  10.485 -0.0597 -0.3988  0.3715
17721TIP3    H174654   2.008   2.593  10.560  0.7299 -1.7106 -0.5272
17721TIP3    H274655   2.033   2.594  10.410 -1.3763  0.8541 -0.9165
17722TIP3   OH274656   0.655   0.560  15.499  0.4653 -0.2868 -0.2123
17722TIP3    H174657   0.641   0.647  15.463  0.0016 -0.1567  0.2687
17722TIP3    H274658   0.567   0.524  15.508  0.4991  0.0150  1.5925
17723TIP3   OH274659   0.036   0.335   1.287 -0.2922 -0.2082  0.0727
17723TIP3    H174660  -0.047   0.291   1.305  0.0161 -0.4291  1.0840
17723TIP3    H274661   0.065   0.298   1.204 -0.3660 -1.4697  0.5690
17724TIP3   OH274662   3.349   1.495  11.752 -0.1884 -0.3788 -0.5502
17724TIP3    H174663   3.316   1.579  11.782  0.1571 -0.3772 -0.1692
17724TIP3    H274664   3.432   1.516  11.709  0.4261 -0.6368  0.4689
17725TIP3   OH274665   3.927   5.089   3.847 -0.0771 -0.0534  0.2087
17725TIP3    H174666   3.874   5.053   3.919  0.3920  0.1349  0.6506
17725TIP3    H274667   4.012   5.046   3.856 -0.1238 -0.3016 -0.4572
17726TIP3   OH274668   1.728   3.696   3.206 -0.1918  0.0946 -0.0383
17726TIP3    H174669   1.657   3.652   3.252 -2.7952  3.0678 -0.8461
17726TIP3    H274670   1.781   3.735   3.275 -2.0814  1.6692  0.6210
17727TIP3   OH274671   6.340   4.694  11.172 -0.7248  0.6358 -0.0429
17727TIP3    H174672   6.377   4.612  11.203 -2.6096 -0.7281 -1.2044
17727TIP3    H274673   6.416   4.749  11.154  0.5337 -0.1324  2.5085
17728TIP3   OH274674   2.166   0.873  14.151  0.1685 -0.3999 -0.7083
17728TIP3    H174675   2.081   0.853  14.112 -0.2564 -2.1658  0.9773
17728TIP3    H274676   2.163   0.968  14.164  0.8393  0.5956 -5.7918
17729TIP3   OH274677   1.794   3.189   3.011 -0.5049 -0.1009  0.3112
17729TIP3    H174678   1.832   3.164   3.095 -0.8743 -1.6972  0.0378
17729TIP3    H274679   1.808   3.284   3.005  2.0497 -0.3820  0.8907
17730TIP3   OH274680   4.859   2.902   1.971 -0.1038  0.5930 -0.0890
17730TIP3    H174681   4.947   2.897   1.932 -0.0533 -0.6282  0.1561
17730TIP3    H274682   4.860   2.985   2.019  0.8838  0.6507 -0.1770
17731TIP3   OH274683   0.591   6.306   3.569  0.2183 -0.2666  0.2431
17731TIP3    H174684   0.677   6.299   3.609 -0.3489 -1.9453  1.2855
17731TIP3    H274685   0.601   6.263   3.484  0.0298 -2.1482  1.1113
17732TIP3   OH274686   3.671   6.032  16.316  0.0430 -0.4566  0.9688
17732TIP3    H174687   3.744   6.067  16.366  0.8671 -0.2396 -0.3350
17732TIP3    H274688   3.593   6.073  16.354  0.6634 -0.0881  1.8662
17733TIP3   OH274689   1.566   6.577  15.787 -0.1656 -1.0702 -0.3090
17733TIP3    H174690   1.538   6.566  15.696 -1.4304  1.7949 -0.3675
17733TIP3    H274691   1.530   6.662  15.813  1.5213 -1.0709  2.3754
17734TIP3   OH274692   5.200   1.105  13.663 -0.6222 -0.2091  0.0586
17734TIP3    H174693   5.170   1.184  13.708  1.6973  0.4314  0.5837
17734TIP3    H274694   5.273   1.134  13.609  0.1839 -1.9665  0.1253
17735TIP3   OH274695   0.902   4.679   2.771  0.2529 -0.2572  0.1986
17735TIP3    H174696   0.829   4.694   2.711  0.3465 -0.0992  0.1248
17735TIP3    H274697   0.918   4.764   2.811  1.2736  0.0185 -0.7683
17736TIP3   OH274698   5.352   3.778   6.654  0.2437 -0.3688  0.2179
17736TIP3    H174699   5.263   3.805   6.677  0.1795 -0.1679 -0.2398
17736TIP3    H274700   5.375   3.833   6.579  0.9072 -0.1343  0.5769
17737TIP3   OH274701   5.381   6.154  15.705  0.8350 -0.0753  0.1820
17737TIP3    H174702   5.431   6.102  15.642  0.5833  0.6316 -0.6103
17737TIP3    H274703   5.373   6.097  15.782  2.0189 -0.5627 -0.0358
17738TIP3   OH274704   4.157   1.375  13.285  0.2803  0.2074 -0.1939
17738TIP3    H174705   4.239   1.354  13.329  0.4767 -0.8220 -1.0098
17738TIP3    H274706   4.112   1.291  13.277  0.6615  0.1552 -2.7082
17739TIP3   OH274707   1.620   0.536   5.854 -0.2764  0.1952  0.4348
17739TIP3    H174708   1.597   0.612   5.908  1.0419 -0.4728  2.0088
17739TIP3    H274709   1.536   0.497   5.831 -0.9442  1.6365  0.2898
17740TIP3   OH274710   1.746   0.336  15.006  0.1268 -0.0232  0.4984
17740TIP3    H174711   1.703   0.295  15.081  1.2929  0.9447  1.7395
17740TIP3    H274712   1.676   0.349  14.942 -0.7783 -1.4218  1.1558
17741TIP3   OH274713   1.742   5.174   4.039  0.4386  0.0250 -0.1628
17741TIP3    H174714   1.735   5.178   3.943 -0.1001 -0.8074 -0.1678
17741TIP3    H274715   1.672   5.232   4.070  1.1927  1.0100 -0.2665
17742TIP3   OH274716   0.577   6.760   6.061 -0.1523 -0.1037  0.0698
17742TIP3    H174717   0.578   6.855   6.077  1.1929 -0.4154  2.2615
17742TIP3    H274718   0.606   6.722   6.144 -0.5275 -2.4527 -0.8119
17743TIP3   OH274719   1.266   4.729  13.511  0.1904 -0.5416  0.2341
17743TIP3    H174720   1.239   4.721  13.420  1.5281 -4.6273  0.0106
17743TIP3    H274721   1.353   4.770  13.507  0.0864 -0.3684 -0.2955
17744TIP3   OH274722   1.326   6.305  11.866  0.6442  0.4684  0.0351
17744TIP3    H174723   1.366   6.279  11.949 -1.3389 -3.0721  0.0704
17744TIP3    H274724   1.389   6.279  11.799  0.3092 -1.0629  0.2780
17745TIP3   OH274725   1.046   4.892   5.785 -0.1711 -0.0760  0.0816
17745TIP3    H174726   1.099   4.970   5.799  0.1967 -0.3145  0.0467
17745TIP3    H274727   1.032   4.888   5.691 -3.0297  1.7797  0.3227
17746TIP3   OH274728   6.522   3.874   4.896  0.5498  0.2512 -0.2518
17746TIP3    H174729   6.465   3.797   4.899  0.4035  0.3503 -0.4657
17746TIP3    H274730   6.577   3.866   4.974  0.9741 -0.4060 -0.6100
17747TIP3   OH274731   1.077   1.262  13.663  0.0676 -0.6420 -0.3852
17747TIP3    H174732   1.141   1.222  13.603  0.1959 -2.1400  0.6934
17747TIP3    H274733   1.098   1.355  13.660  1.9715 -1.0181 -0.4962
17748TIP3   OH274734   3.597   6.320   1.066 -0.4575 -0.4062  0.5391
17748TIP3    H174735   3.634   6.350   1.149 -2.7382 -0.6745  1.7369
17748TIP3    H274736   3.572   6.229   1.083 -2.6254  0.0721  0.2240
17749TIP3   OH274737   3.248   0.725  14.727 -0.4415 -0.0691 -0.5900
17749TIP3    H174738   3.230   0.751  14.818  0.8541 -0.0436 -0.3228
17749TIP3    H274739   3.321   0.663  14.734 -1.5842 -1.5866 -1.4670
17750TIP3   OH274740   2.801   6.412   2.761  0.2838 -0.4209  0.7412
17750TIP3    H174741   2.820   6.421   2.667 -1.5354 -1.0670  0.2648
17750TIP3    H274742   2.885   6.385   2.800  0.9289 -0.7462 -0.7883
17751TIP3   OH274743   0.994   0.464  11.784 -0.3301  0.3835 -0.4221
17751TIP3    H174744   0.972   0.556  11.798  0.1293  0.6318 -1.2518
17751TIP3    H274745   1.026   0.434  11.869  1.4641  1.5661 -0.6285
17752TIP3   OH274746   0.856   4.593   1.737 -0.6393 -0.1097  0.2385
17752TIP3    H174747   0.949   4.615   1.742 -0.1370 -1.7502 -0.8020
17752TIP3    H274748   0.820   4.654   1.673 -0.7509  1.7901  2.0199
17753TIP3   OH274749   2.191   0.110   2.278 -0.1018 -0.2982 -0.0824
17753TIP3    H174750   2.236   0.027   2.263  0.9250  0.2647 -0.1602
17753TIP3    H274751   2.099   0.090   2.259  0.2774 -1.1521 -1.1354
17754TIP3   OH274752   3.252   6.292  12.751  0.1016  0.1428 -0.1204
17754TIP3    H174753   3.191   6.219  12.765 -1.2510  1.1504 -0.5330
17754TIP3    H274754   3.314   6.286  12.824 -1.9217  0.4569  1.7254
17755TIP3   OH274755   6.218   3.774   0.960 -0.3075  0.0251 -0.1486
17755TIP3    H174756   6.163   3.768   1.038  1.3791 -1.2681  1.0293
17755TIP3    H274757   6.187   3.705   0.903 -1.6701  1.0930 -0.7547
17756TIP3   OH274758   3.804   1.804  12.310  0.4640  0.0527  0.3647
17756TIP3    H174759   3.780   1.768  12.224  0.8915  1.2085 -0.2640
17756TIP3    H274760   3.732   1.779  12.368  0.1694 -0.7507 -0.3307
17757TIP3   OH274761   6.546   4.259   0.759 -0.2791  0.0198  0.0889
17757TIP3    H174762   6.463   4.301   0.779 -0.2374  0.2584 -0.2419
17757TIP3    H274763   6.613   4.324   0.782 -0.2428  0.5008 -1.2846
17758TIP3   OH274764   0.804   4.297  15.461 -0.0197 -0.1168  0.2601
17758TIP3    H174765   0.785   4.384  15.425 -2.2888 -0.5774  0.2056
17758TIP3    H274766   0.829   4.245  15.385 -1.9562 -0.3330 -0.2798
17759TIP3   OH274767   1.473   3.282   5.431  0.2254  0.5279 -0.3961
17759TIP3    H174768   1.386   3.316   5.451  0.7257  1.6291 -0.0071
17759TIP3    H274769   1.530   3.359   5.432  1.1547 -0.1257 -0.9619
17760TIP3   OH274770   5.883   5.159   3.433 -0.4893 -0.6428  0.0120
17760TIP3    H174771   5.920   5.240   3.470 -0.2579  0.4213 -2.3366
17760TIP3    H274772   5.817   5.132   3.496  0.2063  0.7470  1.4261
17761TIP3   OH274773   4.214   2.564   0.617  0.3677  0.1678 -0.1650
17761TIP3    H174774   4.193   2.558   0.711  0.4646  0.9156 -0.0873
17761TIP3    H274775   4.141   2.615   0.580  0.5582  0.2592 -0.4150
17762TIP3   OH274776   6.519   3.013   2.303 -0.0642  0.9432  0.3211
17762TIP3    H174777   6.451   3.050   2.358 -1.9763 -0.6758 -0.8233
17762TIP3    H274778   6.539   2.928   2.343 -0.1551  0.5480 -0.4559
17763TIP3   OH274779   1.121   4.545   2.712  0.2943  0.1206 -0.0655
17763TIP3    H174780   1.048   4.572   2.768  0.2835 -1.7135  0.8636
17763TIP3    H274781   1.121   4.608   2.640 -0.8563  1.4255  1.0304
17764TIP3   OH274782   4.198   3.737  13.849  0.1823 -0.4172 -0.0042
17764TIP3    H174783   4.153   3.654  13.844 -0.1158 -0.2812  0.3729
17764TIP3    H274784   4.182   3.779  13.764 -1.2124  0.0427  0.4596
17765TIP3   OH274785   3.130   4.263  15.592  0.2499  0.2427  0.4048
17765TIP3    H174786   3.082   4.223  15.520  2.0036 -0.8993 -0.2041
17765TIP3    H274787   3.136   4.356  15.570 -1.3698  0.3547  0.3584
17766TIP3   OH274788   1.841   6.036   3.004 -0.1789  0.0154  0.5987
17766TIP3    H174789   1.827   5.943   2.985  0.3340 -0.5518  2.7659
17766TIP3    H274790   1.901   6.066   2.936  0.3159 -1.4553  0.3649
17767TIP3   OH274791   3.589   4.251  16.340  0.1317 -0.1284  0.1965
17767TIP3    H174792   3.582   4.306  16.262 -0.8677  0.5078  0.7092
17767TIP3    H274793   3.559   4.165  16.311  0.2740 -0.0248 -0.2575
17768TIP3   OH274794   5.851   2.264  15.972 -0.8218  0.5005  0.0490
17768TIP3    H174795   5.842   2.272  15.878 -2.2660  0.6075  0.1747
17768TIP3    H274796   5.942   2.289  15.990 -0.3155 -0.2129 -1.3661
17769TIP3   OH274797   0.688   3.278   3.316 -0.3614  0.2991 -0.3471
17769TIP3    H174798   0.731   3.193   3.313 -1.2190 -0.1294 -0.7841
17769TIP3    H274799   0.629   3.278   3.240 -2.2984  0.2450  1.0929
17770TIP3   OH274800   3.278   5.978  13.916 -0.7332 -0.1722  0.2641
17770TIP3    H174801   3.322   5.927  13.848  0.7163  0.4733  0.6893
17770TIP3    H274802   3.192   5.996  13.880  0.1965  0.6452 -1.6690
17771TIP3   OH274803   6.033   4.517  14.510  0.4207  0.2219 -0.2050
17771TIP3    H174804   6.113   4.472  14.537  0.1841 -1.2581 -1.7735
17771TIP3    H274805   5.963   4.455  14.531 -0.2729  1.2589  0.6184
17772TIP3   OH274806   2.461   3.344   3.262  0.5916 -0.3020 -0.0157
17772TIP3    H174807   2.371   3.334   3.292  1.4670 -0.2167  3.0142
17772TIP3    H274808   2.486   3.258   3.228 -0.8356 -0.0908 -1.7217
17773TIP3   OH274809   1.384   4.196   2.626  0.7120  0.5794 -0.2246
17773TIP3    H174810   1.354   4.183   2.716  0.1651  2.1202 -0.1488
17773TIP3    H274811   1.474   4.227   2.635  0.5220  1.1235 -0.1837
17774TIP3   OH274812   2.527   4.649  16.528  0.3527  0.5784  0.3259
17774TIP3    H174813   2.512   4.678  16.617 -0.9335 -0.2068  0.3966
17774TIP3    H274814   2.454   4.686  16.478  0.3610 -0.0283 -0.1480
17775TIP3   OH274815   0.521   3.562   1.654 -0.0309 -0.0074  0.2764
17775TIP3    H174816   0.431   3.529   1.646  0.1619 -0.8993  1.4287
17775TIP3    H274817   0.512   3.645   1.700 -0.1511 -1.1802  2.5185
17776TIP3   OH274818   4.443   2.634  16.458 -0.3202  0.0435 -0.1839
17776TIP3    H174819   4.413   2.720  16.487  0.3383  0.4270 -0.6182
17776TIP3    H274820   4.417   2.575  16.529  0.7815  0.8802  0.9749
17777TIP3   OH274821   2.250   4.766   1.246 -0.1221 -0.0045  0.7476
17777TIP3    H174822   2.322   4.724   1.294  0.6948  0.7949  0.2515
17777TIP3    H274823   2.232   4.705   1.174  0.7561  0.2616  0.2877
17778TIP3   OH274824   3.803   0.601  15.334  0.0080  0.2184 -0.1694
17778TIP3    H174825   3.770   0.578  15.247 -0.0416  1.7528 -0.5798
17778TIP3    H274826   3.802   0.518  15.382 -2.1239 -0.2565 -0.9068
17779TIP3   OH274827   5.873   5.500  14.242 -0.1552 -0.5818 -0.3324
17779TIP3    H174828   5.910   5.413  14.227 -0.1624 -0.3502 -1.8393
17779TIP3    H274829   5.792   5.501  14.190 -0.2220  0.2808 -0.2263
17780TIP3   OH274830   1.939   4.753   2.457 -0.1719  0.3302 -0.1450
17780TIP3    H174831   1.947   4.718   2.546  2.1714 -0.2930 -0.5216
17780TIP3    H274832   1.908   4.843   2.468  1.6916  0.8378  1.4734
17781TIP3   OH274833   2.934   4.088  14.386  0.6563  0.0342 -0.5889
17781TIP3    H174834   2.886   4.161  14.347 -0.0074  0.1381  0.3938
17781TIP3    H274835   3.015   4.084  14.335 -0.3249 -0.0898 -2.2325
17782TIP3   OH274836   4.469   3.397   5.294 -0.0875 -0.0827 -0.2471
17782TIP3    H174837   4.441   3.382   5.204 -0.4363 -0.1353 -0.1299
17782TIP3    H274838   4.427   3.328   5.345 -0.1733  0.1505  0.0055
17783TIP3   OH274839   3.419   0.417   3.750  0.2901 -0.4141 -0.3085
17783TIP3    H174840   3.410   0.445   3.659 -1.9174  0.5066  0.1345
17783TIP3    H274841   3.334   0.382   3.774  0.7752 -0.5267  1.4401
17784TIP3   OH274842   6.671   4.376   3.534  0.7931  0.3110 -0.2778
17784TIP3    H174843   6.673   4.457   3.584 -0.5312  0.5973 -0.6268
17784TIP3    H274844   6.644   4.309   3.597 -1.3017  0.7461 -0.6142
17785TIP3   OH274845   3.372   5.185   5.939 -0.2347 -1.1066 -0.4481
17785TIP3    H174846   3.458   5.183   5.981 -0.4815 -1.5526  0.0491
17785TIP3    H274847   3.335   5.269   5.964  0.6502 -0.2510 -1.8986
17786TIP3   OH274848   2.653   4.595   2.426  0.6697  0.3519 -0.6125
17786TIP3    H174849   2.608   4.674   2.399  2.8873  1.6201 -0.8089
17786TIP3    H274850   2.657   4.541   2.347 -2.1734 -0.7394 -0.1363
17787TIP3   OH274851   1.970   6.480  12.669  0.2666  0.4448 -0.4958
17787TIP3    H174852   1.998   6.510  12.583  1.0140  1.5082  0.0999
17787TIP3    H274853   2.045   6.497  12.726 -0.8154  1.3571  0.7092
17788TIP3   OH274854   4.690   3.309  10.277 -0.2672 -0.5507  0.4555
17788TIP3    H174855   4.753   3.242  10.303  0.9825  0.4725  0.1883
17788TIP3    H274856   4.722   3.389  10.319  0.2581  0.5784 -1.9379
17789TIP3   OH274857   2.444   0.943   5.240  0.0949  0.3955  0.0269
17789TIP3    H174858   2.408   1.005   5.177 -0.0890 -1.5295 -1.8825
17789TIP3    H274859   2.368   0.901   5.279  0.1815 -0.7322 -0.9485
17790TIP3   OH274860   4.568   4.936  10.679 -0.1672 -0.5787  0.3460
17790TIP3    H174861   4.659   4.941  10.709  0.5620 -0.9777 -1.6695
17790TIP3    H274862   4.572   4.886  10.598 -1.9096  1.1617 -0.8974
17791TIP3   OH274863   5.142   4.095  11.999 -0.3776  0.4859 -0.0295
17791TIP3    H174864   5.157   4.036  11.924 -1.1109 -0.1256  0.2885
17791TIP3    H274865   5.229   4.106  12.038  0.0524  0.9941 -1.0950
17792TIP3   OH274866   4.084   6.738   1.735  0.5140 -0.0777  0.2539
17792TIP3    H174867   4.175   6.715   1.719  0.3216  0.0851 -1.1842
17792TIP3    H274868   4.078   6.831   1.716 -0.5373 -0.6450 -2.7009
17793TIP3   OH274869   5.473   4.102  15.785  0.0482  0.7175 -0.1172
17793TIP3    H174870   5.482   4.063  15.872  0.6027 -0.1267 -0.5426
17793TIP3    H274871   5.546   4.067  15.735 -0.5925  0.7347 -1.0948
17794TIP3   OH274872   0.482   0.582   1.124  0.4849  0.6400  0.4868
17794TIP3    H174873   0.530   0.665   1.130 -2.0604  2.1486  1.7501
17794TIP3    H274874   0.413   0.589   1.191 -0.2747 -2.2143  0.1361
17795TIP3   OH274875   0.483   4.104  11.108 -0.1041  0.0288 -0.8865
17795TIP3    H174876   0.496   4.019  11.066 -0.4765 -0.0842 -0.7820
17795TIP3    H274877   0.413   4.144  11.056 -0.3627  0.0103 -0.5522
17796TIP3   OH274878   4.150   4.825   5.184 -0.0747 -0.0429  0.1016
17796TIP3    H174879   4.090   4.806   5.112 -0.3795  0.8693  0.0987
17796TIP3    H274880   4.142   4.919   5.197 -0.1138 -0.2158  1.4209
17797TIP3   OH274881   2.923   0.549   2.938  0.5542  0.6268  0.3607
17797TIP3    H174882   2.954   0.640   2.935  2.9475 -0.1375 -0.0982
17797TIP3    H274883   2.980   0.507   3.003 -0.8641 -0.4480  0.9478
17798TIP3   OH274884   0.831   4.689   4.042 -0.2953 -0.5041 -0.3165
17798TIP3    H174885   0.746   4.695   4.087 -0.5688 -2.0191 -0.5815
17798TIP3    H274886   0.895   4.708   4.111 -0.8111 -0.2038  0.0912
17799TIP3   OH274887   4.093   0.612  15.113  0.0995 -0.5155 -0.0380
17799TIP3    H174888   4.020   0.670  15.137 -1.2775 -3.0850  2.7161
17799TIP3    H274889   4.170   0.652  15.153 -0.1801  0.9956 -0.9329
17800TIP3   OH274890   3.199   0.328  17.128  0.1262  0.1632  0.0691
17800TIP3    H174891   3.256   0.271  17.181 -0.3238 -0.4369 -0.0863
17800TIP3    H274892   3.113   0.287  17.132 -0.1334  0.6550 -0.3249
17801TIP3   OH274893   1.266   2.188  17.051  0.1846 -0.2988  0.5100
17801TIP3    H174894   1.180   2.147  17.059 -0.6515  1.0320 -1.0813
17801TIP3    H274895   1.252   2.279  17.077  1.1329 -0.0825  0.2856
17802TIP3   OH274896   5.994   2.176   4.834  0.8883  0.4218  0.0305
17802TIP3    H174897   5.941   2.129   4.899  2.5192 -0.0582  1.0849
17802TIP3    H274898   5.978   2.130   4.752  1.7214 -1.4221  0.8608
17803TIP3   OH274899   3.156   6.269  16.099  0.1682  0.3635 -0.0066
17803TIP3    H174900   3.106   6.283  16.179 -0.6629  1.5633 -0.7026
17803TIP3    H274901   3.145   6.350  16.049 -0.1431 -0.6979 -1.7663
17804TIP3   OH274902   4.514   1.316  15.616 -0.0370  0.3227 -0.0093
17804TIP3    H174903   4.603   1.316  15.581  0.3263 -0.1516  0.8609
17804TIP3    H274904   4.459   1.347  15.544  1.0485  2.5108  0.0012
17805TIP3   OH274905   6.552   5.573  15.463  0.3345  0.0502  0.1948
17805TIP3    H174906   6.629   5.565  15.519  0.3573  0.1307  0.1743
17805TIP3    H274907   6.554   5.495  15.408  0.6814  0.3022 -0.1547
17806TIP3   OH274908   2.357   4.602   4.769 -0.2032  0.2728  0.0633
17806TIP3    H174909   2.300   4.584   4.694  0.7363  1.3160 -0.9398
17806TIP3    H274910   2.353   4.523   4.822 -0.8632 -0.5051 -1.1089
17807TIP3   OH274911   2.845   2.894  14.014  0.1539 -0.1888 -0.4481
17807TIP3    H174912   2.776   2.941  14.061  0.4579 -0.6970  0.5301
17807TIP3    H274913   2.876   2.828  14.076 -0.8234 -2.2699 -2.0686
17808TIP3   OH274914   1.365   6.312   5.539 -0.3772  0.2358 -0.1778
17808TIP3    H174915   1.316   6.236   5.570  1.9032 -1.0560  0.4518
17808TIP3    H274916   1.298   6.370   5.501 -2.0909 -2.6498 -1.9533
17809TIP3   OH274917   3.659   0.768  15.786  0.0088  0.3743 -0.3589
17809TIP3    H174918   3.675   0.779  15.692 -0.2143  0.5745 -0.3721
17809TIP3    H274919   3.678   0.854  15.824 -1.0754  0.6321 -0.3769
17810TIP3   OH274920   1.687   5.170  12.012  0.2611 -0.0157  0.8020
17810TIP3    H174921   1.616   5.230  11.990 -0.1316 -0.2224  1.5004
17810TIP3    H274922   1.656   5.085  11.982  0.2892 -0.0784  0.9539
17811TIP3   OH274923   6.801   6.708   1.562  0.2212  0.2513 -0.0081
17811TIP3    H174924   6.855   6.787   1.569  1.8612 -0.7968 -0.2689
17811TIP3    H274925   6.727   6.735   1.508 -1.8255  2.8577  3.6304
17812TIP3   OH274926   4.990   2.662  14.219  0.1906  0.2962  0.9374
17812TIP3    H174927   4.904   2.624  14.234 -0.6608  1.9108  0.3566
17812TIP3    H274928   5.050   2.587  14.218 -1.3668 -0.9876  0.0885
17813TIP3   OH274929   0.448   3.713  13.794  0.4191 -0.2028  0.0030
17813TIP3    H174930   0.413   3.700  13.706  0.7347 -1.8311  0.0841
17813TIP3    H274931   0.422   3.802  13.818 -2.3080 -0.7620 -0.5459
17814TIP3   OH274932   2.841   1.964   4.658 -0.3128 -0.1521  0.0801
17814TIP3    H174933   2.779   2.020   4.705 -0.6104  0.3883 -0.9289
17814TIP3    H274934   2.924   2.011   4.663 -0.7128  0.7776 -1.3761
17815TIP3   OH274935   6.277   4.266  15.920  0.2117 -0.6332 -0.2185
17815TIP3    H174936   6.213   4.196  15.928 -1.6328  0.9144 -0.8386
17815TIP3    H274937   6.307   4.282  16.009 -2.0159  0.1643  0.4302
17816TIP3   OH274938   1.102   6.673  12.464  0.7491 -0.1691 -0.3197
17816TIP3    H174939   1.116   6.683  12.370 -0.0841 -0.0195 -0.4287
17816TIP3    H274940   1.007   6.670  12.475  0.8456 -0.8214  0.4541
17817TIP3   OH274941   1.403   3.417   2.021 -0.6477  0.0321  0.2602
17817TIP3    H174942   1.498   3.405   2.013 -0.5696  1.2695 -1.4259
17817TIP3    H274943   1.390   3.455   2.108  0.2183 -1.4321  1.0696
17818TIP3   OH274944   2.048   4.518   5.146 -0.0655 -0.1166  0.6689
17818TIP3    H174945   2.113   4.577   5.107 -0.4790 -0.5817 -0.7792
17818TIP3    H274946   2.018   4.565   5.224  1.7515  0.2546  1.1997
17819TIP3   OH274947   0.902   5.038   1.610 -0.3321  0.1106  0.9328
17819TIP3    H174948   0.806   5.031   1.607 -0.3944  0.5665  1.6297
17819TIP3    H274949   0.926   5.068   1.522 -0.6532 -1.7490  0.1617
17820TIP3   OH274950   1.198   5.602   5.743  0.2407 -0.7447 -0.0443
17820TIP3    H174951   1.152   5.681   5.716 -2.0990 -2.2221 -0.6484
17820TIP3    H274952   1.263   5.586   5.674  0.4450  0.3717 -0.1216
17821TIP3   OH274953   1.915   2.551  12.750  0.0292 -0.5842 -0.6835
17821TIP3    H174954   1.979   2.522  12.815 -0.5769  0.5792  0.4840
17821TIP3    H274955   1.830   2.522  12.785 -0.5513  1.9838  0.2948
17822TIP3   OH274956   0.387   4.758  13.488 -0.4863  0.0966 -0.0551
17822TIP3    H174957   0.480   4.770  13.511 -0.8562  0.2540  1.4809
17822TIP3    H274958   0.382   4.667  13.459  0.0113 -0.1982  0.7145
17823TIP3   OH274959   1.113   1.621  11.708 -0.5453  0.2888  0.5620
17823TIP3    H174960   1.089   1.582  11.792 -2.5810  0.6984  0.2066
17823TIP3    H274961   1.136   1.712  11.729 -0.9795  0.3706  0.6769
17824TIP3   OH274962   5.604   0.025   1.594 -0.2265  0.1599 -0.4200
17824TIP3    H174963   5.563  -0.057   1.565  1.8110 -0.7316 -0.9146
17824TIP3    H274964   5.639   0.005   1.681  0.6788  0.3625 -0.7346
17825TIP3   OH274965   1.562   6.131  15.586  0.2720  0.1684 -0.3405
17825TIP3    H174966   1.559   6.209  15.532 -1.4160  0.6064  0.3195
17825TIP3    H274967   1.510   6.153  15.663 -0.9926 -1.8897 -0.5358
17826TIP3   OH274968   1.342   3.647   1.281  0.2020 -0.4033 -0.0523
17826TIP3    H174969   1.285   3.638   1.357 -1.6476 -0.1850 -1.3537
17826TIP3    H274970   1.336   3.563   1.235  1.7161 -0.7250  0.2803
17827TIP3   OH274971   6.678   6.324  14.916  0.0899 -0.6670  0.0227
17827TIP3    H174972   6.708   6.345  15.004 -1.7621 -0.6649  0.7120
17827TIP3    H274973   6.686   6.229  14.909 -1.5578 -0.9102  0.9639
17828TIP3   OH274974   3.953   5.431  13.862 -0.3147  0.1695 -1.2004
17828TIP3    H174975   3.956   5.526  13.869  1.8387  0.0829 -0.1634
17828TIP3    H274976   3.976   5.412  13.771  0.0718  0.6229 -1.1992
17829TIP3   OH274977   1.578   1.911  13.538 -0.1199  0.5076  0.0553
17829TIP3    H174978   1.539   1.945  13.619 -0.4936  0.0142  0.0840
17829TIP3    H274979   1.568   1.983  13.475 -1.9221  0.0703 -0.2041
17830TIP3   OH274980   0.732   3.810   4.477 -0.0655 -0.2884 -0.1310
17830TIP3    H174981   0.729   3.715   4.491 -1.2756 -0.2503 -0.0491
17830TIP3    H274982   0.673   3.825   4.403 -0.3825  0.4692  0.2684
17831TIP3   OH274983   3.000   2.911  15.753  0.7670 -0.2660 -0.1866
17831TIP3    H174984   2.975   2.886  15.664  1.3248  0.9518 -0.7059
17831TIP3    H274985   3.055   2.988  15.742  1.3384 -0.4462  1.1887
17832TIP3   OH274986   6.782   5.629   3.423 -0.3366  0.7111  0.1269
17832TIP3    H174987   6.756   5.701   3.481  1.7091  0.1173  1.9094
17832TIP3    H274988   6.731   5.554   3.455  0.9080  0.3457  1.3549
17833TIP3   OH274989   3.250   0.214  10.619  0.2322  0.2295  0.0296
17833TIP3    H174990   3.170   0.216  10.567 -1.0410  1.2963  1.8932
17833TIP3    H274991   3.313   0.268  10.571 -0.7447  0.8092 -0.6112
17834TIP3   OH274992   0.233   0.571   3.403 -0.1381  0.1301  0.2488
17834TIP3    H174993   0.196   0.529   3.481 -3.0326 -2.1247 -2.0882
17834TIP3    H274994   0.186   0.655   3.397 -4.3606 -2.0705 -1.8707
17835TIP3   OH274995   0.879   6.203   5.486 -0.3576 -0.1369 -0.3719
17835TIP3    H174996   0.787   6.203   5.460 -0.5222  1.4824  0.0820
17835TIP3    H274997   0.879   6.161   5.572 -0.8515  0.8327  0.1157
17836TIP3   OH274998   2.289   0.594   6.003  0.2927 -0.0534 -0.1997
17836TIP3    H174999   2.220   0.536   6.035 -0.6052  0.6571 -0.8130
17836TIP3    H275000   2.251   0.682   6.008  2.6926  1.0537  3.9070
17837TIP3   OH275001   2.224   5.755   3.761  0.2215 -0.7236 -0.0407
17837TIP3    H175002   2.156   5.794   3.706 -0.0400 -1.1192  0.0028
17837TIP3    H275003   2.292   5.823   3.765 -0.1722 -0.3210 -0.0716
17838TIP3   OH275004   2.780   2.505  14.269  0.5635  0.6190 -0.1164
17838TIP3    H175005   2.819   2.592  14.264  1.4085  0.2253 -0.6178
17838TIP3    H275006   2.820   2.466  14.347  2.2252 -0.2502 -1.3317
17839TIP3   OH275007   3.653   0.042  11.571 -0.2985 -0.1054  0.3696
17839TIP3    H175008   3.597   0.027  11.495 -0.6559 -2.6428  1.0489
17839TIP3    H275009   3.740   0.058  11.533 -0.8623  0.9072 -0.5891
17840TIP3   OH275010   1.911   4.107   4.942 -0.3015 -0.5738 -0.1095
17840TIP3    H175011   1.910   4.055   4.862 -2.0655  0.2173 -0.6419
17840TIP3    H275012   1.836   4.165   4.934 -0.0749  0.0471  1.7961
17841TIP3   OH275013   5.837   3.179   4.948 -0.1075 -0.0184  0.2928
17841TIP3    H175014   5.897   3.217   4.884  1.0513 -3.5418 -0.9593
17841TIP3    H275015   5.885   3.181   5.030 -0.4210  1.8456  0.4723
17842TIP3   OH275016   3.686   2.101  11.497 -0.8177  0.3364  0.0227
17842TIP3    H175017   3.646   2.035  11.554 -1.7941  0.5501 -0.3931
17842TIP3    H275018   3.740   2.051  11.436 -1.3294 -0.0553 -0.1111
17843TIP3   OH275019   4.315   1.497   3.413  0.2442 -0.3281 -0.4481
17843TIP3    H175020   4.342   1.521   3.502 -1.2817 -3.0724  0.8805
17843TIP3    H275021   4.247   1.561   3.391 -1.3479 -1.1751  1.5893
17844TIP3   OH275022   2.071   5.278  15.338  0.2363  0.1107  0.7253
17844TIP3    H175023   2.062   5.319  15.424 -0.8843 -0.7514  1.0568
17844TIP3    H275024   2.078   5.351  15.276  1.2360  0.7344  1.5583
17845TIP3   OH275025   4.746   2.086   5.270 -0.9705 -0.4888  0.2073
17845TIP3    H175026   4.697   2.122   5.344 -1.2500 -0.2693 -0.0825
17845TIP3    H275027   4.707   2.128   5.193 -0.0010  0.0768  0.0037
17846TIP3   OH275028   4.302   4.826   1.528 -0.3839 -0.2881  0.1972
17846TIP3    H175029   4.350   4.750   1.493  1.3341  1.2634 -1.0181
17846TIP3    H275030   4.314   4.894   1.462 -0.5122  1.5408  1.9764
17847TIP3   OH275031   1.999   0.458  14.401  0.0048 -0.1934 -0.6431
17847TIP3    H175032   2.040   0.375  14.427  0.4786  0.3528  0.4077
17847TIP3    H275033   1.905   0.440  14.403  0.0639 -0.4401  0.5682
17848TIP3   OH275034   2.630   4.631  10.218  0.3455 -0.6681  0.1013
17848TIP3    H175035   2.703   4.575  10.247  1.5932  0.4526 -0.7612
17848TIP3    H275036   2.653   4.719  10.249 -1.6196 -0.5603  1.4967
17849TIP3   OH275037   5.979   2.782  13.754  0.1309 -0.2887 -0.3459
17849TIP3    H175038   6.038   2.857  13.754  0.1740 -0.2961 -1.7033
17849TIP3    H275039   5.981   2.750  13.844 -0.2549  1.6049  0.3884
17850TIP3   OH275040   4.870   3.421  14.744  0.4958 -0.3734 -0.3517
17850TIP3    H175041   4.832   3.505  14.771 -0.2316 -1.2325  1.4893
17850TIP3    H275042   4.952   3.444  14.702 -0.4798  1.3556 -1.4453
17851TIP3   OH275043   4.190   3.834  14.840 -0.0994 -0.0260  0.0460
17851TIP3    H175044   4.124   3.793  14.896 -1.0403 -0.0260 -1.0458
17851TIP3    H275045   4.245   3.884  14.901 -0.4661 -0.8620  1.0842
17852TIP3   OH275046   1.884   0.564   2.988 -0.1162 -0.2479  0.3381
17852TIP3    H175047   1.858   0.530   2.903  1.8999 -0.3087 -0.3065
17852TIP3    H275048   1.972   0.529   3.002  0.1184  0.8390  1.8562
17853TIP3   OH275049   3.948   4.674   1.247  0.2686  0.2314 -0.5119
17853TIP3    H175050   3.886   4.747   1.244  0.5709  0.5401  0.3830
17853TIP3    H275051   3.893   4.598   1.267  0.1986  0.5703  0.7025
17854TIP3   OH275052   3.322   5.474  15.843  0.2544  0.2990  0.5441
17854TIP3    H175053   3.249   5.498  15.786  0.4185  0.5346  0.4283
17854TIP3    H275054   3.308   5.523  15.923 -0.6613 -0.9876  1.2105
17855TIP3   OH275055   5.578   1.963  12.784 -0.0680 -0.7639 -0.3955
17855TIP3    H175056   5.655   1.932  12.737 -0.8379 -1.1030 -1.4868
17855TIP3    H275057   5.523   1.884  12.793 -1.3816 -0.0892 -1.8757
17856TIP3   OH275058   6.699   3.131   5.837 -0.0059  0.3555 -0.4378
17856TIP3    H175059   6.765   3.195   5.811  0.9331  0.0083  0.9878
17856TIP3    H275060   6.655   3.171   5.912  2.4392 -1.6872  2.2795
17857TIP3   OH275061   5.388   5.142  15.146  0.1584 -0.4159 -0.1842
17857TIP3    H175062   5.318   5.100  15.195 -2.0349  0.9936 -1.9326
17857TIP3    H275063   5.347   5.219  15.106  2.1260 -0.6794 -3.0331
17858TIP3   OH275064   0.417   4.824  15.817  0.1110  0.1624 -0.0377
17858TIP3    H175065   0.415   4.877  15.737 -1.8165 -0.5676 -0.5265
17858TIP3    H275066   0.503   4.841  15.854  0.8060  1.0640 -1.9027
17859TIP3   OH275067   3.740   0.418  12.202 -0.2642 -0.6222 -0.0554
17859TIP3    H175068   3.809   0.483  12.215 -0.9302  0.2728 -0.8240
17859TIP3    H275069   3.733   0.372  12.286  1.2070 -0.6948  0.0554
17860TIP3   OH275070   1.901   1.071  14.506  0.1214  0.1952  0.1598
17860TIP3    H175071   1.827   1.034  14.556  1.1950 -0.8823  1.0065
17860TIP3    H275072   1.972   1.076  14.570  0.8946  0.8647 -0.7434
17861TIP3   OH275073   6.533   1.664   2.230  0.1787 -0.4374  0.1802
17861TIP3    H175074   6.452   1.713   2.221  0.0048 -0.6855  0.3754
17861TIP3    H275075   6.602   1.729   2.219 -0.0473 -0.1983  0.1719
17862TIP3   OH275076   4.689   1.641   5.887 -0.8017 -0.8285 -0.0144
17862TIP3    H175077   4.657   1.726   5.918 -0.0560 -0.4931 -0.1436
17862TIP3    H275078   4.610   1.597   5.855 -1.1653 -0.0732 -0.2111
17863TIP3   OH275079   5.061   1.734   3.236  0.3463  0.1040  0.0074
17863TIP3    H175080   5.031   1.660   3.289  1.2436  0.7600  1.5044
17863TIP3    H275081   5.129   1.698   3.180 -0.7652 -0.6480 -0.9181
17864TIP3   OH275082   6.077   0.919   2.740  0.1545  0.3254 -0.5685
17864TIP3    H175083   6.034   0.840   2.706 -0.0849 -0.8190  2.1967
17864TIP3    H275084   6.170   0.907   2.718  0.4089 -1.6322  1.2787
17865TIP3   OH275085   5.625   2.715  14.606 -0.3565  0.3684 -0.1209
17865TIP3    H175086   5.598   2.729  14.515  1.3062  0.3751 -0.6487
17865TIP3    H275087   5.677   2.635  14.603 -0.6634  0.1167  0.9263
17866TIP3   OH275088   3.618   3.718   1.053  0.0956 -0.5976 -0.1935
17866TIP3    H175089   3.692   3.739   0.996  2.3348 -1.9999  1.9977
17866TIP3    H275090   3.577   3.642   1.012 -0.5834  0.5711 -1.7625
17867TIP3   OH275091   3.497   2.043  11.729 -0.0036 -0.1199  0.2491
17867TIP3    H175092   3.440   2.015  11.657  0.0408 -1.6414  0.7739
17867TIP3    H275093   3.443   2.102  11.781 -0.0479  0.9812 -0.9817
17868TIP3   OH275094   6.452   4.455  13.015  0.4807  0.1386 -0.0799
17868TIP3    H175095   6.506   4.403  12.955  1.3473  0.6008  0.2750
17868TIP3    H275096   6.506   4.462  13.095 -0.1346  0.5599  0.3056
17869TIP3   OH275097   5.766   6.755   1.247  0.0108 -0.0828  0.2856
17869TIP3    H175098   5.833   6.744   1.314  0.6293 -0.7336 -0.4079
17869TIP3    H275099   5.813   6.793   1.173 -0.2475 -1.0144 -0.3823
17870TIP3   OH275100   3.517   2.295   0.502 -0.2124 -0.2589  0.6293
17870TIP3    H175101   3.450   2.239   0.464 -0.4369  0.3616  0.1003
17870TIP3    H275102   3.598   2.269   0.458 -0.6862  1.4521 -1.4420
17871TIP3   OH275103   6.429   0.535   5.770  0.2021  0.1737  0.3634
17871TIP3    H175104   6.483   0.611   5.787  0.3235  0.5315 -1.4441
17871TIP3    H275105   6.370   0.530   5.845  0.2455  1.9900  0.5574
17872TIP3   OH275106   6.824   2.921   1.626 -0.0643 -0.0475  0.1635
17872TIP3    H175107   6.790   2.996   1.675 -0.2137  0.2981 -0.4689
17872TIP3    H275108   6.765   2.849   1.649 -0.0470  0.0738  0.6044
17873TIP3   OH275109   6.276   4.171  12.744  0.1351  0.3991 -0.0135
17873TIP3    H175110   6.186   4.182  12.777 -0.8556  0.4724 -2.5151
17873TIP3    H275111   6.297   4.255  12.705  0.7513 -0.0569 -0.6776
17874TIP3   OH275112   3.937   3.976   0.706 -0.0083  0.5805  0.0909
17874TIP3    H175113   4.030   3.957   0.698  0.2238  1.0684  1.4273
17874TIP3    H275114   3.895   3.914   0.646  1.1821  0.5713 -0.7761
17875TIP3   OH275115   4.800   5.476   5.401  0.1287  0.5478  0.0763
17875TIP3    H175116   4.713   5.494   5.435 -0.0057  1.0618 -0.5178
17875TIP3    H275117   4.795   5.499   5.308  0.3863 -1.1869 -0.3973
17876TIP3   OH275118   2.582   4.588   1.114 -0.3131  0.1203  0.2214
17876TIP3    H175119   2.608   4.646   1.185  2.2802 -0.8890  0.2024
17876TIP3    H275120   2.531   4.519   1.157  0.6782 -0.1271  1.0455
17877TIP3   OH275121   1.326   0.772   3.454  0.2691  0.2846  0.8359
17877TIP3    H175122   1.274   0.744   3.529  1.5860  0.2127  1.7465
17877TIP3    H275123   1.313   0.703   3.389 -0.3655  0.0191  1.2340
17878TIP3   OH275124   1.108   4.453  13.873 -0.3586 -0.1715  0.1493
17878TIP3    H175125   1.102   4.471  13.779 -0.9599 -0.2114  0.1735
17878TIP3    H275126   1.153   4.529  13.909 -0.0220 -0.2094 -0.1854
17879TIP3   OH275127   6.568   1.673   4.871  0.2278 -0.5593 -0.3135
17879TIP3    H175128   6.615   1.657   4.789  1.6184 -1.8141  0.6898
17879TIP3    H275129   6.637   1.692   4.935 -0.9143  2.4277  0.2057
17880TIP3   OH275130   2.910   1.966   3.865 -0.1937  0.1361 -0.2894
17880TIP3    H175131   2.842   2.034   3.870  0.4654  0.8828 -1.2070
17880TIP3    H275132   2.921   1.937   3.955 -0.3786  1.3630  0.1480
17881TIP3   OH275133   3.086   4.932  16.169 -0.5766 -0.6276  0.7333
17881TIP3    H175134   3.153   4.945  16.236 -0.2270  0.8300  0.1458
17881TIP3    H275135   3.127   4.963  16.088 -2.5521  2.2015  0.6669
17882TIP3   OH275136   0.916   1.402  11.441 -0.4617 -0.0825  0.3779
17882TIP3    H175137   1.011   1.415  11.436 -0.0422 -1.2374  3.4000
17882TIP3    H275138   0.888   1.457  11.514 -1.5252 -2.1276  1.6059
17883TIP3   OH275139   2.241   2.083  16.426 -0.6658 -0.7166  0.2101
17883TIP3    H175140   2.305   2.099  16.495  1.2131 -3.7935 -0.6251
17883TIP3    H275141   2.261   2.147  16.358  1.0499 -1.1153  0.3099
17884TIP3   OH275142   2.709   0.653   4.883  0.2175  0.3498 -0.1951
17884TIP3    H175143   2.690   0.560   4.894  1.9170 -0.0888 -0.6419
17884TIP3    H275144   2.688   0.692   4.968  0.5835 -0.6415  0.3731
17885TIP3   OH275145   5.529   2.953   4.621  0.3921  0.1767 -0.3748
17885TIP3    H175146   5.623   2.961   4.604  1.1341 -0.1072  2.9727
17885TIP3    H275147   5.488   3.006   4.552  3.1419  2.4243 -0.4735
17886TIP3   OH275148   0.789   4.607   4.989 -0.4721 -0.0255 -0.2583
17886TIP3    H175149   0.877   4.628   4.956 -0.5997 -1.3620 -1.5567
17886TIP3    H275150   0.742   4.575   4.913 -1.3160 -1.6494  0.8870
17887TIP3   OH275151   4.868   4.821   5.160 -0.2677  0.1050 -0.1198
17887TIP3    H175152   4.845   4.889   5.223 -1.9615  1.6350 -2.2243
17887TIP3    H275153   4.804   4.751   5.176 -1.2632  0.8657 -0.6792
17888TIP3   OH275154   6.503   1.472   3.127  0.0772 -0.6435  0.7496
17888TIP3    H175155   6.530   1.554   3.086  1.0518 -0.8009  1.0451
17888TIP3    H275156   6.409   1.468   3.113  0.4122 -0.8548 -1.7602
17889TIP3   OH275157   3.118   0.692  10.164  0.2958 -0.4006 -0.5910
17889TIP3    H175158   3.079   0.768  10.208  0.7098 -0.4829 -0.0721
17889TIP3    H275159   3.207   0.721  10.141  0.9886 -1.2076  0.9489
17890TIP3   OH275160   3.926   6.661   1.517  0.2959  0.0415  0.2939
17890TIP3    H175161   3.980   6.704   1.583 -0.7970  1.4456  0.3253
17890TIP3    H275162   3.970   6.679   1.434  0.7786 -0.2915  0.4752
17891TIP3   OH275163   6.525   0.087  16.430 -0.9364  0.3456  0.9348
17891TIP3    H175164   6.436   0.122  16.438 -0.8007  0.8463  0.3714
17891TIP3    H275165   6.573   0.128  16.503 -1.2341 -0.1660  1.4242
17892TIP3   OH275166   5.899   3.083   2.302  0.0612 -0.2626 -0.3211
17892TIP3    H175167   5.804   3.088   2.290  0.0301 -1.1635 -0.5511
17892TIP3    H275168   5.910   3.074   2.397  0.0417  1.8064 -0.0767
17893TIP3   OH275169   3.584   3.263   1.082 -0.2986 -0.1132  0.4453
17893TIP3    H175170   3.679   3.253   1.086 -0.1685  0.2799 -1.0171
17893TIP3    H275171   3.553   3.176   1.055 -0.2749 -0.0362  0.1622
17894TIP3   OH275172   6.643   5.295  16.576 -0.4454  0.3304 -0.2537
17894TIP3    H175173   6.705   5.233  16.615 -0.7649 -0.4224 -0.8991
17894TIP3    H275174   6.683   5.381  16.589  0.7001 -0.1363 -0.5894
17895TIP3   OH275175   1.163   1.454   3.779 -0.1180  0.0125 -0.3758
17895TIP3    H175176   1.195   1.503   3.855  0.4844  0.9714 -1.2263
17895TIP3    H275177   1.238   1.403   3.750 -0.5925 -1.0336  0.1786
17896TIP3   OH275178   5.133   4.796  15.004 -0.0376  0.3492 -0.3306
17896TIP3    H175179   5.164   4.757  14.922 -2.5131  0.3494 -1.3577
17896TIP3    H275180   5.118   4.888  14.981  0.0449  0.5378  0.3721
17897TIP3   OH275181   5.438   2.018  15.178 -0.1443 -0.6594 -0.2014
17897TIP3    H175182   5.433   2.098  15.126  2.2914  0.2610  0.8172
17897TIP3    H275183   5.364   1.965  15.149 -0.7914  1.2076 -2.1703
17898TIP3   OH275184   4.629   4.681   5.173  0.0707  0.4906  0.3547
17898TIP3    H175185   4.597   4.601   5.216 -2.3859 -0.0763 -2.2189
17898TIP3    H275186   4.580   4.752   5.214 -1.3337  0.0894 -0.5498
17899TIP3   OH275187   2.299   4.833   4.524 -0.8014 -0.3706  0.2040
17899TIP3    H175188   2.338   4.916   4.495  1.9624 -2.0450 -1.3917
17899TIP3    H275189   2.322   4.827   4.617  1.7055 -0.6121 -0.3528
17900TIP3   OH275190   3.306   4.070  15.691  0.5923 -0.2139  0.5768
17900TIP3    H175191   3.283   4.121  15.769  1.4538  1.1452 -0.0391
17900TIP3    H275192   3.248   4.104  15.623 -0.5201 -1.7541  0.7053
17901TIP3   OH275193   3.415   3.116   0.276  0.4700  0.2235  0.3607
17901TIP3    H175194   3.465   3.172   0.216 -1.9510 -0.6864 -2.8301
17901TIP3    H275195   3.472   3.042   0.293  1.4843  0.8191 -0.3405
17902TIP3   OH275196   3.183   5.095  15.913  0.1454 -0.5040 -0.7740
17902TIP3    H175197   3.240   5.018  15.914 -0.3117 -0.9249  1.9296
17902TIP3    H275198   3.243   5.169  15.918  0.5340 -0.7735 -1.3559
17903TIP3   OH275199   5.585   0.051   5.813  0.5365 -0.2232 -0.5619
17903TIP3    H175200   5.589   0.001   5.894 -0.4714  1.2890  0.4871
17903TIP3    H275201   5.493   0.047   5.787  0.8863 -0.8514 -1.7628
17904TIP3   OH275202   3.256   1.244   2.125  0.0614 -0.3528  0.2614
17904TIP3    H175203   3.182   1.223   2.068 -0.1503  0.7341  0.0994
17904TIP3    H275204   3.322   1.178   2.104 -0.8351 -1.3227  0.3906
17905TIP3   OH275205   1.554   5.975  13.858 -0.2552  0.2698 -0.0667
17905TIP3    H175206   1.592   6.036  13.921  0.5292 -1.1633  0.8917
17905TIP3    H275207   1.583   5.889  13.887 -2.4878 -0.7202 -0.5254
17906TIP3   OH275208   3.653   1.197  13.753 -0.0192  0.2576 -0.3692
17906TIP3    H175209   3.714   1.257  13.796  1.5794 -1.1386 -0.6103
17906TIP3    H275210   3.595   1.167  13.824 -0.1787  1.2572 -0.0564
17907TIP3   OH275211   6.023   0.897  13.486  0.2359 -0.3964 -0.1182
17907TIP3    H175212   6.100   0.912  13.541  0.8565 -1.0359 -0.7926
17907TIP3    H275213   6.057   0.855  13.407 -1.2034 -4.2933  1.1221
17908TIP3   OH275214   0.862   1.223   2.869  0.0958 -0.2984  0.1188
17908TIP3    H175215   0.923   1.282   2.915 -2.3035  1.6839  0.9641
17908TIP3    H275216   0.859   1.145   2.924 -1.2914  1.2932  2.4497
17909TIP3   OH275217   2.944   0.655  10.854  0.3083 -0.0519  0.1272
17909TIP3    H175218   2.962   0.620  10.767  0.6498 -1.4538  0.7486
17909TIP3    H275219   2.904   0.741  10.836  1.7450  0.3692 -1.3811
17910TIP3   OH275220   1.010   1.091   5.385  0.1633 -0.0418 -0.4718
17910TIP3    H175221   0.995   1.060   5.295 -0.4928  0.4764 -0.5478
17910TIP3    H275222   0.959   1.031   5.439  0.9349 -0.6478 -0.3893
17911TIP3   OH275223   0.702   4.897   3.332  0.8136 -0.0668  0.0478
17911TIP3    H175224   0.719   4.952   3.256  2.8277  0.3494  0.7477
17911TIP3    H275225   0.699   4.808   3.296  1.0606  0.1770 -0.5992
17912TIP3   OH275226   3.756   2.485  11.659  0.2649 -0.0892  0.0636
17912TIP3    H175227   3.785   2.394  11.672 -0.1399 -0.3249 -0.6418
17912TIP3    H275228   3.690   2.499  11.726  1.5966  0.2861  1.3632
17913TIP3   OH275229   4.707   3.531   1.584  0.1200 -0.1053  0.3620
17913TIP3    H175230   4.710   3.618   1.544 -2.8678  0.2122  0.6133
17913TIP3    H275231   4.743   3.544   1.672 -1.3717  1.1960  0.8196
17914TIP3   OH275232   1.141   4.682  16.615 -0.5045  0.0954  0.1646
17914TIP3    H175233   1.082   4.670  16.689  0.6173  2.6803  1.6214
17914TIP3    H275234   1.224   4.711  16.655  1.0884 -1.2604 -1.9371
17915TIP3   OH275235   1.014   6.748  14.221 -0.0440 -0.4098 -0.5714
17915TIP3    H175236   0.994   6.683  14.153 -0.5050 -1.7285  0.7739
17915TIP3    H275237   1.052   6.698  14.292  1.4815  1.1066 -0.2531
17916TIP3   OH275238   1.077   5.145  11.851 -0.0180 -0.6010 -0.1049
17916TIP3    H175239   1.004   5.129  11.911 -1.2391  1.2965 -0.9989
17916TIP3    H275240   1.070   5.076  11.786 -0.8695 -0.5836 -0.0406
17917TIP3   OH275241   6.376   3.971   1.077 -0.9017 -0.5466  0.2153
17917TIP3    H175242   6.435   3.973   1.002 -0.1859 -0.4589  0.7567
17917TIP3    H275243   6.342   3.881   1.079  0.6054 -1.1440  0.9074
17918TIP3   OH275244   4.487   5.640  12.799  0.1636  0.1258 -0.1870
17918TIP3    H175245   4.432   5.704  12.845  0.3408 -1.0787  1.8009
17918TIP3    H275246   4.493   5.675  12.710  1.2488  3.5122  1.0480
17919TIP3   OH275247   5.039   1.104   5.010  0.2405 -0.4426  0.1988
17919TIP3    H175248   5.064   1.160   4.937 -0.5809 -1.2484 -0.7164
17919TIP3    H275249   5.070   1.017   4.986 -1.6584 -1.0869 -0.0751
17920TIP3   OH275250   6.545   6.437  13.701  0.1321  0.0073  0.1886
17920TIP3    H175251   6.481   6.382  13.656  0.9993  0.7242 -2.0591
17920TIP3    H275252   6.629   6.395  13.687  0.4653  0.3580  1.0202
17921TIP3   OH275253   1.703   0.353   2.484 -0.0362 -0.4676 -0.3380
17921TIP3    H175254   1.667   0.297   2.553  0.7593 -0.6440 -0.0555
17921TIP3    H275255   1.632   0.414   2.463 -0.4955 -0.8044  0.2054
17922TIP3   OH275256   4.814   0.563   5.705  1.0071 -0.1307 -0.0031
17922TIP3    H175257   4.857   0.646   5.687  0.3637  0.5838  1.5352
17922TIP3    H275258   4.777   0.536   5.621 -0.2401  2.0170 -0.2223
17923TIP3   OH275259   0.665   4.736   2.659  0.0658 -0.4154  0.2176
17923TIP3    H175260   0.634   4.768   2.744  0.0356  1.0317 -0.3171
17923TIP3    H275261   0.589   4.694   2.620 -0.2252 -0.1147  0.4530
17924TIP3   OH275262   0.315   1.818  14.697  0.2893 -0.8024 -0.1823
17924TIP3    H175263   0.294   1.780  14.612  0.0513  0.3886 -0.6824
17924TIP3    H275264   0.237   1.866  14.722  0.6761 -0.3977  0.2838
17925TIP3   OH275265   4.817   6.410  13.654 -0.7547  0.0719 -0.3336
17925TIP3    H175266   4.844   6.418  13.745 -0.5172 -0.8672 -0.3107
17925TIP3    H275267   4.745   6.347  13.656 -2.8169  2.2517 -0.4324
17926TIP3   OH275268   0.248   6.123   3.097 -0.3603  0.2889  0.2683
17926TIP3    H175269   0.271   6.189   3.031  1.0493  1.3243  1.7282
17926TIP3    H275270   0.316   6.131   3.164 -0.9137 -1.7522  1.1496
17927TIP3   OH275271   4.984   6.612   2.307 -0.5859  0.4045  0.1412
17927TIP3    H175272   4.972   6.702   2.338  0.1296  1.0203 -1.3031
17927TIP3    H275273   5.073   6.589   2.334 -0.7549  0.1295  0.4756
17928TIP3   OH275274   5.206   5.436   1.431  0.4189  0.6089  0.0478
17928TIP3    H175275   5.124   5.480   1.452 -1.0184 -2.1744  0.8286
17928TIP3    H275276   5.181   5.365   1.372  2.2681 -0.2250  0.1882
17929TIP3   OH275277   6.364   3.459   1.320 -0.4277  0.2074 -0.1872
17929TIP3    H175278   6.416   3.416   1.252  1.5175  0.7957  0.8564
17929TIP3    H275279   6.295   3.397   1.341  1.4541 -1.8371  0.2862
17930TIP3   OH275280   1.998   2.939  13.240 -0.3761 -0.0410 -0.4008
17930TIP3    H175281   1.934   2.871  13.258  1.0342 -1.7485 -1.5490
17930TIP3    H275282   1.973   3.011  13.298 -2.4652 -1.1598  0.1828
17931TIP3   OH275283   6.263   5.452   0.121  0.2670  0.2584  0.4377
17931TIP3    H175284   6.356   5.467   0.102  0.0959  2.0573  0.7654
17931TIP3    H275285   6.247   5.499   0.203 -1.2442  1.3765 -0.4213
17932TIP3   OH275286   1.703   6.776  13.599  0.1741 -0.5011  0.3343
17932TIP3    H175287   1.620   6.736  13.571  0.4364 -0.7374 -0.1025
17932TIP3    H275288   1.719   6.845  13.535  0.4448 -0.6189  0.2760
17933TIP3   OH275289   2.317   5.122   5.456  0.2118 -0.1784  0.4329
17933TIP3    H175290   2.290   5.032   5.436 -0.9670  0.2885 -0.2103
17933TIP3    H275291   2.406   5.129   5.419 -0.0729 -0.7907 -0.4074
17934TIP3   OH275292   1.841   2.101  11.405  0.2444  0.3322  0.5334
17934TIP3    H175293   1.860   2.154  11.482  0.3983  1.2390 -0.1124
17934TIP3    H275294   1.747   2.084  11.411 -0.4994  3.2854 -0.7847
17935TIP3   OH275295   5.405   0.446   5.135  0.0275  0.2281 -0.7223
17935TIP3    H175296   5.497   0.463   5.154  0.1326 -1.0714  0.0509
17935TIP3    H275297   5.407   0.383   5.062 -0.0974 -2.4172  1.4044
17936TIP3   OH275298   3.812   5.379  16.259  0.3120 -0.1248  0.2274
17936TIP3    H175299   3.759   5.436  16.315 -0.3922 -1.8079  1.3650
17936TIP3    H275300   3.793   5.408  16.170 -3.2156 -1.1647  0.5020
17937TIP3   OH275301   0.719   4.936  13.117 -0.4605  0.0337  0.2198
17937TIP3    H175302   0.773   4.981  13.051  0.1159  1.9538  1.8754
17937TIP3    H275303   0.727   4.843  13.096  2.3051  0.3472 -0.5466
17938TIP3   OH275304   2.339   0.127  15.323 -0.4153  0.4855 -0.3537
17938TIP3    H175305   2.252   0.158  15.297 -1.0453 -0.0525  1.0184
17938TIP3    H275306   2.382   0.204  15.359 -1.2732  0.2487  1.2763
17939TIP3   OH275307   2.729   5.309   3.047 -0.0562 -0.5513 -0.1765
17939TIP3    H175308   2.670   5.323   3.121  0.9709  0.7351  0.4467
17939TIP3    H275309   2.798   5.253   3.083  0.6691  0.4243 -0.0147
17940TIP3   OH275310   5.710   1.909   0.821  0.2856  0.4758 -0.0124
17940TIP3    H175311   5.671   1.914   0.908  1.0777  0.6464  0.3402
17940TIP3    H275312   5.682   1.824   0.787 -1.8960  1.3290 -0.5210
17941TIP3   OH275313   2.781   5.569   4.220  0.3851 -0.4306  0.8105
17941TIP3    H175314   2.767   5.491   4.273  0.5636 -2.8438 -2.4469
17941TIP3    H275315   2.842   5.542   4.152  0.0432  2.4319 -0.7918
17942TIP3   OH275316   5.697   2.948   2.006 -0.4134 -0.0800 -0.0980
17942TIP3    H175317   5.675   3.033   1.966  0.3446  0.7879  1.2696
17942TIP3    H275318   5.781   2.925   1.968 -1.3932 -1.1182 -1.7852
17943TIP3   OH275319   3.153   4.839  12.911  0.0515  0.0152  0.0889
17943TIP3    H175320   3.160   4.831  13.006  1.9698  1.5268  0.1399
17943TIP3    H275321   3.130   4.931  12.897  0.5934  0.0137 -0.9194
17944TIP3   OH275322   5.212   1.503  14.201 -0.0734 -0.1000  0.5291
17944TIP3    H175323   5.265   1.423  14.210 -0.5402 -0.4865 -0.0512
17944TIP3    H275324   5.181   1.522  14.289  0.1030 -0.5140  0.6839
17945TIP3   OH275325   4.625   0.712   2.246  0.3532  0.1602  0.2735
17945TIP3    H175326   4.630   0.666   2.163  1.7900 -0.2865  0.5880
17945TIP3    H275327   4.716   0.735   2.267 -0.2412  2.8284  0.3102
17946TIP3   OH275328   0.085   3.643   3.439 -0.5467  0.3139 -0.1896
17946TIP3    H175329   0.154   3.706   3.419  1.9086 -1.8636  0.9336
17946TIP3    H275330   0.077   3.590   3.360  1.0723 -1.0971  0.5157
17947TIP3   OH275331   5.701   4.291   4.632  0.2960  0.6687 -0.1728
17947TIP3    H175332   5.793   4.287   4.656  0.2382  1.4009  0.2063
17947TIP3    H275333   5.695   4.369   4.576  0.2789 -0.5244 -1.9081
17948TIP3   OH275334   5.704   1.070  15.107 -0.1109 -0.0463  0.1509
17948TIP3    H175335   5.753   1.131  15.163 -0.5488  1.6437 -1.2209
17948TIP3    H275336   5.620   1.059  15.151 -0.3060  0.9535  0.0510
17949TIP3   OH275337   0.056   6.203   2.013  0.0619 -0.6627  0.6825
17949TIP3    H175338   0.061   6.294   2.044 -0.8619 -0.3287 -0.1257
17949TIP3    H275339   0.131   6.194   1.955 -1.6765  0.6701 -1.9427
17950TIP3   OH275340   1.325   0.087  16.962  0.6379 -0.6787 -0.2181
17950TIP3    H175341   1.231   0.069  16.957  0.6367 -1.0068  0.7385
17950TIP3    H275342   1.360   0.015  17.014  1.2646 -0.0733  0.2220
17951TIP3   OH275343   0.796   3.153   1.046 -0.2762 -0.4598  0.0578
17951TIP3    H175344   0.823   3.161   1.138 -0.7346  0.2589  0.1361
17951TIP3    H275345   0.843   3.223   1.001  0.4702 -1.2327 -0.3857
17952TIP3   OH275346   6.561   5.725  14.955 -0.2933  0.1067  0.3396
17952TIP3    H175347   6.515   5.737  15.038 -0.8548 -0.5935  0.1382
17952TIP3    H275348   6.559   5.630  14.939  3.2262 -0.3117  1.4500
17953TIP3   OH275349   0.136   4.985   1.945 -0.4294 -0.1431 -0.5101
17953TIP3    H175350   0.057   4.933   1.928 -1.3647  1.0464 -0.0154
17953TIP3    H275351   0.117   5.029   2.028  0.4288  0.7974 -0.7988
17954TIP3   OH275352   1.783   2.751  14.550 -0.1326  0.1334 -0.3522
17954TIP3    H175353   1.878   2.761  14.537 -0.3142  0.7483 -1.3346
17954TIP3    H275354   1.773   2.669  14.598  0.8065 -0.7200 -1.5676
17955TIP3   OH275355   0.564   3.370  13.820 -0.0790 -0.5202  0.1534
17955TIP3    H175356   0.548   3.413  13.904 -1.7564  2.0176 -1.3050
17955TIP3    H275357   0.620   3.431  13.772 -0.5384 -1.0924 -1.1626
17956TIP3   OH275358   5.415   4.368   4.131  0.2679  0.5609 -0.4198
17956TIP3    H175359   5.358   4.332   4.199 -0.5411  0.7602 -0.9734
17956TIP3    H275360   5.469   4.433   4.176 -0.6120  1.0525 -0.0553
17957TIP3   OH275361   4.560   0.946  11.853  0.3294  0.6706 -0.1785
17957TIP3    H175362   4.574   0.866  11.803 -0.0698 -0.9583  2.1574
17957TIP3    H275363   4.642   0.994  11.844  0.4031  0.2675 -2.0094
17958TIP3   OH275364   0.089   5.232  11.415  0.0373 -0.6899  0.0762
17958TIP3    H175365   0.046   5.253  11.332 -1.6073  0.2326  1.1035
17958TIP3    H275366   0.117   5.141  11.405 -0.0268 -0.5651 -1.5114
17959TIP3   OH275367   0.806   3.533   3.271  0.4319 -0.1107  0.5012
17959TIP3    H175368   0.769   3.444   3.270  0.3345 -0.0709 -0.2792
17959TIP3    H275369   0.782   3.569   3.186  0.6672  0.5898  0.7268
17960TIP3   OH275370   5.060   5.042  14.919  0.2525  0.0478  0.1191
17960TIP3    H175371   4.975   5.070  14.953  0.6716  1.0354  0.3806
17960TIP3    H275372   5.062   5.074  14.829  0.3456  0.0068  0.1070
17961TIP3   OH275373   4.257   0.558  16.158  0.2288  0.9488 -0.2141
17961TIP3    H175374   4.311   0.633  16.185 -0.8413  1.5440  0.3178
17961TIP3    H275375   4.300   0.526  16.078 -0.0505  3.0075 -1.2691
17962TIP3   OH275376   0.567   0.937  11.487  0.4154  0.5852 -0.2647
17962TIP3    H175377   0.512   0.933  11.565 -1.6447  0.2837 -1.6606
17962TIP3    H275378   0.551   1.024  11.451 -0.0938  0.0747 -1.3153
17963TIP3   OH275379   5.196   0.849   4.877  0.0340  0.1968 -0.2813
17963TIP3    H175380   5.116   0.812   4.837 -1.1302 -0.3248  2.3462
17963TIP3    H275381   5.237   0.775   4.921  2.4792  0.2942 -2.1937
17964TIP3   OH275382   3.368   0.863   0.523  0.3961 -0.3667 -0.1465
17964TIP3    H175383   3.452   0.893   0.557  0.9371 -2.6433  0.6755
17964TIP3    H275384   3.389   0.820   0.440  0.0771 -1.0634  0.1258
17965TIP3   OH275385   1.319   3.109   4.372  0.2411  0.2913  0.1975
17965TIP3    H175386   1.387   3.072   4.315 -1.0629 -1.0869 -0.5139
17965TIP3    H275387   1.274   3.033   4.408 -2.0931  1.1374 -0.7876
17966TIP3   OH275388   3.244   6.773  11.072 -0.0791 -0.4893 -0.1261
17966TIP3    H175389   3.171   6.814  11.025 -0.9056 -2.8894 -1.0764
17966TIP3    H275390   3.203   6.708  11.129  1.2665 -3.3117 -2.1266
17967TIP3   OH275391   5.555   1.943   1.086  0.3355 -0.2006 -0.4846
17967TIP3    H175392   5.564   2.003   1.160 -1.8266  1.3173 -1.3489
17967TIP3    H275393   5.549   1.856   1.126 -0.3018  0.5312  1.0952
17968TIP3   OH275394   2.501   2.604   4.439  0.5428  0.2625 -0.2914
17968TIP3    H175395   2.578   2.553   4.464 -0.5552 -3.2518 -3.1887
17968TIP3    H275396   2.530   2.660   4.368  0.7475 -0.1761 -0.5616
17969TIP3   OH275397   4.250   3.047  15.757  0.0746 -0.3165 -0.4459
17969TIP3    H175398   4.216   3.008  15.837 -0.0402 -2.2563 -1.3747
17969TIP3    H275399   4.224   3.139  15.761 -0.0008 -0.3939  1.6733
17970TIP3   OH275400   3.424   1.922   6.082 -0.0622  0.3615  0.2694
17970TIP3    H175401   3.478   1.921   6.004 -0.8508 -1.7925 -0.3108
17970TIP3    H275402   3.423   2.014   6.110  0.3522  1.1468 -2.1358
17971TIP3   OH275403   0.580   1.202   2.893  0.0488 -0.7044  0.1517
17971TIP3    H175404   0.659   1.192   2.840  1.4320 -0.8878  2.1051
17971TIP3    H275405   0.577   1.296   2.913 -0.4603 -0.6366 -0.2291
17972TIP3   OH275406   4.425   1.438   0.664  0.1543  0.2658 -0.2171
17972TIP3    H175407   4.342   1.391   0.674 -0.0051  1.1103  3.9308
17972TIP3    H275408   4.478   1.379   0.610 -1.8227 -2.1244  0.2382
17973TIP3   OH275409   5.860   3.992  13.637  0.0249 -0.0994 -0.1088
17973TIP3    H175410   5.937   3.946  13.604  0.4391 -0.7356  1.6619
17973TIP3    H275411   5.793   3.924  13.646  0.3299 -0.2241  1.5693
17974TIP3   OH275412   1.328   5.155  12.873 -0.0998  0.3694  0.1073
17974TIP3    H175413   1.354   5.071  12.834 -3.0458  0.1745 -1.8298
17974TIP3    H275414   1.398   5.176  12.934  1.4030 -2.8609 -0.2613
17975TIP3   OH275415   5.512   6.655   2.286  0.0984 -0.4043  0.2918
17975TIP3    H175416   5.538   6.747   2.288  0.9149 -0.6391  0.9767
17975TIP3    H275417   5.570   6.612   2.349  1.2331 -1.7618 -1.5800
17976TIP3   OH275418   6.837   6.145  12.318 -0.2996  0.2472 -0.3710
17976TIP3    H175419   6.884   6.169  12.239  0.9322 -1.1142 -0.0935
17976TIP3    H275420   6.814   6.053  12.306 -0.6994  0.2044  0.5680
17977TIP3   OH275421   3.251   3.220   3.754  0.0400 -0.0819  0.1028
17977TIP3    H175422   3.346   3.234   3.755  0.1961 -0.6877 -1.6694
17977TIP3    H275423   3.237   3.149   3.817  0.5115  1.1357  1.6385
17978TIP3   OH275424   4.418   4.032  14.936 -0.3002  0.4441 -0.2018
17978TIP3    H175425   4.429   4.047  15.030 -0.2001 -2.4387  0.3436
17978TIP3    H275426   4.507   4.022  14.902 -0.2966  2.1225 -0.7918
17979TIP3   OH275427   1.482   3.187  15.969 -1.1452 -0.3811 -0.1529
17979TIP3    H175428   1.480   3.199  15.874 -0.8106 -1.0383 -0.2505
17979TIP3    H275429   1.446   3.099  15.982 -0.0366 -0.7953  0.2251
17980TIP3   OH275430   5.506   2.383  16.371  0.5335  0.1399 -0.1283
17980TIP3    H175431   5.415   2.384  16.341  0.3771 -0.4502  0.3012
17980TIP3    H275432   5.516   2.465  16.420 -0.1329 -0.3399  0.8478
17981TIP3   OH275433   3.865   2.104  15.665  0.0951  0.7285 -0.2157
17981TIP3    H175434   3.932   2.150  15.717  0.7515 -0.4058 -0.0213
17981TIP3    H275435   3.803   2.172  15.640  1.5930  1.9185 -0.8342
17982TIP3   OH275436   1.083   2.690  16.090  0.2939  0.5947 -0.1144
17982TIP3    H175437   1.044   2.692  16.178 -0.5690  2.0372 -0.4949
17982TIP3    H275438   1.037   2.619  16.045 -0.6712  1.1349 -0.0066
17983TIP3   OH275439   6.539   5.062   2.419  0.3279  0.0130 -0.2958
17983TIP3    H175440   6.507   5.118   2.348 -2.0812 -2.3645 -1.3014
17983TIP3    H275441   6.590   4.995   2.374 -2.3058 -2.2903 -0.1434
17984TIP3   OH275442   4.976   5.990  16.544  0.6294  0.3341 -0.0319
17984TIP3    H175443   4.940   5.999  16.456 -3.1745  2.9673  1.4769
17984TIP3    H275444   4.924   5.919  16.584  1.4775 -0.0298  0.4516
17985TIP3   OH275445   4.066   3.650   0.542  0.0574 -0.0486  0.2471
17985TIP3    H175446   3.981   3.693   0.557  0.0432  0.1903 -0.4750
17985TIP3    H275447   4.124   3.722   0.517  0.7665 -0.0412  1.8032
17986TIP3   OH275448   3.322   1.546  12.935 -0.3529  0.0876 -0.2395
17986TIP3    H175449   3.318   1.456  12.900  0.4028 -0.1951  0.3761
17986TIP3    H275450   3.234   1.562  12.969 -0.4442 -0.4800 -0.1980
17987TIP3   OH275451   5.635   4.381   1.894  0.0001 -0.6289 -0.0810
17987TIP3    H175452   5.604   4.340   1.975 -3.1649  2.0305  0.2399
17987TIP3    H275453   5.615   4.317   1.825 -0.3604 -1.5566  0.8612
17988TIP3   OH275454   1.495   5.028  15.623 -0.2019 -0.1701  0.4431
17988TIP3    H175455   1.469   5.012  15.533 -1.6178  0.1773  0.7701
17988TIP3    H275456   1.457   4.955  15.672 -0.9289  0.5487  0.9859
17989TIP3   OH275457   0.264   3.768  15.214 -0.1275  0.2611 -0.2192
17989TIP3    H175458   0.342   3.784  15.268  1.0728  0.6341 -1.9850
17989TIP3    H275459   0.191   3.783  15.274  1.1260  1.4310  1.1207
17990TIP3   OH275460   3.847   1.237  12.409  0.2808  0.0346  0.4586
17990TIP3    H175461   3.894   1.320  12.410  2.9432 -1.3455 -0.0344
17990TIP3    H275462   3.785   1.246  12.336 -0.8991  2.2239  1.6370
17991TIP3   OH275463   0.526   5.776  15.841 -0.2513  0.0270  0.2429
17991TIP3    H175464   0.516   5.682  15.861 -0.9367 -0.1016 -0.6462
17991TIP3    H275465   0.522   5.780  15.746  1.6690  0.7665  0.1646
17992TIP3   OH275466   6.540   3.651  14.681  0.2274  0.0971  0.7352
17992TIP3    H175467   6.544   3.747  14.684  2.2597  0.0867  0.0851
17992TIP3    H275468   6.462   3.629  14.731  0.3219  2.0449  1.8614
17993TIP3   OH275469   0.117   2.283   5.541  0.4665  0.3562  0.4455
17993TIP3    H175470   0.054   2.312   5.475  1.1575  1.9803  0.4730
17993TIP3    H275471   0.100   2.338   5.617  0.7734 -0.3899  1.0711
17994TIP3   OH275472   1.276   0.669  12.929  0.1286 -0.2626  0.0961
17994TIP3    H175473   1.346   0.700  12.871  0.3844 -0.9274  0.0420
17994TIP3    H275474   1.229   0.749  12.954  0.7571  0.1688 -0.0589
17995TIP3   OH275475   1.387   6.496  14.338 -0.5933 -0.0668 -0.6292
17995TIP3    H175476   1.371   6.509  14.245  0.1512  2.1261 -0.4954
17995TIP3    H275477   1.471   6.539  14.354 -0.2263 -1.2621  0.8831
17996TIP3   OH275478   6.561   4.052  15.305  0.3223 -0.3386 -0.3965
17996TIP3    H175479   6.535   3.984  15.367  1.4697 -0.8549 -0.4578
17996TIP3    H275480   6.491   4.117  15.310  0.6046 -0.1368  1.7896
17997TIP3   OH275481   0.908   4.905  15.885 -0.2094 -0.0067 -0.3205
17997TIP3    H175482   0.991   4.857  15.888  2.0838  3.4105 -2.2321
17997TIP3    H275483   0.883   4.904  15.793  0.1085  2.5649 -0.5056
17998TIP3   OH275484   5.120   5.625   4.300  0.0009  0.0345 -0.3811
17998TIP3    H175485   5.110   5.701   4.356  0.9343  1.0679 -1.5577
17998TIP3    H275486   5.031   5.604   4.271 -0.4378 -0.2654  1.1012
17999TIP3   OH275487   6.630   4.188  10.766 -0.6008  0.3101  0.0383
17999TIP3    H175488   6.701   4.135  10.730 -0.0424  0.4135  0.9757
17999TIP3    H275489   6.633   4.270  10.716 -0.2279  0.2118 -0.1030
18000TIP3   OH275490   5.828   4.917  16.208 -0.6182 -0.2787  0.6385
18000TIP3    H175491   5.900   4.873  16.162 -0.0940  0.3023  0.8916
18000TIP3    H275492   5.780   4.846  16.251 -1.2745 -0.8708 -0.9820
18001TIP3   OH275493   4.990   6.490  13.012 -0.0697  0.0668 -0.4536
18001TIP3    H175494   5.008   6.556  13.078  2.1382 -0.4420 -0.4906
18001TIP3    H275495   4.992   6.407  13.059  5.0044 -0.6847 -1.4832
18002TIP3   OH275496   5.442   3.594  12.885 -0.1758  0.1646  0.4463
18002TIP3    H175497   5.500   3.642  12.826  0.5579 -1.2215 -0.0086
18002TIP3    H275498   5.369   3.566  12.829  0.4950 -1.1074  0.1675
18003TIP3   OH275499   5.141   4.346   3.530 -0.1685  0.4651 -0.2351
18003TIP3    H175500   5.141   4.354   3.626  1.1478 -1.8165  0.0350
18003TIP3    H275501   5.049   4.352   3.506 -0.9427 -2.2720  1.5965
18004TIP3   OH275502   3.799   1.744   5.351 -0.3666 -0.5874 -0.3214
18004TIP3    H175503   3.864   1.780   5.411 -0.6901  1.1711 -0.9424
18004TIP3    H275504   3.843   1.744   5.266 -0.2049 -2.2262 -0.2671
18005TIP3   OH275505   0.435   5.134  14.663  0.0138  0.3160  0.3689
18005TIP3    H175506   0.409   5.116  14.753  0.8626  0.7198  0.7084
18005TIP3    H275507   0.459   5.227  14.662 -0.7742  0.5304 -0.4771
18006TIP3   OH275508   1.887   6.599   3.635 -0.4551 -0.4468  0.0341
18006TIP3    H175509   1.955   6.616   3.700  0.2087 -0.7859 -0.5565
18006TIP3    H275510   1.880   6.681   3.586 -1.4398  0.0400  0.9485
18007TIP3   OH275511   2.953   2.755   0.533  0.0173  0.0096  0.2049
18007TIP3    H175512   2.997   2.682   0.577 -2.8809 -3.3484 -1.9361
18007TIP3    H275513   2.874   2.771   0.585 -0.4487  0.1363 -0.5296
18008TIP3   OH275514   2.517   2.414  15.379 -0.1472 -0.3515  0.2804
18008TIP3    H175515   2.524   2.419  15.475  0.9458  1.2697  0.1571
18008TIP3    H275516   2.532   2.322  15.359 -1.0721 -0.8420  1.7093
18009TIP3   OH275517   6.197   4.281   2.217 -0.4065  0.2234 -0.0167
18009TIP3    H175518   6.243   4.265   2.135 -0.1083  0.3817  0.1201
18009TIP3    H275519   6.104   4.285   2.192 -0.2551  1.1000 -0.4748
18010TIP3   OH275520   2.567   3.805   5.028  0.3311 -0.2963 -0.0755
18010TIP3    H175521   2.571   3.857   5.108  0.4186  0.6000 -0.6556
18010TIP3    H275522   2.659   3.786   5.007  0.3081 -0.5349  0.0351
18011TIP3   OH275523   2.738   2.027   2.555  0.0094  0.0327 -0.1846
18011TIP3    H175524   2.683   1.966   2.507  1.2367 -2.1556  1.0615
18011TIP3    H275525   2.723   2.007   2.647  0.3701  1.7150  0.2783
18012TIP3   OH275526   2.159   5.357  11.387  0.5527  0.0240  0.5764
18012TIP3    H175527   2.120   5.383  11.304 -0.7153 -0.3936  1.0263
18012TIP3    H275528   2.086   5.350  11.448  1.4843  0.5949  1.8199
18013TIP3   OH275529   3.365   1.184   0.711  0.1005 -0.1161  0.0025
18013TIP3    H175530   3.421   1.173   0.788  2.6367 -1.0523 -1.8468
18013TIP3    H275531   3.349   1.278   0.706  0.8263  0.0777  1.0591
18014TIP3   OH275532   3.512   1.134   4.406  0.6006  0.1181  0.3277
18014TIP3    H175533   3.491   1.051   4.448  0.9566  0.3906  1.0736
18014TIP3    H275534   3.429   1.163   4.367  0.3310 -0.2949  0.5834
18015TIP3   OH275535   2.418   2.970  13.888  0.3235 -0.0411  0.3871
18015TIP3    H175536   2.501   2.983  13.842 -1.5017 -0.1935 -3.2224
18015TIP3    H275537   2.397   3.057  13.923  0.8469  0.5967 -0.8045
18016TIP3   OH275538   6.417   6.627  16.437  0.0899 -0.8211  0.3310
18016TIP3    H175539   6.494   6.590  16.392 -0.0598  1.6430 -2.2590
18016TIP3    H275540   6.454   6.675  16.511  1.4712  2.0021 -1.9830
18017TIP3   OH275541   2.476   0.811  11.398 -0.1681  0.0081  0.0986
18017TIP3    H175542   2.501   0.802  11.306 -0.3447  0.6667 -0.0200
18017TIP3    H275543   2.473   0.721  11.431  0.6742 -0.1816 -0.3278
18018TIP3   OH275544   0.662   5.830  12.425 -0.1604 -0.0442  0.4062
18018TIP3    H175545   0.755   5.830  12.403  0.0753 -2.4188  1.1390
18018TIP3    H275546   0.622   5.888  12.360  1.4351 -1.2721 -1.8118
18019TIP3   OH275547   1.353   1.743   3.371 -0.4153  0.5230  0.2922
18019TIP3    H175548   1.281   1.711   3.425 -1.6084  1.1491 -0.8411
18019TIP3    H275549   1.309   1.784   3.296  1.1640 -0.2132 -1.0830
18020TIP3   OH275550   4.939   2.738  13.887  0.1746 -0.0393  0.6053
18020TIP3    H175551   4.988   2.716  13.966 -0.3420 -2.0596  0.4342
18020TIP3    H275552   4.860   2.782  13.919  1.2425  1.6899  0.9855
18021TIP3   OH275553   3.373   4.692  11.647 -0.7054  1.3892 -0.4547
18021TIP3    H175554   3.307   4.642  11.694 -1.3289  0.8758 -1.8096
18021TIP3    H275555   3.377   4.776  11.693 -0.5969  0.5923  1.0500
18022TIP3   OH275556   1.366   3.692   4.426 -0.1918  0.0429  0.7058
18022TIP3    H175557   1.303   3.661   4.361  1.9916 -1.1359 -0.9769
18022TIP3    H275558   1.384   3.783   4.400  0.9204 -0.5244 -0.6214
18023TIP3   OH275559   3.233   4.657  15.300 -0.2655 -0.0231  0.2663
18023TIP3    H175560   3.280   4.707  15.366 -1.8085 -1.7753  2.8888
18023TIP3    H275561   3.174   4.601  15.350  0.4283 -3.5537 -2.4776
18024TIP3   OH275562   5.746   0.844   0.373  0.1239 -0.5296 -0.3199
18024TIP3    H175563   5.779   0.756   0.390  0.8181 -0.3003 -0.4234
18024TIP3    H275564   5.782   0.897   0.445  0.0346 -0.2598 -0.4715
18025TIP3   OH275565   3.355   0.604   4.113 -0.6546 -0.4703  1.0189
18025TIP3    H175566   3.444   0.586   4.081 -0.8307  0.7052 -0.2054
18025TIP3    H275567   3.298   0.565   4.047 -1.0686 -0.8649  1.5960
18026TIP3   OH275568   1.886   5.664   4.497  0.3301  0.5331 -0.3070
18026TIP3    H175569   1.946   5.664   4.571 -0.7431 -0.4671  0.6063
18026TIP3    H275570   1.912   5.588   4.444 -0.0519  0.1536  0.0405
18027TIP3   OH275571   4.802   5.517  15.682 -0.3481 -0.1666  0.1924
18027TIP3    H175572   4.880   5.471  15.712 -0.3638 -0.0750  0.3722
18027TIP3    H275573   4.746   5.524  15.760  0.1297  1.1499  0.4314
18028TIP3   OH275574   5.301   0.338  13.563  0.3362 -0.4068  0.2956
18028TIP3    H175575   5.241   0.307  13.631  1.7533 -0.6316  1.4912
18028TIP3    H275576   5.327   0.259  13.516  2.9514 -1.0349  2.5299
18029TIP3   OH275577   1.412   2.077   6.390 -0.3282 -0.2421 -0.6671
18029TIP3    H175578   1.337   2.115   6.437  0.1450  1.0344 -0.9055
18029TIP3    H275579   1.416   1.987   6.420 -1.5411 -0.1330 -0.1200
18030TIP3   OH275580   0.728   1.386   0.594 -0.3550 -0.1397  0.6462
18030TIP3    H175581   0.663   1.396   0.664  0.2228  0.7691  1.0833
18030TIP3    H275582   0.811   1.413   0.635 -0.1790  1.4780 -0.6669
18031TIP3   OH275583   2.886   4.053   2.206 -0.3169 -0.0786 -0.3991
18031TIP3    H175584   2.874   4.087   2.295  0.0247 -1.2727  0.1302
18031TIP3    H275585   2.861   3.960   2.212  1.2321 -0.5810 -1.1548
18032TIP3   OH275586   0.052   6.457   2.485 -0.1273 -0.5486  0.0067
18032TIP3    H175587  -0.038   6.482   2.504 -0.1972 -2.1652  2.1461
18032TIP3    H275588   0.104   6.532   2.513 -0.7159 -0.2150  0.2222
18033TIP3   OH275589   4.999   6.613  13.847  0.1125  0.2747 -0.2735
18033TIP3    H175590   5.081   6.564  13.843  0.8416  1.4093  0.4608
18033TIP3    H275591   4.951   6.572  13.919  0.6079  0.4608  0.1703
18034TIP3   OH275592   4.855   2.050  15.701 -0.4238  0.0695 -0.1593
18034TIP3    H175593   4.905   2.115  15.651 -0.0091  0.0913  0.2803
18034TIP3    H275594   4.885   1.966  15.668 -1.2393  0.0848 -1.0050
18035TIP3   OH275595   6.150   6.216   3.921 -0.2275  0.1826 -0.1465
18035TIP3    H175596   6.062   6.196   3.952  0.6523 -0.5710  2.0540
18035TIP3    H275597   6.146   6.309   3.898 -1.4612  0.2942  0.4003
18036TIP3   OH275598   2.136   4.493   0.233  0.0574  0.0334  0.7025
18036TIP3    H175599   2.122   4.398   0.235 -0.0776  0.0015 -0.5769
18036TIP3    H275600   2.062   4.526   0.181  1.1921  0.5817 -0.6346
18037TIP3   OH275601   3.502   3.710   5.985 -0.5238 -0.2860 -1.0245
18037TIP3    H175602   3.484   3.704   5.892  0.4107  0.4526 -1.2743
18037TIP3    H275603   3.440   3.650   6.026 -1.0666 -0.4811 -2.0998
18038TIP3   OH275604   5.040   6.686  12.041  0.0707 -0.3192  0.4279
18038TIP3    H175605   5.005   6.739  11.969 -2.3460 -1.3792  0.7175
18038TIP3    H275606   4.996   6.720  12.119  1.0282 -0.5912  1.1040
18039TIP3   OH275607   3.690   5.155  13.708 -0.2517  0.0568  0.4569
18039TIP3    H175608   3.718   5.148  13.616  0.4240 -0.7822  0.7165
18039TIP3    H275609   3.677   5.249  13.722  1.3655  0.3765 -0.0050
18040TIP3   OH275610   5.718   1.251  13.203  0.3562  0.5524 -0.0241
18040TIP3    H175611   5.638   1.200  13.213 -0.2990  1.8207  1.8670
18040TIP3    H275612   5.787   1.195  13.238 -0.1461  0.4208  0.7971
18041TIP3   OH275613   2.792   3.655  12.555 -0.5775 -0.2804 -0.3785
18041TIP3    H175614   2.773   3.569  12.594 -0.8820 -1.0084 -2.0470
18041TIP3    H275615   2.877   3.644  12.513  0.4455  0.9347  1.2379
18042TIP3   OH275616   6.039   0.653  12.107  0.2400  0.1098  0.0248
18042TIP3    H175617   6.098   0.658  12.032 -0.4444  2.0820 -0.4599
18042TIP3    H275618   6.088   0.694  12.178 -0.7378  2.5539 -0.5947
18043TIP3   OH275619   1.053   2.093   4.298 -0.4504  0.2679  0.3615
18043TIP3    H175620   1.003   2.151   4.355 -1.2941  0.3913 -0.4691
18043TIP3    H275621   1.063   2.012   4.349 -0.0039  0.8433  1.1930
18044TIP3   OH275622   5.382   2.538   0.046 -0.2716  0.2404 -0.1108
18044TIP3    H175623   5.422   2.451   0.040  1.0725  0.7383  0.8926
18044TIP3    H275624   5.367   2.551   0.140 -0.9046  0.8949 -0.2918
18045TIP3   OH275625   6.487   5.260   0.009 -0.2360 -0.1080  0.0717
18045TIP3    H175626   6.436   5.179   0.011  0.7979 -0.7812  0.3898
18045TIP3    H275627   6.502   5.281   0.102 -0.1575  0.2192 -0.0140
18046TIP3   OH275628   0.679   4.817   3.071  0.0661 -0.6494 -0.1371
18046TIP3    H175629   0.619   4.798   2.999  0.6349  1.3775 -1.2490
18046TIP3    H275630   0.675   4.913   3.080 -1.2235 -0.8727  3.6872
18047TIP3   OH275631   3.477   2.131   4.073 -0.1329  0.1158 -0.3994
18047TIP3    H175632   3.481   2.056   4.133  1.0057  0.5090  0.0416
18047TIP3    H275633   3.557   2.180   4.091 -0.4040  0.9327 -1.3561
18048TIP3   OH275634   5.894   4.082  14.249  0.2532  0.1415  0.6203
18048TIP3    H175635   5.837   4.065  14.323  0.1956  1.2664  0.8547
18048TIP3    H275636   5.838   4.072  14.172  0.2652 -0.8262  0.7249
18049TIP3   OH275637   3.655   5.872  12.475  0.5318 -0.2555  0.0163
18049TIP3    H175638   3.577   5.924  12.496  0.3996 -0.7798  0.8784
18049TIP3    H275639   3.658   5.870  12.380 -1.8398 -2.1097 -0.1190
18050TIP3   OH275640   6.243   5.326   0.897 -0.0928 -0.3753  0.1916
18050TIP3    H175641   6.279   5.244   0.865 -1.5359 -1.4425  1.1868
18050TIP3    H275642   6.304   5.393   0.865  1.6389 -1.8932  0.1492
18051TIP3   OH275643   2.490   0.584  16.493  0.1958  0.1233 -0.1681
18051TIP3    H175644   2.402   0.554  16.469  0.2908  0.6084 -1.1905
18051TIP3    H275645   2.521   0.520  16.556 -0.7142 -0.3173 -0.1559
18052TIP3   OH275646   6.355   6.515  13.877  0.0669 -0.0192  0.0897
18052TIP3    H175647   6.440   6.510  13.833 -0.4561  2.7471 -1.4187
18052TIP3    H275648   6.349   6.605  13.909 -2.3541 -0.0743 -0.0155
18053TIP3   OH275649   4.500   5.629  14.222 -0.0640  0.1189  0.2588
18053TIP3    H175650   4.453   5.668  14.295 -0.3974 -0.8873  0.6026
18053TIP3    H275651   4.580   5.594  14.261  0.7821  1.4341 -0.2461
18054TIP3   OH275652   4.011   1.575   2.994 -0.0904 -0.2629  0.4283
18054TIP3    H175653   3.991   1.574   3.088 -0.8655 -1.3982  0.2668
18054TIP3    H275654   4.102   1.605   2.990 -0.8978  2.7309  1.3341
18055TIP3   OH275655   2.641   1.749   4.267 -0.9062 -0.7553  0.0990
18055TIP3    H175656   2.673   1.837   4.247 -0.9895 -0.8200 -0.3247
18055TIP3    H275657   2.626   1.751   4.362  0.4427 -0.7615  0.3392
18056TIP3   OH275658   1.844   6.468  15.603 -0.0555 -0.3266 -0.0551
18056TIP3    H175659   1.849   6.379  15.636  0.0272 -0.2480  0.1486
18056TIP3    H275660   1.933   6.501  15.609 -0.1415 -0.1293  0.1596
18057TIP3   OH275661   6.629   0.915   1.995  0.0401  0.6526 -0.1609
18057TIP3    H175662   6.723   0.917   1.975  0.5336  0.5104  1.9107
18057TIP3    H275663   6.617   0.836   2.047 -1.1927  0.8089 -0.1812
18058TIP3   OH275664   0.698   5.225   4.294  0.1256 -1.0076  0.5378
18058TIP3    H175665   0.754   5.261   4.363  1.4993  1.7280 -1.7747
18058TIP3    H275666   0.614   5.269   4.306  1.0932  1.4277 -0.8420
18059TIP3   OH275667   4.200   2.261  16.481  0.1264  0.2308 -0.1980
18059TIP3    H175668   4.159   2.208  16.414 -0.8454  0.6736  0.0223
18059TIP3    H275669   4.129   2.317  16.515  0.4992 -0.2034  1.4105
18060TIP3   OH275670   6.479   1.560   4.521 -0.3117 -0.1104  0.0245
18060TIP3    H175671   6.424   1.637   4.534  0.0887  0.5896 -2.0851
18060TIP3    H275672   6.418   1.491   4.496 -0.6495 -0.4699  1.7281
18061TIP3   OH275673   3.234   2.894  14.772  0.2744 -0.2596  0.2417
18061TIP3    H175674   3.148   2.860  14.747  0.3352 -0.3173  0.1145
18061TIP3    H275675   3.234   2.984  14.741  1.2237 -0.9764 -2.0578
18062TIP3   OH275676   5.883   5.770   5.764  0.4932 -0.1622  0.1370
18062TIP3    H175677   5.859   5.762   5.857  1.5236 -1.6641  0.3146
18062TIP3    H275678   5.973   5.802   5.765 -0.3392  2.4525 -0.4611
18063TIP3   OH275679   5.858   4.476  13.408  0.1914 -0.3783 -0.0745
18063TIP3    H175680   5.798   4.427  13.464  0.9103 -3.0158 -1.4285
18063TIP3    H275681   5.804   4.507  13.335 -0.1243  0.1771  0.3919
18064TIP3   OH275682   6.021   5.742   6.518 -0.0083  0.0631 -0.7024
18064TIP3    H175683   5.977   5.824   6.541 -1.1584 -0.0751 -2.1942
18064TIP3    H275684   5.991   5.724   6.428  1.6019 -1.0789 -1.0516
18065TIP3   OH275685   3.521   4.321  10.652 -0.3881 -0.3108 -0.2329
18065TIP3    H175686   3.523   4.411  10.619  2.1731  0.8145  2.5946
18065TIP3    H275687   3.571   4.271  10.588 -1.7586  0.2020 -1.7842
18066TIP3   OH275688   2.985   5.756  17.090 -0.6798 -0.0484 -0.4111
18066TIP3    H175689   3.023   5.834  17.050  1.0086  0.3460  1.7533
18066TIP3    H275690   3.003   5.766  17.184 -1.3164 -2.5469  0.0609
18067TIP3   OH275691   4.132   6.749  13.847 -0.4703 -0.0102  0.5474
18067TIP3    H175692   4.155   6.659  13.869  0.0229  0.0050  0.1058
18067TIP3    H275693   4.142   6.797  13.929 -1.5665 -0.5025  0.9956
18068TIP3   OH275694   2.247   4.215  14.914 -0.0730 -0.3417 -0.0384
18068TIP3    H175695   2.234   4.277  14.986 -0.0245  0.2892 -0.5635
18068TIP3    H275696   2.198   4.138  14.940 -1.2121  0.3860  0.0427
18069TIP3   OH275697   4.988   4.838  15.265 -0.0237 -0.0202  0.8126
18069TIP3    H175698   4.923   4.773  15.289  1.3523 -2.2496 -0.9762
18069TIP3    H275699   5.020   4.809  15.179  0.2804  3.3825 -0.3818
18070TIP3   OH275700   5.800   4.016  11.075 -0.7031  0.4736  0.0043
18070TIP3    H175701   5.845   4.028  10.991  1.1317  0.5240  0.9406
18070TIP3    H275702   5.793   4.105  11.111 -2.0926  0.5378 -0.3429
18071TIP3   OH275703   6.677   5.678  12.157  0.5591  0.5467  0.5928
18071TIP3    H175704   6.624   5.678  12.237 -0.7006  1.4859 -0.2014
18071TIP3    H275705   6.628   5.624  12.096 -0.1999  2.4256 -0.5573
18072TIP3   OH275706   3.045   2.432   2.606  0.2567 -0.2658 -0.7417
18072TIP3    H175707   3.041   2.422   2.511  1.8028 -1.5577 -0.7014
18072TIP3    H275708   2.979   2.371   2.639 -0.4316  0.3357 -0.9530
18073TIP3   OH275709   6.151   3.405   4.505 -0.3158  0.1273 -0.1231
18073TIP3    H175710   6.145   3.412   4.410  1.6034  1.9258 -0.1827
18073TIP3    H275711   6.198   3.323   4.520 -0.6653 -0.1885 -0.6945
18074TIP3   OH275712   1.044   0.741   5.371  0.1156  0.7066 -0.5384
18074TIP3    H175713   1.020   0.732   5.463 -0.4045  1.8084 -0.5559
18074TIP3    H275714   0.961   0.744   5.324  0.3706  0.7026 -0.9985
18075TIP3   OH275715   3.558   1.246  15.429  0.3017 -0.0574  0.1328
18075TIP3    H175716   3.503   1.269  15.504  0.7594 -0.5055  0.6144
18075TIP3    H275717   3.542   1.315  15.365  0.3461  0.6566  0.8777
18076TIP3   OH275718   5.815   1.515   2.877 -0.2573  0.0308 -0.6269
18076TIP3    H175719   5.865   1.588   2.843  0.3764 -0.9718 -1.9305
18076TIP3    H275720   5.880   1.456   2.916 -0.7965  0.3132  0.7779
18077TIP3   OH275721   3.849   3.358   3.348  0.6805  0.6242 -0.6950
18077TIP3    H175722   3.845   3.287   3.285  2.7381 -0.1379 -0.0409
18077TIP3    H275723   3.934   3.348   3.391 -0.1868  1.7414  1.4651
18078TIP3   OH275724   6.359   1.764  11.480  0.0466  0.0844  0.5506
18078TIP3    H175725   6.412   1.813  11.418 -1.4685 -0.3454 -1.1808
18078TIP3    H275726   6.314   1.831  11.531 -1.9715  0.6395 -1.7633
18079TIP3   OH275727   5.333   6.715  15.251 -0.2222  0.5724 -0.3032
18079TIP3    H175728   5.384   6.660  15.311 -1.6759  1.4786  1.8678
18079TIP3    H275729   5.247   6.673  15.248 -0.0198  0.2321 -2.2603
18080TIP3   OH275730   3.938   2.070   4.730  0.1162 -0.1074  0.4413
18080TIP3    H175731   3.982   2.024   4.802  0.2299  1.1084  1.1827
18080TIP3    H275732   3.970   2.027   4.651  0.5033 -1.0422  1.0891
18081TIP3   OH275733   3.616   5.424  10.951 -0.1370  0.6231 -0.4850
18081TIP3    H175734   3.556   5.368  10.901  0.3168  0.3412 -0.7262
18081TIP3    H275735   3.666   5.471  10.884 -0.6950  1.5194 -0.2789
18082TIP3   OH275736   5.270   6.090  13.452 -0.3097 -0.0014 -0.2640
18082TIP3    H175737   5.264   6.147  13.528  0.0660  1.1293 -1.0620
18082TIP3    H275738   5.209   6.018  13.471 -2.6046  1.8365 -0.2131
18083TIP3   OH275739   5.445   1.222  11.832  0.5186  0.0291 -0.0185
18083TIP3    H175740   5.516   1.204  11.770  0.5352 -0.3786  0.1166
18083TIP3    H275741   5.398   1.139  11.840  0.6179  0.0309  0.6417
18084TIP3   OH275742   1.822   1.340  12.760  0.1981  0.1969 -0.3478
18084TIP3    H175743   1.853   1.424  12.727 -0.9439  0.9899  0.5186
18084TIP3    H275744   1.890   1.277  12.734  2.2544  1.7401  0.9377
18085TIP3   OH275745   2.799   1.337  16.609 -0.3800  0.1812  0.3813
18085TIP3    H175746   2.743   1.313  16.682 -1.4743  0.8269 -0.2081
18085TIP3    H275747   2.888   1.324  16.641 -0.8555 -0.8959  1.3376
18086TIP3   OH275748   2.878   2.329  15.882 -0.4612 -0.4891  0.0908
18086TIP3    H175749   2.914   2.377  15.808  1.1554 -2.8039 -0.7117
18086TIP3    H275750   2.837   2.397  15.937 -0.0418  1.5030 -1.9331
18087TIP3   OH275751   3.206   0.533  16.616  0.0130 -0.1552  0.3383
18087TIP3    H175752   3.290   0.494  16.642 -0.4968 -0.1474  2.1270
18087TIP3    H275753   3.178   0.482  16.540  1.5209 -0.3029 -0.1400
18088TIP3   OH275754   5.387   0.286  16.500  0.1156 -0.2911  0.0183
18088TIP3    H175755   5.324   0.329  16.558  0.2334  0.8228 -0.6463
18088TIP3    H275756   5.397   0.198  16.537 -1.9766 -0.5800  0.0338
18089TIP3   OH275757   6.283   3.182   4.625  0.2752  0.1212  0.1856
18089TIP3    H175758   6.373   3.199   4.596 -0.3110  1.0408 -1.2158
18089TIP3    H275759   6.286   3.194   4.720  1.5610  0.4861  0.1171
18090TIP3   OH275760   6.351   6.831   2.018 -0.4022  0.2615  0.4907
18090TIP3    H175761   6.283   6.791   2.071 -0.8819 -0.1233 -0.4094
18090TIP3    H275762   6.304   6.883   1.953  0.1677  0.1943  0.0172
18091TIP3   OH275763   1.592   4.006  14.331  0.0844 -0.3632  0.1960
18091TIP3    H175764   1.663   3.980  14.272 -0.3571  0.2883 -0.6376
18091TIP3    H275765   1.608   4.099  14.348 -0.8103 -0.0987 -0.3492
18092TIP3   OH275766   5.459   2.890   0.727 -0.2957  0.3669  0.0034
18092TIP3    H175767   5.366   2.904   0.711 -0.7737 -0.2086  1.9610
18092TIP3    H275768   5.477   2.802   0.695 -0.7100  0.0470  0.6322
18093TIP3   OH275769   6.327   2.407   5.808  0.5229  0.0631 -0.2212
18093TIP3    H175770   6.276   2.330   5.834  0.1891  0.2571 -0.2961
18093TIP3    H275771   6.323   2.465   5.884  0.6752  0.0579 -0.2092
18094TIP3   OH275772   4.334   6.001   4.382  0.6419 -0.0449  0.6305
18094TIP3    H175773   4.278   5.941   4.431 -2.6341  0.6229 -1.8946
18094TIP3    H275774   4.283   6.022   4.303  3.2545  3.0452 -0.4717
18095TIP3   OH275775   6.700   0.235  10.605  0.0260 -0.4705 -0.2506
18095TIP3    H175776   6.742   0.307  10.652  1.2970 -1.4668  0.2191
18095TIP3    H275777   6.757   0.218  10.531 -0.5484 -0.6586 -0.6596
18096TIP3   OH275778   5.180   2.607  14.530 -0.0947 -0.1013 -0.7499
18096TIP3    H175779   5.210   2.644  14.447  0.3793 -0.0226 -0.5455
18096TIP3    H275780   5.134   2.680  14.573  1.0258  0.3372 -0.2529
18097TIP3   OH275781   4.684   3.705  11.393 -0.6509 -0.6402  0.2592
18097TIP3    H175782   4.623   3.729  11.323 -1.0431  0.4178  0.9306
18097TIP3    H275783   4.642   3.630  11.436 -0.3151 -1.4229 -0.7231
18098TIP3   OH275784   3.124   0.317  16.047 -0.5248 -0.4541  0.0734
18098TIP3    H175785   3.087   0.388  15.994 -0.7266 -0.9690 -0.4837
18098TIP3    H275786   3.060   0.246  16.040 -1.1068 -0.1568  1.9039
18099TIP3   OH275787   0.998   2.922   0.926  0.4115 -0.2051 -0.3085
18099TIP3    H175788   1.063   2.852   0.919  0.2263 -0.4405  0.2792
18099TIP3    H275789   1.028   2.989   0.864 -0.1554 -1.3851 -1.9163
18100TIP3   OH275790   4.649   6.524  11.480  0.0720  0.0115  0.2957
18100TIP3    H175791   4.655   6.573  11.398 -4.1985 -0.3943 -0.5208
18100TIP3    H275792   4.640   6.590  11.548  0.2470  0.3425 -0.0039
18101TIP3   OH275793   4.198   0.370   2.954  0.1845  0.2240 -0.1956
18101TIP3    H175794   4.144   0.444   2.982 -1.4387 -0.5217 -1.2224
18101TIP3    H275795   4.243   0.403   2.875 -2.1409 -0.4396 -1.9130
18102TIP3   OH275796   5.207   6.451  14.848  0.3322  0.2021  0.1763
18102TIP3    H175797   5.234   6.483  14.934  0.0111  0.1650  0.2936
18102TIP3    H275798   5.261   6.374  14.832 -2.1675 -2.1351  2.0588
18103TIP3   OH275799   6.136   2.651   2.701 -0.6012  0.0338  0.1836
18103TIP3    H175800   6.227   2.682   2.696 -0.4555 -0.5695 -1.3929
18103TIP3    H275801   6.087   2.728   2.731  0.2431  0.7533 -0.2116
18104TIP3   OH275802   6.416   2.754  15.190  0.0794 -0.1775  0.1928
18104TIP3    H175803   6.335   2.743  15.140  0.9020  0.0150 -1.2360
18104TIP3    H275804   6.466   2.819  15.141  1.2357 -0.5223  0.8652
18105TIP3   OH275805   1.963   2.623  11.786 -0.2892  0.0208  0.3887
18105TIP3    H175806   2.017   2.669  11.721  0.1677  0.4216  1.0347
18105TIP3    H275807   1.905   2.690  11.821 -0.5243 -0.1887  0.4001
18106TIP3   OH275808   1.441   1.828  11.202  0.0424  0.0958 -0.2161
18106TIP3    H175809   1.436   1.852  11.295  1.2608  0.8875 -0.3394
18106TIP3    H275810   1.350   1.813  11.177 -0.6336  2.6733  0.4077
18107TIP3   OH275811   1.976   1.759  15.268  1.0601 -0.0583 -0.3217
18107TIP3    H175812   1.951   1.698  15.199 -0.9768 -0.6121  0.8063
18107TIP3    H275813   1.985   1.844  15.224 -0.2306 -0.3842 -1.2790
18108TIP3   OH275814   4.507   3.169  16.213 -0.3213  0.8445  0.3524
18108TIP3    H175815   4.472   3.241  16.267  1.6658  2.1772 -0.0245
18108TIP3    H275816   4.566   3.212  16.152  1.0995 -1.1599  0.2304
18109TIP3   OH275817   1.995   6.148   5.366  0.2911 -0.7437  0.3044
18109TIP3    H175818   2.087   6.126   5.383  0.4001 -0.7369 -0.2522
18109TIP3    H275819   1.970   6.205   5.439  0.5487 -1.2285  0.7769
18110TIP3   OH275820   4.647   3.785  15.782 -0.2927  0.6206 -0.0573
18110TIP3    H175821   4.650   3.837  15.863  0.3503 -0.0690  0.3758
18110TIP3    H275822   4.567   3.814  15.738 -1.0274  0.5167  1.1630
18111TIP3   OH275823   0.853   3.641  12.053 -0.4139  0.1352  0.6205
18111TIP3    H175824   0.770   3.597  12.037  0.1775 -1.0748  0.7477
18111TIP3    H275825   0.865   3.637  12.148 -0.0022 -0.1258  0.5649
18112TIP3   OH275826   4.338   5.618  10.500 -0.0027 -0.1972 -0.4299
18112TIP3    H175827   4.431   5.598  10.490  0.1818  0.0565  0.6927
18112TIP3    H275828   4.304   5.616  10.410  0.8290 -1.4935 -0.7474
18113TIP3   OH275829   0.509   1.661   4.029  1.0407  0.8032 -0.5330
18113TIP3    H175830   0.448   1.734   4.015  0.1732 -0.0583 -1.3990
18113TIP3    H275831   0.499   1.606   3.952  2.1845  0.1042 -0.2087
18114TIP3   OH275832   3.526   1.833  15.366 -0.1429  0.0231 -0.1247
18114TIP3    H175833   3.521   1.737  15.363 -1.4342  0.0700 -0.1468
18114TIP3    H275834   3.496   1.861  15.279 -3.7802  0.4933  1.0815
18115TIP3   OH275835   2.125   2.288   2.360 -0.3579 -0.1177 -0.2911
18115TIP3    H175836   2.061   2.339   2.311  0.6848  2.0604  0.5026
18115TIP3    H275837   2.179   2.246   2.292 -1.2701 -0.2429 -0.9563
18116TIP3   OH275838   5.982   2.891  16.998 -0.3053  0.2551  0.4845
18116TIP3    H175839   6.066   2.889  16.953 -0.8693  1.7266 -0.7160
18116TIP3    H275840   5.967   2.800  17.024  2.5135  0.2298  2.4639
18117TIP3   OH275841   2.833   0.221   2.767 -0.1368  0.0453 -1.0953
18117TIP3    H175842   2.883   0.179   2.696 -0.7317 -2.9340  0.0830
18117TIP3    H275843   2.748   0.177   2.765 -0.1619 -0.1662  1.4246
18118TIP3   OH275844   5.555   1.162  14.250  0.1546 -0.1033  0.5181
18118TIP3    H175845   5.644   1.162  14.284 -0.3012  1.7182  1.8993
18118TIP3    H275846   5.543   1.074  14.214  2.0357 -0.8498  1.5468
18119TIP3   OH275847   5.161   5.565  15.784 -0.2110 -0.0356  0.2168
18119TIP3    H175848   5.204   5.480  15.775  0.5883  0.3374  0.4180
18119TIP3    H275849   5.127   5.566  15.873  1.0915  0.4364  0.7287
18120TIP3   OH275850   6.355   2.609  12.618  0.5300  0.3303  0.0153
18120TIP3    H175851   6.402   2.666  12.556  2.1234 -2.1232 -1.1661
18120TIP3    H275852   6.424   2.561  12.664 -0.6291 -3.3062 -1.6581
18121TIP3   OH275853   3.070   1.684  16.025  0.3835 -0.3429  0.0857
18121TIP3    H175854   3.078   1.778  16.005 -0.6196 -0.3111 -0.2001
18121TIP3    H275855   3.056   1.642  15.941 -1.1176 -0.5168  0.3947
18122TIP3   OH275856   5.278   5.461  14.082  0.3411  0.5023  0.3088
18122TIP3    H175857   5.253   5.542  14.035  0.4532  1.2183  1.4537
18122TIP3    H275858   5.338   5.490  14.150  2.0847 -0.8462 -0.5882
18123TIP3   OH275859   0.312   0.656  12.849  0.5922 -0.1829  0.0873
18123TIP3    H175860   0.357   0.571  12.843 -1.1088 -1.1457  0.2451
18123TIP3    H275861   0.303   0.672  12.943 -1.4874 -1.2252  0.1220
18124TIP3   OH275862   6.340   1.852   2.325 -0.0065  0.0790  0.6892
18124TIP3    H175863   6.245   1.851   2.313  0.2175 -1.2348 -1.7401
18124TIP3    H275864   6.367   1.938   2.294 -0.3019 -0.1482 -0.2557
18125TIP3   OH275865   0.346   5.297   0.977 -0.1268  0.4277  0.4164
18125TIP3    H175866   0.361   5.207   0.948 -0.3814  0.4581  0.1755
18125TIP3    H275867   0.370   5.298   1.069 -1.4992 -0.2522  0.8028
18126TIP3   OH275868   1.067   6.190  12.905 -0.5528  0.3312  0.7818
18126TIP3    H175869   1.078   6.183  12.810 -0.6666  4.1928  0.3330
18126TIP3    H275870   1.154   6.172  12.941 -0.4630 -0.9577 -0.0362
18127TIP3   OH275871   3.890   5.599   4.356 -0.0270  0.1466  0.0537
18127TIP3    H175872   3.885   5.670   4.292 -1.2770 -0.0348 -0.0672
18127TIP3    H275873   3.945   5.533   4.313 -0.7725  0.0701 -0.8064
18128TIP3   OH275874   3.738   3.159   4.463  0.4747  0.4464 -0.0976
18128TIP3    H175875   3.669   3.202   4.412  0.8324 -0.1270 -1.1064
18128TIP3    H275876   3.760   3.221   4.531 -0.8206  0.7730  0.0514
18129TIP3   OH275877   2.911   6.620   4.944 -0.0917 -0.2131 -0.9259
18129TIP3    H175878   3.006   6.616   4.958 -0.1848 -0.2921 -0.2957
18129TIP3    H275879   2.889   6.712   4.951 -0.4068 -0.4051  1.3954
18130TIP3   OH275880   0.673   5.877  11.214  0.0333 -0.2085 -0.1743
18130TIP3    H175881   0.677   5.935  11.290 -0.5715 -1.2743  0.7035
18130TIP3    H275882   0.723   5.799  11.241  1.6822  0.2663 -1.6825
18131TIP3   OH275883   6.778   6.389  12.018 -0.4815 -0.2656 -0.1496
18131TIP3    H175884   6.867   6.383  12.054 -0.6612  1.3873  0.6939
18131TIP3    H275885   6.751   6.298  12.005  2.2532 -0.8585 -2.8712
18132TIP3   OH275886   4.178   3.438   4.335  0.8175  0.3750 -0.4730
18132TIP3    H175887   4.111   3.383   4.375  0.7054  1.0852  0.3469
18132TIP3    H275888   4.145   3.527   4.346  1.7035  0.7034 -0.4266
18133TIP3   OH275889   2.475   2.862   3.705 -0.2411  0.5680  0.1198
18133TIP3    H175890   2.518   2.912   3.775 -2.3940  3.8700 -0.6889
18133TIP3    H275891   2.385   2.852   3.735 -0.0384 -2.6337  0.0081
18134TIP3   OH275892   1.567   4.343  12.902 -0.2834  0.2045  0.2095
18134TIP3    H175893   1.513   4.281  12.951  2.3430 -2.6520 -0.2543
18134TIP3    H275894   1.645   4.355  12.957 -0.1827  2.2052 -0.3001
18135TIP3   OH275895   5.121   4.257   5.787  0.4655 -0.1788  0.0133
18135TIP3    H175896   5.158   4.186   5.733  0.2872 -0.4007  0.1848
18135TIP3    H275897   5.119   4.222   5.876  3.5406  1.1751  0.7689
18136TIP3   OH275898   6.739   3.196  16.475  0.0443  0.5258  0.0899
18136TIP3    H175899   6.756   3.151  16.392 -3.3327  0.1702 -0.5736
18136TIP3    H275900   6.683   3.135  16.523 -0.2898  1.8727  1.4572
18137TIP3   OH275901   0.200   2.745   6.762 -0.2621  0.1375 -0.2067
18137TIP3    H175902   0.211   2.774   6.671  2.0076  0.6680  0.1733
18137TIP3    H275903   0.207   2.825   6.813 -0.3046 -0.3168  0.5164
18138TIP3   OH275904   0.467   4.897   0.632 -0.4573  0.5561 -0.5610
18138TIP3    H175905   0.440   4.989   0.623  0.2382  0.7432 -0.8256
18138TIP3    H275906   0.414   4.850   0.568 -1.7862  0.5518  0.4872
18139TIP3   OH275907   2.366   4.014   1.150  0.3338 -0.1242 -0.2134
18139TIP3    H175908   2.317   4.066   1.085 -0.2785 -3.5393 -2.7652
18139TIP3    H275909   2.299   3.960   1.192  0.7277  1.8978  3.4615
18140TIP3   OH275910   6.075   6.838   0.550 -0.2626  0.2901  0.8067
18140TIP3    H175911   6.123   6.767   0.507  0.7424  0.1313  2.1576
18140TIP3    H275912   6.011   6.793   0.606  0.2174  0.4426  1.4862
18141TIP3   OH275913   3.576   4.261   1.128  0.1791  0.0985  0.4187
18141TIP3    H175914   3.642   4.275   1.059  1.3085 -1.2664  1.1602
18141TIP3    H275915   3.549   4.349   1.153  0.5347  0.6576 -1.0110
18142TIP3   OH275916   2.093   0.124  13.072  0.3448 -0.3835 -0.8941
18142TIP3    H175917   2.072   0.055  13.135 -0.3357 -0.1404 -0.8407
18142TIP3    H275918   2.186   0.141  13.084 -0.2558  1.6622  2.1572
18143TIP3   OH275919   6.648   1.194   0.416 -0.0384 -0.2639 -0.2778
18143TIP3    H175920   6.655   1.274   0.364  1.4576 -0.9008 -1.1125
18143TIP3    H275921   6.570   1.208   0.470  0.5010  2.0204  0.0522
18144TIP3   OH275922   4.521   2.479  15.636  0.2383 -0.2581 -0.6762
18144TIP3    H175923   4.440   2.428  15.633  0.6276 -0.8435 -2.0876
18144TIP3    H275924   4.580   2.434  15.575  0.9236  1.3291 -1.2348
18145TIP3   OH275925   2.176   6.687   1.842 -0.2667  0.1682 -0.3651
18145TIP3    H175926   2.213   6.756   1.897 -1.0769  0.3564 -0.0359
18145TIP3    H275927   2.248   6.626   1.828  0.3752  0.9386 -0.4207
18146TIP3   OH275928   1.862   1.961   2.377 -0.2716  0.4729  0.2433
18146TIP3    H175929   1.796   1.897   2.353  0.2755 -0.1906  0.4788
18146TIP3    H275930   1.899   1.929   2.459  0.5687  0.6430 -0.0546
18147TIP3   OH275931   5.379   3.740  11.662  0.2531 -0.5858  0.1473
18147TIP3    H175932   5.357   3.698  11.579 -0.6481 -0.1437  0.1550
18147TIP3    H275933   5.474   3.754  11.657  0.3044 -1.1097 -0.5459
18148TIP3   OH275934   0.648   6.572   0.733  0.3300  0.2926 -0.5683
18148TIP3    H175935   0.667   6.649   0.786  0.2995 -0.4214  0.5059
18148TIP3    H275936   0.730   6.522   0.733 -0.3266 -0.8604  0.7905
18149TIP3   OH275937   1.758   3.205  15.780  0.1000 -0.0722 -0.4845
18149TIP3    H175938   1.681   3.180  15.831 -0.9392  0.2809 -1.8564
18149TIP3    H275939   1.831   3.197  15.842 -1.0944  0.1495  0.9950
18150TIP3   OH275940   4.077   0.032  11.100 -0.1346  0.2823 -0.0154
18150TIP3    H175941   4.101   0.116  11.142 -1.6516  0.7022  0.0436
18150TIP3    H275942   4.008   0.055  11.038 -0.9374 -1.0009  0.3734
18151TIP3   OH275943   6.471   5.211   2.202 -0.2063 -0.5525 -0.1753
18151TIP3    H175944   6.415   5.269   2.254 -0.8148 -0.3938 -0.9858
18151TIP3    H275945   6.524   5.270   2.149  0.1333 -0.7244 -0.0338
18152TIP3   OH275946   1.485   5.237   5.613 -0.4201  0.4694  0.0538
18152TIP3    H175947   1.392   5.250   5.597 -1.2089 -1.5053  2.5679
18152TIP3    H275948   1.495   5.246   5.707  1.8531  0.1026 -0.0997
18153TIP3   OH275949   5.420   6.544  13.075  0.1859  0.0309 -0.0028
18153TIP3    H175950   5.386   6.588  12.997  0.0735 -0.6897 -0.3695
18153TIP3    H275951   5.364   6.574  13.146  0.5914  1.0725 -0.1002
18154TIP3   OH275952   1.132   5.753  15.713 -0.5611  0.0490 -0.0373
18154TIP3    H175953   1.201   5.778  15.775 -0.8330  0.4275  0.1172
18154TIP3    H275954   1.179   5.726  15.634 -0.2645  1.7088 -0.4626
18155TIP3   OH275955   2.949   5.125   4.676  0.1231 -0.4311  0.2640
18155TIP3    H175956   2.955   5.193   4.743  1.3085 -0.5405  0.2850
18155TIP3    H275957   2.977   5.045   4.720 -0.5667 -0.8073  0.0413
18156TIP3   OH275958   4.767   4.667  16.390  0.6844 -0.2249  1.0505
18156TIP3    H175959   4.793   4.733  16.326  1.3618  1.6877  3.1743
18156TIP3    H275960   4.782   4.584  16.345  0.1724  0.9945 -1.5957
18157TIP3   OH275961   4.869   6.284  17.029 -0.7558  0.7394 -0.2332
18157TIP3    H175962   4.798   6.349  17.027  0.9804  2.7899  0.5589
18157TIP3    H275963   4.948   6.336  17.046  0.7654 -1.6057  0.2681
18158TIP3   OH275964   5.341   0.989  11.915 -0.2552  0.5835 -0.5921
18158TIP3    H175965   5.253   0.958  11.895 -0.4117  0.3930  0.3591
18158TIP3    H275966   5.398   0.943  11.853 -0.8039  0.6030 -1.1158
18159TIP3   OH275967   6.333   5.154  14.410  0.3207  0.3529 -0.0078
18159TIP3    H175968   6.278   5.111  14.345 -0.1943 -1.1226  1.3436
18159TIP3    H275969   6.298   5.244  14.415 -0.1613  0.2417 -1.1446
18160TIP3   OH275970   3.848   2.109   5.343  0.0421  0.2713 -0.6271
18160TIP3    H175971   3.935   2.142   5.367 -0.2824 -0.2510  1.3801
18160TIP3    H275972   3.823   2.052   5.415 -1.2873 -0.9248 -1.9728
18161TIP3   OH275973   2.175   2.649  13.232 -0.0614  0.3240 -0.2655
18161TIP3    H175974   2.137   2.613  13.152 -0.7846 -0.9077  0.6040
18161TIP3    H275975   2.118   2.619  13.302  1.8060 -0.5349  0.9578
18162TIP3   OH275976   0.256   3.786   0.979 -0.1230 -0.1879 -0.3851
18162TIP3    H175977   0.175   3.767   0.931 -0.1804 -0.4965 -0.1745
18162TIP3    H275978   0.323   3.790   0.911 -0.0441 -1.5699 -0.4159
18163TIP3   OH275979   2.341   0.249  10.856  0.5115  0.0253  1.0086
18163TIP3    H175980   2.256   0.290  10.838  1.7735  2.4520  0.0834
18163TIP3    H275981   2.393   0.267  10.778  1.7418 -1.9423  1.3017
18164TIP3   OH275982   2.338   4.840   0.868 -0.1879  0.2009 -0.3669
18164TIP3    H175983   2.336   4.921   0.920 -1.1096  0.0939 -0.2150
18164TIP3    H275984   2.251   4.836   0.828 -0.8447 -1.6337  1.0788
18165TIP3   OH275985   2.645   6.734  17.120  0.3526  0.0322  0.1644
18165TIP3    H175986   2.654   6.741  17.215  2.5793  1.7795 -0.0969
18165TIP3    H275987   2.653   6.824  17.088 -1.0070 -0.4381 -1.6605
18166TIP3   OH275988   1.476   4.444  16.709  0.2426 -0.0096 -0.2153
18166TIP3    H175989   1.427   4.448  16.627  0.7263 -1.9210 -0.6379
18166TIP3    H275990   1.554   4.393  16.688  1.6708  1.6203  0.8326
18167TIP3   OH275991   3.839   4.645  16.174 -0.3516 -0.2044 -0.1944
18167TIP3    H175992   3.832   4.587  16.249 -1.7970  1.0305  0.6875
18167TIP3    H275993   3.857   4.587  16.100  1.3593 -1.4336  1.0931
18168TIP3   OH275994   1.039   1.328  14.812 -0.6081 -0.1717  1.1163
18168TIP3    H175995   0.949   1.357  14.801 -0.9341 -1.3773  0.4347
18168TIP3    H275996   1.038   1.235  14.789  1.5441  0.5976 -3.0768
18169TIP3   OH275997   6.771   3.733  16.578  0.3788 -0.1191 -0.4284
18169TIP3    H175998   6.764   3.650  16.530  0.1025  0.3770 -1.2576
18169TIP3    H275999   6.786   3.706  16.669 -2.2398 -1.1552 -0.2138
18170TIP3   OH276000   0.256   5.694   0.969  0.5354  0.9011 -0.0982
18170TIP3    H176001   0.276   5.741   1.050  2.0609 -3.0957  2.1263
18170TIP3    H276002   0.177   5.643   0.989  0.2228  0.7682 -1.5634
18171TIP3   OH276003   3.678   4.512   5.742 -0.6389  0.5458  0.0952
18171TIP3    H176004   3.768   4.514   5.711 -0.6486 -2.0332 -0.3181
18171TIP3    H276005   3.685   4.513   5.838 -0.0220 -1.2469  0.1114
18172TIP3   OH276006   0.489   6.461   0.048  0.1798 -0.4002 -0.8704
18172TIP3    H176007   0.430   6.514   0.102  0.9502 -0.0512 -0.3507
18172TIP3    H276008   0.470   6.489  -0.042 -1.8093 -1.6722 -0.9224
18173TIP3   OH276009   1.812   0.539  11.134 -0.3689  0.6638 -0.3355
18173TIP3    H176010   1.867   0.499  11.066  1.1866  1.7935  0.1896
18173TIP3    H276011   1.722   0.516  11.109  0.2629 -0.3454 -1.8339
18174TIP3   OH276012   0.800   3.820   2.848 -0.3650  0.1918  0.2198
18174TIP3    H176013   0.820   3.911   2.826 -0.0858 -0.1785 -1.1934
18174TIP3    H276014   0.870   3.794   2.908 -0.1590  0.7504  0.2298
18175TIP3   OH276015   2.466   2.224   1.712  0.3571  0.3965 -0.2348
18175TIP3    H176016   2.384   2.210   1.761 -0.9954  1.5115 -2.0280
18175TIP3    H276017   2.532   2.174   1.760 -1.1165  0.4387  1.9856
18176TIP3   OH276018   6.246   6.773  10.581  0.2199 -0.4198  0.0357
18176TIP3    H176019   6.295   6.855  10.574  0.8667 -0.9060 -1.3278
18176TIP3    H276020   6.307   6.712  10.621  1.7300 -1.7031 -3.7866
18177TIP3   OH276021   3.509   1.948   0.847  0.1806 -0.4762  0.3115
18177TIP3    H176022   3.580   1.922   0.789 -0.8154 -1.3137 -0.5796
18177TIP3    H276023   3.544   1.935   0.935  0.9948 -1.2507 -0.1067
18178TIP3   OH276024   1.887   3.372  13.285  0.4707 -0.0567 -0.2481
18178TIP3    H176025   1.960   3.409  13.237  0.4976 -1.5855 -1.4762
18178TIP3    H276026   1.905   3.278  13.287 -1.7889 -0.5841 -1.2484
18179TIP3   OH276027   0.941   5.688   3.026  0.3553  0.0442 -0.2091
18179TIP3    H176028   1.020   5.635   3.031 -0.7642 -1.7778 -0.5781
18179TIP3    H276029   0.886   5.657   3.098 -0.8336 -0.2195 -1.1736
18180TIP3   OH276030   5.474   0.086  15.013  0.0531 -0.3661  0.0923
18180TIP3    H176031   5.400   0.056  14.961  0.0636  0.6488 -0.5208
18180TIP3    H276032   5.550   0.073  14.956  0.3164 -1.0323  0.5726
18181TIP3   OH276033   4.249   0.580   0.050  0.1290 -0.4323  0.6194
18181TIP3    H176034   4.292   0.505   0.091  2.9887  0.6695 -0.1163
18181TIP3    H276035   4.239   0.554  -0.042 -0.4931 -0.5492  0.7164
18182TIP3   OH276036   5.663   0.183   1.392  0.2673  0.4564  0.0860
18182TIP3    H176037   5.665   0.146   1.481 -1.2970  2.1033  0.8713
18182TIP3    H276038   5.653   0.107   1.335  1.9383 -0.6969  1.2473
18183TIP3   OH276039   1.747   3.911  12.994 -0.0474  0.5467  0.0784
18183TIP3    H176040   1.763   3.951  13.080  1.8962  0.0927 -0.0358
18183TIP3    H276041   1.657   3.938  12.972 -0.4537  0.9914  2.0602
18184TIP3   OH276042   0.862   1.479   6.296  0.0977 -0.0591  0.3703
18184TIP3    H176043   0.861   1.522   6.382 -3.5404  0.2354  0.3531
18184TIP3    H276044   0.848   1.549   6.233 -3.0238 -0.7638  0.1129
18185TIP3   OH276045   3.806   0.984   0.180  0.1178  0.0144  0.3029
18185TIP3    H176046   3.837   0.981   0.090  1.1663 -3.3018  0.6683
18185TIP3    H276047   3.883   1.003   0.233  0.2627 -1.5830  0.7162
18186TIP3   OH276048   3.888   5.702   2.220  0.0770 -0.0283 -0.2283
18186TIP3    H176049   3.969   5.747   2.244  0.4388  0.5687 -2.3839
18186TIP3    H276050   3.917   5.619   2.183 -0.4212 -0.6135  0.6577
18187TIP3   OH276051   6.048   1.246  13.024  0.2196 -0.4455  0.0291
18187TIP3    H176052   6.019   1.155  13.033  0.4946 -0.9794 -3.2750
18187TIP3    H276053   5.967   1.297  13.022 -0.0079 -0.7979  0.1830
18188TIP3   OH276054   4.233   4.318   0.503 -0.3295 -0.2176 -0.4410
18188TIP3    H176055   4.318   4.287   0.471  0.4298  1.5366 -0.2785
18188TIP3    H276056   4.180   4.330   0.424  0.6606  1.6023 -0.9001
18189TIP3   OH276057   6.237   6.169  13.901  0.1957 -0.0060 -0.3114
18189TIP3    H176058   6.328   6.201  13.899 -0.2570  1.3570 -0.5227
18189TIP3    H276059   6.218   6.158  13.994  0.2164  0.8408 -0.1988
18190TIP3   OH276060   6.699   1.399   4.599 -0.8969  0.4076 -0.4333
18190TIP3    H176061   6.633   1.455   4.558  0.2394  1.6948 -0.5722
18190TIP3    H276062   6.732   1.451   4.673  0.7135  0.2735 -1.0078
18191TIP3   OH276063   6.768   2.240  14.769  0.3519 -0.0919 -0.0067
18191TIP3    H176064   6.727   2.282  14.694  3.7601 -0.8044 -2.4899
18191TIP3    H276065   6.824   2.307  14.807  3.8795 -1.3370 -2.4694
18192TIP3   OH276066   3.343   6.029  14.936  0.0351  0.2673 -0.1039
18192TIP3    H176067   3.266   6.049  14.990 -1.4612 -0.6093 -1.8035
18192TIP3    H276068   3.346   5.933  14.934  1.0313  0.2987 -0.2652
18193TIP3   OH276069   2.177   4.971   0.149  0.3184 -0.2768 -0.0558
18193TIP3    H176070   2.257   5.002   0.107  0.0455  1.4063  0.5840
18193TIP3    H276071   2.107   5.025   0.113 -0.1426  0.1263  1.3620
18194TIP3   OH276072   6.458   4.612   2.378  0.0376 -0.2070  0.1587
18194TIP3    H176073   6.414   4.621   2.463  2.7392  1.1275  1.5392
18194TIP3    H276074   6.500   4.526   2.381  0.4742  0.0116  0.3565
18195TIP3   OH276075   4.234   2.748   0.183  0.5388  0.3126  0.1163
18195TIP3    H176076   4.304   2.759   0.119  0.3544 -1.2407 -0.3960
18195TIP3    H276077   4.270   2.687   0.248 -0.0127  0.2212  0.3448
18196TIP3   OH276078   4.864   0.574  12.234 -0.4106 -0.4116  0.2522
18196TIP3    H176079   4.868   0.662  12.271  2.7284 -0.0188 -0.7588
18196TIP3    H276080   4.951   0.560  12.195 -1.4723 -3.1848 -1.4064
18197TIP3   OH276081   6.185   6.223  17.031 -0.3165 -0.4153  0.2438
18197TIP3    H176082   6.150   6.309  17.009  0.3621 -0.2667 -0.2768
18197TIP3    H276083   6.140   6.199  17.112 -1.4775 -0.1521 -0.3077
18198TIP3   OH276084   1.642   5.753   3.205 -0.2508 -0.3677  0.3796
18198TIP3    H176085   1.711   5.814   3.231 -1.3838  0.5461  1.3733
18198TIP3    H276086   1.674   5.713   3.125  0.8267  1.0409  0.0722
18199TIP3   OH276087   1.003   2.661   5.010  0.4000 -1.1018 -0.2560
18199TIP3    H176088   1.037   2.694   5.094 -0.2638 -3.6747  1.1144
18199TIP3    H276089   1.068   2.691   4.946  2.7889 -1.8642  1.6214
18200TIP3   OH276090   1.290   6.554  15.288  0.5264 -0.2237 -0.2869
18200TIP3    H176091   1.222   6.621  15.294 -0.2089 -1.0011  0.6004
18200TIP3    H276092   1.300   6.538  15.194 -0.3231  0.1237 -0.4468
18201TIP3   OH276093   6.581   5.937  12.512 -0.2066 -0.0721 -0.6769
18201TIP3    H176094   6.640   6.010  12.495  0.0306 -0.3925 -1.2605
18201TIP3    H276095   6.496   5.965  12.477 -0.6315  0.7163  0.8854
18202TIP3   OH276096   1.499   3.152   5.906 -0.3862  0.5423 -0.2376
18202TIP3    H176097   1.519   3.123   5.818  0.9461 -1.6640  0.7148
18202TIP3    H276098   1.408   3.125   5.920  0.2363 -1.6503 -0.0450
18203TIP3   OH276099   6.079   6.258  12.327 -0.2070  0.1147  0.3981
18203TIP3    H176100   6.061   6.259  12.233 -1.4085  2.2726  0.5927
18203TIP3    H276101   6.174   6.263  12.333 -0.2000  2.8534 -0.7599
18204TIP3   OH276102   5.365   5.786  16.138 -0.4034  0.0430  0.1710
18204TIP3    H176103   5.427   5.816  16.072  0.1440  1.6131  1.3338
18204TIP3    H276104   5.320   5.865  16.167 -1.4300 -0.7676  0.8748
18205TIP3   OH276105   0.524   5.163  13.916 -0.0754 -0.1155  0.0319
18205TIP3    H176106   0.468   5.198  13.847 -0.5321  0.7909  0.8494
18205TIP3    H276107   0.542   5.073  13.888  1.7274  0.9056 -2.4830
18206TIP3   OH276108   5.363   1.496   1.534 -0.2391  0.1087  0.2985
18206TIP3    H176109   5.311   1.576   1.536  0.5431  0.6142  0.8583
18206TIP3    H276110   5.350   1.457   1.621  1.9186  1.3096  1.2397
18207TIP3   OH276111   3.844   3.435  16.997  0.2658  0.5207  0.0352
18207TIP3    H176112   3.750   3.448  17.014  0.4821  1.5624  0.5358
18207TIP3    H276113   3.866   3.355  17.045 -0.0686  1.0714  1.1462
18208TIP3   OH276114   2.545   1.459   0.614 -0.3728 -0.4618  0.8187
18208TIP3    H176115   2.589   1.542   0.597 -2.5016  0.6411  0.3085
18208TIP3    H276116   2.600   1.415   0.678  2.3406  0.0018 -1.0254
18209TIP3   OH276117   1.746   5.936  11.209 -0.2769  0.1619  0.4853
18209TIP3    H176118   1.656   5.932  11.177  0.0465  1.0635 -0.6126
18209TIP3    H276119   1.776   5.845  11.206  0.7337  0.2911 -5.0247
18210TIP3   OH276120   2.867   4.599  15.696  0.6888  0.5814  0.6219
18210TIP3    H176121   2.802   4.669  15.700  0.1491  0.1445 -0.2682
18210TIP3    H276122   2.816   4.520  15.680  1.3648  0.1007  0.8002
18211TIP3   OH276123   3.751   2.179  12.330  0.2317  0.4503  0.2554
18211TIP3    H176124   3.795   2.263  12.318  1.3615 -0.1835 -0.2177
18211TIP3    H276125   3.674   2.184  12.274 -0.5526  1.7237  1.3813
18212TIP3   OH276126   4.713   5.029   3.314 -0.3365  0.2868  0.1330
18212TIP3    H176127   4.679   5.026   3.404 -0.3961 -0.0288  0.1015
18212TIP3    H276128   4.754   4.943   3.301 -0.7843  0.1332 -0.3155
18213TIP3   OH276129   2.690   2.162   0.351  0.8151 -0.0958  0.2102
18213TIP3    H176130   2.749   2.141   0.279  0.8559 -1.2587  0.5560
18213TIP3    H276131   2.698   2.087   0.410  1.1697  1.0689  1.6809
18214TIP3   OH276132   6.162   2.480   2.941 -0.0631 -0.9882  0.3568
18214TIP3    H176133   6.083   2.459   2.892  0.0594 -1.8286  0.4992
18214TIP3    H276134   6.232   2.437   2.892  0.1133 -1.4720  1.0253
18215TIP3   OH276135   1.921   0.431   4.963  0.2728  0.7148  0.3865
18215TIP3    H176136   1.853   0.417   4.897  1.6535  0.5390 -1.0721
18215TIP3    H276137   1.989   0.480   4.917  1.8237 -0.4635  1.3266
18216TIP3   OH276138   6.431   0.589   0.423  0.2125  0.1369  0.1975
18216TIP3    H176139   6.476   0.663   0.463  0.6933 -0.9676  1.8064
18216TIP3    H276140   6.403   0.536   0.497 -1.6450 -0.4299 -0.8660
18217TIP3   OH276141   2.095   4.585  12.168 -0.5541 -0.1445 -0.0611
18217TIP3    H176142   2.013   4.630  12.146 -0.8469 -1.6034 -2.2071
18217TIP3    H276143   2.164   4.638  12.129 -0.4873  0.6534  1.0682
18218TIP3   OH276144   2.508   5.573  14.719  0.3837  0.2021  0.5290
18218TIP3    H176145   2.461   5.655  14.699 -1.1480 -0.7092  0.1982
18218TIP3    H276146   2.482   5.553  14.809 -0.2611 -0.5472  0.1877
18219TIP3   OH276147   6.016   2.434  16.861 -0.0616 -0.5081  0.2750
18219TIP3    H176148   6.007   2.471  16.773 -2.7373 -3.1892 -0.7936
18219TIP3    H276149   6.110   2.436  16.879  0.3746  1.9532 -1.7367
18220TIP3   OH276150   5.963   3.602   1.490 -0.1190 -0.2322 -0.4816
18220TIP3    H176151   5.995   3.529   1.436 -3.3254 -1.5013 -0.8874
18220TIP3    H276152   6.043   3.643   1.524  1.8854 -2.9187 -1.5404
18221TIP3   OH276153   5.258   4.293   1.713  0.1267  0.0514  0.4091
18221TIP3    H176154   5.283   4.368   1.660  0.3597  0.2526  0.8016
18221TIP3    H276155   5.163   4.290   1.707  0.2231 -0.8752 -1.3107
18222TIP3   OH276156   2.740   3.095  15.172 -0.7403  0.1988 -0.8131
18222TIP3    H176157   2.833   3.074  15.175 -1.0187 -1.0680 -0.4931
18222TIP3    H276158   2.731   3.174  15.226 -0.1284 -0.8112  0.8450
18223TIP3   OH276159   4.380   5.101   2.890 -0.5521 -0.1905  0.7342
18223TIP3    H176160   4.339   5.052   2.818 -1.0372 -0.2524  1.0436
18223TIP3    H276161   4.394   5.036   2.959 -0.8518  0.0267  1.0050
18224TIP3   OH276162   6.193   1.046  15.865  0.5138  0.1567 -0.1386
18224TIP3    H176163   6.285   1.045  15.837  0.1965 -0.6697 -1.2213
18224TIP3    H276164   6.181   0.964  15.912 -0.2292 -0.8525 -1.9990
18225TIP3   OH276165   4.791   3.569  14.475  0.3152  0.5017  0.1324
18225TIP3    H176166   4.775   3.661  14.500  0.0402  0.5733 -0.3086
18225TIP3    H276167   4.827   3.574  14.387  2.4709  0.3220  0.9355
18226TIP3   OH276168   4.135   1.054   5.645 -0.0521  0.1053  0.0345
18226TIP3    H176169   4.190   0.987   5.687 -2.6274 -2.5062 -0.4477
18226TIP3    H276170   4.157   1.049   5.552 -1.3037 -1.2917 -0.2311
18227TIP3   OH276171   6.064   3.940   0.009 -0.4951 -1.0751 -0.0975
18227TIP3    H176172   5.980   3.985   0.021  0.0287 -0.2119  0.4735
18227TIP3    H276173   6.040   3.853  -0.022 -1.6264 -0.9637  0.3877
18228TIP3   OH276174   5.049   1.710  11.526  0.6293  0.5514  0.9905
18228TIP3    H176175   4.960   1.682  11.545  0.6737 -0.5521 -0.2455
18228TIP3    H276176   5.038   1.789  11.472  0.4235  0.8047  1.3983
18229TIP3   OH276177   6.032   0.043   1.603 -0.2351 -0.0892 -0.2155
18229TIP3    H176178   6.014  -0.012   1.526 -1.0086  0.1146 -0.1801
18229TIP3    H276179   6.061  -0.020   1.670 -2.0387 -0.6130  0.1341
18230TIP3   OH276180   0.343   2.323  14.195  0.0887  0.0034 -0.6185
18230TIP3    H176181   0.261   2.274  14.186 -0.6513  1.1979 -0.6329
18230TIP3    H276182   0.365   2.349  14.105  0.3574 -0.0998 -0.5844
18231TIP3   OH276183   6.322   4.255  10.687  0.3198  0.1329 -0.1616
18231TIP3    H176184   6.272   4.334  10.709  0.0479 -0.2732  0.7396
18231TIP3    H276185   6.276   4.184  10.734  0.5956 -0.5507 -0.9019
18232TIP3   OH276186   5.475   1.684  12.755 -0.4355 -0.5603 -0.5977
18232TIP3    H176187   5.553   1.642  12.719  0.7900  1.3338 -0.3074
18232TIP3    H276188   5.413   1.613  12.767  1.0210 -2.0444 -1.4154
18233TIP3   OH276189   3.528   4.742   2.536 -0.2089  0.4431 -0.4451
18233TIP3    H176190   3.469   4.707   2.603 -0.5699  0.8659 -0.5354
18233TIP3    H276191   3.588   4.670   2.518  0.1444  0.4511  0.6122
18234TIP3   OH276192   3.581   1.946   5.296 -0.1765 -0.4200  0.0301
18234TIP3    H176193   3.607   2.015   5.357 -0.4686  0.0445 -0.3613
18234TIP3    H276194   3.631   1.869   5.323  0.8924  0.2025 -0.1328
18235TIP3   OH276195   5.660   0.952   3.114 -0.4943 -0.3969 -0.1893
18235TIP3    H176196   5.625   0.925   3.199 -1.0494 -2.7187 -1.0654
18235TIP3    H276197   5.708   0.875   3.083  2.7742  1.5662 -0.4668
18236TIP3   OH276198   3.764   6.455   0.390 -0.3048 -0.0330  0.2270
18236TIP3    H176199   3.683   6.447   0.339  0.0499  0.3681 -0.4077
18236TIP3    H276200   3.804   6.536   0.359 -0.1240  0.2653  1.2104
18237TIP3   OH276201   0.938   6.407   2.020  0.3597  0.1279 -0.2318
18237TIP3    H176202   0.985   6.327   2.045  0.9021  0.4868 -0.0999
18237TIP3    H276203   0.979   6.434   1.938 -0.3710 -0.1788 -0.7070
18238TIP3   OH276204   4.495   5.786  15.422  0.6862 -0.0789  0.5239
18238TIP3    H176205   4.453   5.865  15.454  1.7482  0.3530  0.9198
18238TIP3    H276206   4.454   5.769  15.337 -0.5768  0.0516  1.0941
18239TIP3   OH276207   6.693   2.874  12.279 -0.7306 -0.3073  0.6981
18239TIP3    H176208   6.705   2.937  12.207  1.7112 -0.9481  0.4794
18239TIP3    H276209   6.658   2.796  12.236  2.6322 -1.4289 -0.2955
18240TIP3   OH276210   2.284   1.184  11.530 -0.3819 -0.8588 -0.4131
18240TIP3    H176211   2.268   1.201  11.437 -1.2310 -0.2249 -0.1641
18240TIP3    H276212   2.370   1.222  11.547 -0.0911 -1.2316 -0.9985
18241TIP3   OH276213   3.140   5.850   2.958 -0.5802  0.1497 -0.2579
18241TIP3    H176214   3.073   5.911   2.988 -1.0074 -1.0101  1.2644
18241TIP3    H276215   3.213   5.906   2.931 -0.8211  1.3354  1.4334
18242TIP3   OH276216   6.081   6.715  13.705  0.0959 -0.1148 -0.5825
18242TIP3    H176217   5.988   6.732  13.720 -0.3477 -2.5592 -0.1185
18242TIP3    H276218   6.115   6.796  13.668 -2.1395  0.9538 -0.4414
18243TIP3   OH276219   4.561   3.659   5.291 -0.2092  0.1345 -0.4243
18243TIP3    H176220   4.549   3.566   5.309  0.9992 -0.3846 -2.0520
18243TIP3    H276221   4.610   3.662   5.209 -0.9361  2.2271 -0.8608
18244TIP3   OH276222   0.440   0.386  16.347  0.1254  0.3952  0.1780
18244TIP3    H176223   0.383   0.455  16.314 -1.1248 -0.8079 -0.2328
18244TIP3    H276224   0.490   0.429  16.417 -0.9702  1.5854  0.2678
18245TIP3   OH276225   4.111   6.469   4.480 -0.9809  0.3860 -0.2656
18245TIP3    H176226   4.135   6.509   4.564 -0.3429  2.4412 -1.3765
18245TIP3    H276227   4.126   6.375   4.494  0.3554  0.7981  1.5267
18246TIP3   OH276228   4.983   5.380  16.962  0.2965 -0.0389 -0.6060
18246TIP3    H176229   4.945   5.441  16.898 -3.4651 -1.4990  0.0401
18246TIP3    H276230   4.990   5.432  17.042 -0.1322  0.3302 -0.8013
18247TIP3   OH276231   3.170   4.489   3.886 -0.2950 -0.2622  0.2916
18247TIP3    H176232   3.141   4.569   3.929 -0.4433  0.4049 -1.0083
18247TIP3    H276233   3.263   4.481   3.910 -0.1890  0.4883  0.1319
18248TIP3   OH276234   1.804   0.282  16.652  0.4608  0.5869  0.0031
18248TIP3    H176235   1.741   0.211  16.643 -0.3686  1.2594  0.3713
18248TIP3    H276236   1.783   0.324  16.735  2.9354 -0.6121  1.3626
18249TIP3   OH276237   2.512   2.167   3.473 -0.4723  0.4376  0.7163
18249TIP3    H176238   2.503   2.079   3.511  0.7151 -0.1722 -0.3352
18249TIP3    H276239   2.564   2.215   3.537  2.5210 -0.9282 -0.4967
18250TIP3   OH276240   4.708   0.579   5.438 -0.3585 -0.6375 -0.2813
18250TIP3    H176241   4.648   0.655   5.437  0.5825  0.2841  2.7815
18250TIP3    H276242   4.769   0.597   5.366 -1.7988  0.0219 -1.4241
18251TIP3   OH276243   4.624   5.336  16.153  0.2822  0.3552 -0.2373
18251TIP3    H176244   4.642   5.242  16.150 -0.8863  0.1311 -0.5797
18251TIP3    H276245   4.581   5.355  16.069 -0.5630  0.9595  0.3182
18252TIP3   OH276246   4.078   0.517  11.207 -0.1022  0.1560 -0.0795
18252TIP3    H176247   4.009   0.510  11.141 -0.9286  2.1066  0.4883
18252TIP3    H276248   4.129   0.593  11.179  0.4255  0.1104  0.7387
18253TIP3   OH276249   2.188   1.536  12.282  0.6310 -0.6943  0.4974
18253TIP3    H176250   2.256   1.470  12.299  0.2170 -1.8104 -1.7613
18253TIP3    H276251   2.172   1.530  12.188 -0.6903  1.4572  0.5202
18254TIP3   OH276252   3.241   2.125   2.690  0.0379 -0.7389  0.2637
18254TIP3    H176253   3.300   2.200   2.677 -0.3500 -0.4916 -0.0822
18254TIP3    H276254   3.163   2.163   2.731  0.0926 -1.0583  0.6741
18255TIP3   OH276255   3.439   2.928   5.899  0.0956  0.8429 -0.0125
18255TIP3    H176256   3.409   2.894   5.983  2.0639 -1.7934 -0.2539
18255TIP3    H276257   3.383   3.004   5.883 -3.4826 -1.2152  1.4866
18256TIP3   OH276258   1.492   6.637  12.599  0.4246 -0.0557  0.0532
18256TIP3    H176259   1.449   6.722  12.608  1.6863  0.5006  1.0254
18256TIP3    H276260   1.496   6.623  12.504 -1.5014  0.0399 -0.0908
18257TIP3   OH276261   4.844   1.323   2.643  0.1301  0.3164  0.2869
18257TIP3    H176262   4.794   1.364   2.713  0.0767 -1.4181  1.3329
18257TIP3    H276263   4.826   1.229   2.652  1.9765 -0.1804 -0.5673
18258TIP3   OH276264   5.277   3.496  16.564 -0.0458  0.1069  0.0970
18258TIP3    H176265   5.258   3.419  16.619 -1.8814  0.9477  0.7465
18258TIP3    H276266   5.329   3.553  16.620  0.3164 -0.1644  0.0347
18259TIP3   OH276267   1.241   1.572  12.028 -0.3594 -0.0114  0.2368
18259TIP3    H176268   1.160   1.548  11.982 -0.4428  0.1408  0.3061
18259TIP3    H276269   1.301   1.501  12.007  0.2680  1.0598 -1.8098
18260TIP3   OH276270   1.476   2.123  16.885  0.0422 -0.4915 -0.3501
18260TIP3    H176271   1.410   2.181  16.922  1.4613 -0.1319  1.7718
18260TIP3    H276272   1.511   2.171  16.810  0.7675  1.1725  1.0064
18261TIP3   OH276273   4.754   4.228   4.703  0.2505 -0.2869 -0.3424
18261TIP3    H176274   4.711   4.159   4.651 -0.6437  1.3281 -1.8664
18261TIP3    H276275   4.818   4.267   4.643  0.6690  0.2929  0.4535
18262TIP3   OH276276   2.898   1.939  16.211 -0.8967 -0.7366  0.0933
18262TIP3    H176277   2.882   2.018  16.159 -0.9820 -1.7354 -1.4509
18262TIP3    H276278   2.991   1.944  16.232 -0.2535 -1.4627 -2.2462
18263TIP3   OH276279   1.931   5.944  15.153  0.8316  0.3374 -0.0227
18263TIP3    H176280   1.892   5.870  15.199  1.0966 -0.4561 -1.0240
18263TIP3    H276281   1.953   5.909  15.066  0.6030  1.6880 -0.6585
18264TIP3   OH276282   3.772   4.242   5.558 -0.0567 -0.3528 -0.0154
18264TIP3    H176283   3.722   4.246   5.640  1.6609 -1.8126  1.2008
18264TIP3    H276284   3.860   4.271   5.582  0.5632 -1.1069 -1.2533
18265TIP3   OH276285   2.496   4.642  13.454 -0.3358 -0.0606 -0.1429
18265TIP3    H176286   2.434   4.585  13.408 -0.9953  0.9901 -0.5725
18265TIP3    H276287   2.444   4.716  13.484  0.9210  1.4751 -1.5950
18266TIP3   OH276288   5.778   6.389   3.860  0.0256 -0.6612 -0.4599
18266TIP3    H176289   5.796   6.326   3.929 -0.7797  0.5710  0.9420
18266TIP3    H276290   5.713   6.448   3.898  2.3938  2.4475 -0.7674
18267TIP3   OH276291   0.060   6.743  12.403  0.2221  0.6156  0.7535
18267TIP3    H176292  -0.023   6.722  12.360  0.7802  0.0817 -0.0834
18267TIP3    H276293   0.122   6.755  12.331  0.3555  3.5171  1.1996
18268TIP3   OH276294   1.673   3.805   2.962  0.6812  0.0501  0.3528
18268TIP3    H176295   1.733   3.822   2.890  0.6675  1.2442  0.6097
18268TIP3    H276296   1.721   3.745   3.019 -0.0569 -2.5574 -1.6029
18269TIP3   OH276297   1.986   2.918   3.435  0.0336 -0.1261 -0.1732
18269TIP3    H176298   2.016   2.832   3.464 -0.2860  0.0692  0.7576
18269TIP3    H276299   1.898   2.927   3.472  0.8049  1.4030  1.4537
18270TIP3   OH276300   3.820   1.566   0.679 -0.0196  0.5160 -0.6976
18270TIP3    H176301   3.899   1.556   0.626  0.4687  0.9542 -0.0804
18270TIP3    H276302   3.821   1.491   0.738 -0.1334  0.4512 -0.7784
18271TIP3   OH276303   0.179   6.148   4.102  0.2190  0.0405  0.0884
18271TIP3    H176304   0.181   6.083   4.172 -2.7094 -2.2236 -1.6734
18271TIP3    H276305   0.195   6.098   4.022 -1.2385  1.5801 -1.2708
18272TIP3   OH276306   4.224   4.503  10.359 -0.0592 -0.3639  0.4627
18272TIP3    H176307   4.261   4.528  10.274  0.2883  0.5609  0.8812
18272TIP3    H276308   4.218   4.407  10.354 -1.1124 -0.2563 -1.0267
18273TIP3   OH276309   0.260   2.264  13.418  0.3174  0.2424 -0.4978
18273TIP3    H176310   0.344   2.239  13.457  0.6371  0.2508 -1.1636
18273TIP3    H276311   0.202   2.278  13.493  0.9894  0.5267 -0.0148
18274TIP3   OH276312   2.797   6.245  11.207  0.1968 -0.2623 -0.0788
18274TIP3    H176313   2.853   6.279  11.137 -0.1980 -0.1762 -0.3552
18274TIP3    H276314   2.849   6.254  11.286  0.1484  0.8658 -0.1675
18275TIP3   OH276315   2.570   2.680   2.988 -0.0151  0.0430  0.0922
18275TIP3    H176316   2.528   2.763   2.964 -2.1251 -0.8008  0.6601
18275TIP3    H276317   2.499   2.626   3.022  1.3461 -1.9420 -0.0420
18276TIP3   OH276318   4.360   2.676   5.579  0.3177  0.0934 -0.5370
18276TIP3    H176319   4.330   2.637   5.497  0.4348  0.9499 -1.0059
18276TIP3    H276320   4.448   2.641   5.592 -0.0474 -0.7594 -0.2868
18277TIP3   OH276321   4.501   2.413   4.146  0.0259 -0.4330 -0.9595
18277TIP3    H176322   4.506   2.464   4.065  0.0702 -0.9672 -1.2936
18277TIP3    H276323   4.409   2.421   4.173 -0.0730 -0.5646 -1.2593
18278TIP3   OH276324   6.518   2.712  16.506  0.1410  0.1525  0.4679
18278TIP3    H176325   6.511   2.651  16.433 -0.1859 -0.3971  0.9536
18278TIP3    H276326   6.443   2.771  16.497 -0.9425 -1.0408  1.3789
18279TIP3   OH276327   4.596   2.345  12.144  0.1283 -0.4450 -0.1021
18279TIP3    H176328   4.668   2.394  12.183  0.7634  0.1832 -1.9634
18279TIP3    H276329   4.613   2.254  12.168  1.6894 -0.3318 -0.6908
18280TIP3   OH276330   5.902   4.997   1.312  0.1574 -0.2838 -0.6155
18280TIP3    H176331   5.979   5.018   1.260 -0.1292  0.0764 -0.8994
18280TIP3    H276332   5.937   4.962   1.394  0.6575  1.5702  0.0064
18281TIP3   OH276333   1.776   2.069   2.961 -0.0590 -0.1028  0.2817
18281TIP3    H176334   1.811   2.120   2.888  1.0690 -1.5651 -0.2367
18281TIP3    H276335   1.853   2.035   3.006 -0.6614  1.7652  2.9896
18282TIP3   OH276336   6.512   5.836  15.237  0.2833  0.2976 -0.3647
18282TIP3    H176337   6.576   5.908  15.242  0.2232  0.3397 -0.2158
18282TIP3    H276338   6.434   5.870  15.281  0.1202  0.2846 -0.6426
18283TIP3   OH276339   5.910   2.089  11.442  0.0607 -0.4822 -0.2300
18283TIP3    H176340   5.883   2.026  11.375 -1.0900  0.4618 -0.6860
18283TIP3    H276341   5.994   2.123  11.411 -1.4449  1.5235 -2.3717
18284TIP3   OH276342   5.821   1.565   0.686 -0.0023  0.8209 -0.0071
18284TIP3    H176343   5.906   1.530   0.662  0.1827  1.4495 -0.2760
18284TIP3    H276344   5.762   1.534   0.616 -0.7930 -2.6447  1.9413
18285TIP3   OH276345   4.503   4.283  14.414  0.0190 -0.0273 -0.2189
18285TIP3    H176346   4.472   4.227  14.486  0.4393 -1.3173 -0.9991
18285TIP3    H276347   4.431   4.344  14.399 -0.1216  0.2060  1.2106
18286TIP3   OH276348   1.073   3.621   5.587  0.0654 -0.0084  0.6269
18286TIP3    H176349   0.982   3.595   5.600 -0.4050  2.0240  1.6694
18286TIP3    H276350   1.094   3.675   5.663  2.0237 -0.0600  0.1812
18287TIP3   OH276351   0.405   4.616  15.533 -0.6138 -0.2455  0.2347
18287TIP3    H176352   0.345   4.690  15.520 -0.5231 -0.2456 -0.2176
18287TIP3    H276353   0.356   4.554  15.587 -1.6871 -0.9958 -1.5047
18288TIP3   OH276354   4.985   5.343   5.974  0.0078  0.9541  0.8353
18288TIP3    H176355   4.969   5.254   6.005 -0.8868  1.0746  0.7453
18288TIP3    H276356   5.050   5.378   6.034 -0.2764  0.5303  1.3999
18289TIP3   OH276357   2.863   1.324   2.319 -0.1086  0.4056  0.1535
18289TIP3    H176358   2.948   1.341   2.359 -0.1903 -1.0609  1.0152
18289TIP3    H276359   2.882   1.273   2.241 -0.1708  0.3070  0.2017
18290TIP3   OH276360   5.865   0.760   3.900  0.0430  0.6951 -0.3561
18290TIP3    H176361   5.839   0.785   3.989  1.3974 -1.8165  0.8962
18290TIP3    H276362   5.959   0.781   3.896 -0.2061  1.6796 -1.5932
18291TIP3   OH276363   1.842   1.688  14.647 -0.0231  0.3926 -0.0467
18291TIP3    H176364   1.817   1.603  14.681 -0.8062 -0.8314 -3.3131
18291TIP3    H276365   1.912   1.669  14.583  0.3242  2.2782 -0.2984
18292TIP3   OH276366   6.450   4.636  16.500  0.1139 -0.0171  0.2628
18292TIP3    H176367   6.482   4.566  16.558  1.3784 -0.1997 -0.6167
18292TIP3    H276368   6.423   4.706  16.559  0.6151 -0.5196  1.1046
18293TIP3   OH276369   0.684   0.230   3.661 -0.2019 -0.0434 -0.1787
18293TIP3    H176370   0.706   0.141   3.690  0.6158 -0.2243 -1.2690
18293TIP3    H276371   0.767   0.278   3.668 -0.3242  0.2732 -0.8434
18294TIP3   OH276372   0.279   6.386  10.211 -0.2274  0.6148 -0.5473
18294TIP3    H176373   0.237   6.341  10.137  0.7528  1.1152 -1.4391
18294TIP3    H276374   0.328   6.458  10.170 -0.4411  1.4997  0.6822
18295TIP3   OH276375   3.222   1.167   3.041  0.1442  0.2289  0.2007
18295TIP3    H176376   3.161   1.164   3.115  1.3780 -0.5234  1.2368
18295TIP3    H276377   3.167   1.188   2.965 -2.0930 -3.6710  0.4365
18296TIP3   OH276378   4.769   5.845   4.575 -0.0313  0.2123  0.2653
18296TIP3    H176379   4.766   5.896   4.656 -2.9928 -0.1951  0.5319
18296TIP3    H276380   4.753   5.755   4.603  0.1617 -0.1201 -0.6625
18297TIP3   OH276381   5.385   1.383   0.963  0.0194 -0.2207  0.4368
18297TIP3    H176382   5.360   1.293   0.980  0.5763 -0.2150  1.3290
18297TIP3    H276383   5.378   1.427   1.047 -0.2275  0.5755  0.0189
18298TIP3   OH276384   3.630   3.785   3.407 -0.0800 -0.1775 -0.0430
18298TIP3    H176385   3.667   3.871   3.390  0.9537 -0.8289 -1.3136
18298TIP3    H276386   3.564   3.799   3.475 -1.2804  1.9225 -1.5456
18299TIP3   OH276387   3.443   2.952  12.190  0.1490 -0.1625 -0.9253
18299TIP3    H176388   3.499   3.009  12.242  0.5599  0.0854 -1.6181
18299TIP3    H276389   3.437   2.871  12.240 -0.4561  0.4835  0.0857
18300TIP3   OH276390   4.710   0.682  12.598  0.0489 -0.8101 -0.8773
18300TIP3    H176391   4.692   0.760  12.546 -0.3800  1.9044  2.9163
18300TIP3    H276392   4.630   0.630  12.593 -1.2531  1.0446 -0.3366
18301TIP3   OH276393   2.009   3.203   6.150 -0.0504  0.4887  0.1689
18301TIP3    H176394   1.932   3.209   6.093  0.5941 -0.3225 -0.8133
18301TIP3    H276395   1.979   3.153   6.226 -0.3658 -0.2631 -0.4427
18302TIP3   OH276396   0.955   1.669  14.180  0.0370 -0.0473 -0.2870
18302TIP3    H176397   0.914   1.734  14.123 -0.8829 -0.3862 -0.0219
18302TIP3    H276398   0.944   1.586  14.133 -0.0324 -0.2110  0.0156
18303TIP3   OH276399   2.166   2.935  14.002  0.1139  0.1530 -0.3304
18303TIP3    H176400   2.149   2.867  13.937 -1.1912 -0.1018  0.2369
18303TIP3    H276401   2.224   2.997  13.958  0.3821 -0.7291 -1.2494
18304TIP3   OH276402   4.679   6.003  11.073 -0.0327 -0.2149 -0.2466
18304TIP3    H176403   4.750   5.986  11.135  0.5017 -0.9748 -1.0529
18304TIP3    H276404   4.652   5.917  11.041 -3.2212 -0.2437  2.0467
18305TIP3   OH276405   1.046   2.358  15.368 -0.8429  0.0564 -0.1297
18305TIP3    H176406   1.065   2.265  15.380  0.1250  0.4362  1.6594
18305TIP3    H276407   0.969   2.359  15.311 -0.2599 -1.7872 -1.0439
18306TIP3   OH276408   2.052   3.256   1.344  0.6555  0.5743 -0.3413
18306TIP3    H176409   2.064   3.265   1.249 -2.2436 -0.7739 -0.9366
18306TIP3    H276410   2.017   3.340   1.372  0.8631  0.7390 -0.5626
18307TIP3   OH276411   3.939   5.254   3.558  0.5212  0.2302 -0.1733
18307TIP3    H176412   3.948   5.348   3.572  1.1668  0.3061 -0.9819
18307TIP3    H276413   3.891   5.246   3.476  0.6426 -0.1375 -0.2132
18308TIP3   OH276414   4.579   3.846   3.323  0.0298  0.3851  0.6874
18308TIP3    H176415   4.658   3.799   3.351 -0.4608 -0.2115  1.1029
18308TIP3    H276416   4.553   3.801   3.243 -2.4087 -2.4637  2.8477
18309TIP3   OH276417   2.624   2.444   1.140 -0.0822 -0.1051  0.0908
18309TIP3    H176418   2.635   2.407   1.052  1.9890  2.8357 -1.0417
18309TIP3    H276419   2.538   2.487   1.137  0.3722  0.7772 -0.8649
18310TIP3   OH276420   2.663   4.447   3.294 -0.2420  0.3425 -0.0676
18310TIP3    H176421   2.615   4.375   3.253 -2.0172  1.0472  0.7074
18310TIP3    H276422   2.597   4.497   3.342  0.8067  2.8546 -1.0468
18311TIP3   OH276423   2.028   4.224  13.348  0.1657 -0.0523  0.0514
18311TIP3    H176424   1.997   4.135  13.365  1.6245 -0.9623 -1.6062
18311TIP3    H276425   2.059   4.256  13.433 -1.3533 -0.6998  0.8732
18312TIP3   OH276426   6.095   4.882  13.753  0.2143  0.6712 -0.0967
18312TIP3    H176427   6.025   4.927  13.705  0.2370  2.2751  1.2819
18312TIP3    H276428   6.175   4.930  13.730  1.0869 -1.6241 -2.2785
18313TIP3   OH276429   6.644   4.991   1.683 -0.0668  0.4398  0.1427
18313TIP3    H176430   6.552   4.970   1.703  0.0806 -2.0711 -1.4185
18313TIP3    H276431   6.692   4.966   1.762 -0.5226 -0.2168  0.2220
18314TIP3   OH276432   5.833   1.629  16.375 -0.2100  0.3473  0.6912
18314TIP3    H176433   5.841   1.600  16.284 -0.6371 -0.0369  0.7695
18314TIP3    H276434   5.838   1.548  16.426 -0.7604  0.4749  0.9595
18315TIP3   OH276435   4.713   5.176   5.784 -0.5133 -0.6575  0.0165
18315TIP3    H176436   4.666   5.201   5.864  1.4611 -1.1221  1.3999
18315TIP3    H276437   4.772   5.250   5.767  1.2237 -1.7912  0.7875
18316TIP3   OH276438   5.242   4.448   5.607  0.0508  0.4303  0.1324
18316TIP3    H176439   5.212   4.382   5.544  2.3361 -0.9753  0.4033
18316TIP3    H276440   5.182   4.441   5.681 -1.3271  0.5564 -0.9339
18317TIP3   OH276441   4.883   4.352  14.494 -0.1163 -0.1266 -0.2454
18317TIP3    H176442   4.889   4.363  14.399 -0.4175 -0.5571 -0.3178
18317TIP3    H276443   4.850   4.263  14.505 -0.9559  0.2379  0.2492
18318TIP3   OH276444   4.073   0.310  15.129 -0.3135  0.8819  0.1063
18318TIP3    H176445   3.982   0.333  15.109 -0.1957  0.7416 -0.6090
18318TIP3    H276446   4.124   0.349  15.059 -0.0030 -0.6326 -0.5484
18319TIP3   OH276447   4.406   6.660   4.730  0.4665  0.5280 -0.0531
18319TIP3    H176448   4.400   6.755   4.731  0.9615  0.5824 -1.2301
18319TIP3    H276449   4.489   6.641   4.687 -0.3476 -0.4515 -1.2537
18320TIP3   OH276450   2.412   3.181  17.069 -0.0541 -0.0793 -0.4843
18320TIP3    H176451   2.397   3.258  17.014  0.3828  0.4003  0.0444
18320TIP3    H276452   2.351   3.115  17.036  0.3543  0.1142 -1.6925
18321TIP3   OH276453   0.228   0.431   2.399  0.0980  0.0238 -0.3015
18321TIP3    H176454   0.290   0.360   2.381 -0.0273  0.0624 -0.8958
18321TIP3    H276455   0.187   0.405   2.482 -0.4075 -0.9309 -0.8326
18322TIP3   OH276456   0.356   6.525   5.495  0.7286  0.2102  0.6794
18322TIP3    H176457   0.312   6.585   5.434  0.8582 -0.2580  0.1284
18322TIP3    H276458   0.418   6.477   5.441 -0.3197 -1.3901  0.8431
18323TIP3   OH276459   0.332   1.168   1.084 -0.0159 -0.1637 -0.1013
18323TIP3    H176460   0.387   1.181   1.006 -1.5669 -0.1252 -1.2292
18323TIP3    H276461   0.323   1.073   1.091  0.0257 -0.1629 -0.0375
18324TIP3   OH276462   1.959   6.145   4.876 -0.4121  0.2184  0.5486
18324TIP3    H176463   1.874   6.154   4.831 -0.5264  0.8990  0.8906
18324TIP3    H276464   1.958   6.214   4.943  1.2212  1.5850 -0.7363
18325TIP3   OH276465   6.775   0.360   0.089 -0.0099 -0.0699  0.4617
18325TIP3    H176466   6.735   0.447   0.101  0.8161  0.1415  1.7936
18325TIP3    H276467   6.731   0.325   0.011  0.1670  1.8414 -0.5791
18326TIP3   OH276468   2.195   0.738  11.270  0.5410 -0.4148 -0.3066
18326TIP3    H176469   2.166   0.723  11.360 -2.2086  1.0477 -0.8244
18326TIP3    H276470   2.281   0.779  11.279  0.2146 -0.0635  1.6853
18327TIP3   OH276471   0.740   1.777   4.227  0.1600 -0.0732 -0.0398
18327TIP3    H176472   0.746   1.745   4.317 -0.7571  1.4516  0.6062
18327TIP3    H276473   0.652   1.755   4.199  0.9468 -1.9786 -1.1920
18328TIP3   OH276474   3.348   2.243   3.281  0.0963  0.0739 -0.5560
18328TIP3    H176475   3.261   2.251   3.242  0.0208  0.1150 -0.3806
18328TIP3    H276476   3.367   2.330   3.314 -0.2312 -0.1805  0.3183
18329TIP3   OH276477   3.675   2.441  15.918  0.1859 -0.1353 -0.0943
18329TIP3    H176478   3.727   2.520  15.905 -1.1361  1.3023  2.5053
18329TIP3    H276479   3.734   2.380  15.963  1.1251 -0.5949 -1.8695
18330TIP3   OH276480   5.792   5.650   0.807  0.3622 -0.7944  0.1834
18330TIP3    H176481   5.710   5.643   0.855 -0.3561 -0.8026 -0.9885
18330TIP3    H276482   5.791   5.575   0.747  0.3524  0.1856 -1.0909
18331TIP3   OH276483   0.785   5.265   2.005 -0.2652  0.0086  0.5738
18331TIP3    H176484   0.824   5.327   1.944  1.2945 -0.2598  1.2411
18331TIP3    H276485   0.721   5.317   2.054 -0.3884  0.5992 -0.1937
18332TIP3   OH276486   6.614   0.593  11.175  0.6616 -0.1218 -0.3485
18332TIP3    H176487   6.594   0.504  11.202 -1.9824  0.3481 -0.4599
18332TIP3    H276488   6.656   0.583  11.089  0.5864 -1.2712 -0.2642
18333TIP3   OH276489   3.213   4.208   1.823 -0.3681 -0.1992 -0.3486
18333TIP3    H176490   3.197   4.194   1.917 -1.4205  0.8996 -0.3319
18333TIP3    H276491   3.213   4.121   1.785 -0.9240 -0.5987  0.5419
18334TIP3   OH276492   1.631   4.872  14.398  0.0093 -0.0672 -0.1696
18334TIP3    H176493   1.705   4.813  14.409 -0.5295 -0.8131 -0.4560
18334TIP3    H276494   1.607   4.864  14.306  0.4196  1.2027 -0.4043
18335TIP3   OH276495   3.685   2.210  14.540 -0.2264  0.5141 -0.0816
18335TIP3    H176496   3.649   2.132  14.497 -0.8533  1.4805 -1.3548
18335TIP3    H276497   3.735   2.175  14.614 -0.6407 -1.0857 -0.5181
18336TIP3   OH276498   4.609   3.428  13.526 -0.3392  0.2023 -0.5463
18336TIP3    H176499   4.704   3.436  13.520 -0.1007  0.1457  2.1071
18336TIP3    H276500   4.593   3.335  13.545 -0.9189  0.2638 -0.6869
18337TIP3   OH276501   3.948   2.946   1.224 -0.2935 -0.0792  0.2191
18337TIP3    H176502   3.937   2.883   1.295  0.3198  1.0219  1.3227
18337TIP3    H276503   3.884   2.919   1.158 -1.3233 -0.7438  1.4499
18338TIP3   OH276504   1.215   2.349  16.052  0.7907  0.5018 -0.1327
18338TIP3    H176505   1.256   2.434  16.063 -0.1068  0.7597  1.7025
18338TIP3    H276506   1.215   2.311  16.141  1.5003 -1.5732 -0.9497
18339TIP3   OH276507   5.166   1.937  12.911 -0.7608 -0.1652  0.1680
18339TIP3    H176508   5.128   1.985  12.984 -1.3928  0.5897 -0.6456
18339TIP3    H276509   5.103   1.866  12.894  0.1338 -1.2977  1.3182
18340TIP3   OH276510   0.957   3.826   2.117 -0.3350 -0.2569 -0.2016
18340TIP3    H176511   0.917   3.867   2.194  1.5796  3.6180 -0.9748
18340TIP3    H276512   0.887   3.823   2.052 -0.9263  0.5646  0.3789
18341TIP3   OH276513   5.225   3.487   0.875  0.5337  0.3924  0.1233
18341TIP3    H176514   5.186   3.412   0.830  0.8979 -0.3096  0.9608
18341TIP3    H276515   5.241   3.456   0.964 -0.2024  1.7655  0.7626
18342TIP3   OH276516   1.002   4.436  15.815  0.0678  0.0118  0.7082
18342TIP3    H176517   0.952   4.368  15.769 -1.5173  1.5719  0.0119
18342TIP3    H276518   1.048   4.483  15.746 -1.4068  1.6360  0.7797
18343TIP3   OH276519   0.833   0.459   6.190 -0.0664  0.5145 -0.5034
18343TIP3    H176520   0.770   0.501   6.132  0.7191  0.0834 -1.6930
18343TIP3    H276521   0.845   0.522   6.261 -1.2502  0.9303 -0.6425
18344TIP3   OH276522   0.516   1.655  14.732 -0.1122 -0.4909 -0.3553
18344TIP3    H176523   0.454   1.728  14.720  0.7503  0.3878  0.3145
18344TIP3    H276524   0.513   1.607  14.650 -2.8314 -1.4166  0.1472
18345TIP3   OH276525   3.001   2.960   3.542 -0.1506 -0.0308 -0.4663
18345TIP3    H176526   3.060   3.034   3.526  0.1476 -0.2430 -0.3670
18345TIP3    H276527   3.008   2.906   3.463 -0.9751  0.4495 -0.8698
18346TIP3   OH276528   0.649   6.707   6.344 -0.3745 -0.4883  0.2551
18346TIP3    H176529   0.624   6.789   6.385 -2.7508 -1.7330  1.4914
18346TIP3    H276530   0.742   6.716   6.326  0.2432  1.1477  3.5640
18347TIP3   OH276531   5.020   1.890   3.479  0.0143 -0.6425 -0.4188
18347TIP3    H176532   5.031   1.848   3.394 -2.5466  0.5770 -1.4887
18347TIP3    H276533   4.968   1.828   3.530  1.3048 -1.2485  0.2075
18348TIP3   OH276534   2.701   5.648   3.081  0.0295 -0.5562 -0.1291
18348TIP3    H176535   2.774   5.696   3.121 -0.6611 -0.6098  1.2450
18348TIP3    H276536   2.682   5.577   3.142 -3.3754  1.4273  1.3908
18349TIP3   OH276537   2.923   4.422   3.637  0.8270 -0.3355 -0.6657
18349TIP3    H176538   2.933   4.357   3.706 -1.4237 -0.3497 -0.2732
18349TIP3    H276539   2.995   4.484   3.652  0.3694 -0.2872  1.7595
18350TIP3   OH276540   4.452   1.844   2.714  0.0945  0.0587  0.7797
18350TIP3    H176541   4.476   1.834   2.806  1.4541 -0.9300  0.3574
18350TIP3    H276542   4.535   1.862   2.670 -0.2222 -1.3752 -0.4832
18351TIP3   OH276543   2.303   4.196  14.423  0.6121  0.1217 -0.2207
18351TIP3    H176544   2.254   4.114  14.433  0.2426  0.3416 -0.1961
18351TIP3    H276545   2.388   4.179  14.462 -0.0083  0.2501  1.2443
18352TIP3   OH276546   5.105   1.274   2.227 -0.1780 -0.3215 -0.0366
18352TIP3    H176547   5.054   1.317   2.296 -0.0461  0.4121 -0.3950
18352TIP3    H276548   5.069   1.308   2.145  0.0677 -0.7354 -0.3239
18353TIP3   OH276549   3.391   1.765   4.957  0.8222 -0.4024  0.2022
18353TIP3    H176550   3.469   1.746   4.904 -1.2988 -0.6145 -3.1095
18353TIP3    H276551   3.398   1.858   4.977  0.7547  0.1989 -2.2790
18354TIP3   OH276552   0.314   2.884  14.581  0.4783 -0.0128 -0.5466
18354TIP3    H176553   0.300   2.903  14.673 -0.8747  0.3385 -0.7980
18354TIP3    H276554   0.291   2.792  14.571 -0.4626  0.2351 -0.7267
18355TIP3   OH276555   2.889   6.217   0.825  0.3703  0.2954  0.0613
18355TIP3    H176556   2.848   6.262   0.898  0.4881 -1.3235  1.1865
18355TIP3    H276557   2.912   6.286   0.763 -0.3633  1.6348  1.2335
18356TIP3   OH276558   2.825   1.449  16.106  0.2397  0.5228  0.4325
18356TIP3    H176559   2.732   1.441  16.085 -0.3397  1.6635  2.3384
18356TIP3    H276560   2.862   1.500  16.033 -0.6501  0.2278 -0.2425
18357TIP3   OH276561   4.951   5.245   5.491 -0.1307 -0.5974 -0.5191
18357TIP3    H176562   5.003   5.274   5.566 -0.5654 -1.1830  0.0127
18357TIP3    H276563   4.927   5.327   5.447  1.5075 -0.3213 -0.9786
18358TIP3   OH276564   2.738   4.339   5.765  0.3670 -0.3432  0.5136
18358TIP3    H176565   2.789   4.259   5.770 -0.8807 -1.1187  1.8239
18358TIP3    H276566   2.647   4.310   5.776 -0.4390  0.9314 -2.0432
18359TIP3   OH276567   5.218   6.027   2.329  0.0848 -0.3254  0.1456
18359TIP3    H176568   5.271   6.076   2.266 -0.3369  1.2350  0.9520
18359TIP3    H276569   5.145   5.992   2.277 -0.3534  1.0778 -0.2132
18360TIP3   OH276570   4.872   2.728  11.254  0.2389 -0.4527 -0.5570
18360TIP3    H176571   4.932   2.794  11.290  0.0156 -0.7933  0.4708
18360TIP3    H276572   4.828   2.773  11.181 -0.2750  0.7229  0.4438
18361TIP3   OH276573   1.895   4.896  15.655  0.5439  0.0276  0.2950
18361TIP3    H176574   1.884   4.802  15.639 -1.2349 -0.2650  2.7594
18361TIP3    H276575   1.863   4.910  15.744 -2.2053  3.4674 -0.9777
18362TIP3   OH276576   6.671   3.253   4.827 -0.0321  0.4096 -0.6337
18362TIP3    H176577   6.713   3.267   4.742 -0.1494  1.0466 -0.5972
18362TIP3    H276578   6.644   3.162   4.826 -0.8040  0.6267 -1.6368
18363TIP3   OH276579   4.598   2.659   0.431  0.8199 -0.1151  0.4032
18363TIP3    H176580   4.507   2.630   0.428  1.1969 -2.1387  3.6727
18363TIP3    H276581   4.643   2.592   0.482  3.4744  2.4278  1.7102
18364TIP3   OH276582   5.868   3.178  12.171  0.0174 -0.2728  0.1913
18364TIP3    H176583   5.857   3.248  12.107  0.2119 -1.0332 -0.6822
18364TIP3    H276584   5.782   3.168  12.212  0.5355  2.1443  2.1081
18365TIP3   OH276585   0.003   0.679   0.115  0.4770 -0.5823 -0.5419
18365TIP3    H176586   0.085   0.727   0.130  0.9683 -0.9490 -1.8648
18365TIP3    H276587  -0.022   0.646   0.201 -0.3875  2.7447  0.6418
18366TIP3   OH276588   5.147   0.691  11.347 -0.3298  0.3080  0.8733
18366TIP3    H176589   5.182   0.778  11.366 -0.7541  0.4398  1.0694
18366TIP3    H276590   5.116   0.697  11.257  0.2130  0.1657  0.6696
18367TIP3   OH276591   0.541   5.627   4.494  0.3178  0.3765 -0.4511
18367TIP3    H176592   0.518   5.600   4.583  1.2949  0.5917 -0.1233
18367TIP3    H276593   0.634   5.609   4.487  0.5233  1.5904 -0.9903
18368TIP3   OH276594   1.317   4.127   6.786  0.2508  0.0676  0.0858
18368TIP3    H176595   1.282   4.057   6.842  2.0093 -0.2176  0.8926
18368TIP3    H276596   1.271   4.206   6.813 -1.3928 -0.6619 -0.4746
18369TIP3   OH276597   4.179   3.745  16.328 -0.2883  0.9287  0.0127
18369TIP3    H176598   4.150   3.719  16.415 -1.1250  2.7833  0.3624
18369TIP3    H276599   4.269   3.774  16.340 -0.0634  0.2224  0.0454
18370TIP3   OH276600   3.478   6.509  13.282  0.0128  0.2237  0.2635
18370TIP3    H176601   3.437   6.539  13.200  0.7016  0.7445  0.1010
18370TIP3    H276602   3.446   6.420  13.293 -0.2471  0.2157 -0.4756
18371TIP3   OH276603   3.289   0.353   0.867  0.0847  0.1142  0.3782
18371TIP3    H176604   3.197   0.366   0.843  0.2199 -0.9681 -0.8384
18371TIP3    H276605   3.330   0.439   0.854 -0.4663  0.2542 -0.5100
18372TIP3   OH276606   4.794   5.582  16.428  0.2271  0.0641 -0.6409
18372TIP3    H176607   4.762   5.651  16.486  0.1782  0.4044 -1.0699
18372TIP3    H276608   4.783   5.501  16.479 -0.3320  0.2952 -0.3831
18373TIP3   OH276609   2.818   2.692   6.577  0.1697 -0.5159 -0.1881
18373TIP3    H176610   2.806   2.757   6.508  0.6855  0.6755  0.8236
18373TIP3    H276611   2.898   2.645   6.551 -0.6047 -1.2601 -1.2962
18374TIP3   OH276612   4.062   2.676   0.923 -0.0521  0.1284 -0.2922
18374TIP3    H176613   4.031   2.732   0.852 -1.2965 -0.1599 -0.0102
18374TIP3    H276614   3.988   2.618   0.942  0.7629 -0.7709  0.2652
18375TIP3   OH276615   3.260   4.391  16.900 -0.3654  0.1389 -0.3952
18375TIP3    H176616   3.298   4.477  16.879  0.9818 -0.3662 -0.1262
18375TIP3    H276617   3.185   4.412  16.955 -0.4420  1.1774 -0.8571
18376TIP3   OH276618   3.973   2.077  16.317  0.0125 -0.2709 -0.2894
18376TIP3    H176619   3.959   2.063  16.224 -1.2992 -1.4114  0.0390
18376TIP3    H276620   3.964   1.990  16.357  0.4533  0.2019  0.9041
18377TIP3   OH276621   1.127   1.630  14.528  0.7131  0.0180 -0.1292
18377TIP3    H176622   1.206   1.647  14.579 -0.6862  1.3372  1.7271
18377TIP3    H276623   1.110   1.536  14.540  1.5520 -0.1108  0.0899
18378TIP3   OH276624   5.629   1.871  15.565  0.3790  0.3192  0.2181
18378TIP3    H176625   5.536   1.888  15.548  0.5175 -0.3114 -1.3868
18378TIP3    H276626   5.631   1.834  15.653 -0.8830  0.4135  0.3090
18379TIP3   OH276627   1.597   4.058  13.772  0.0132  0.0613  0.6699
18379TIP3    H176628   1.564   4.147  13.777 -2.6304 -0.6097 -1.7519
18379TIP3    H276629   1.688   4.067  13.745 -0.7269  2.0886 -1.4890
18380TIP3   OH276630   0.282   5.672   0.706 -0.6482 -0.1948  0.1283
18380TIP3    H176631   0.278   5.698   0.798 -0.6097  0.2148  0.0141
18380TIP3    H276632   0.276   5.576   0.708 -1.7139 -0.1304  0.4839
18381TIP3   OH276633   6.302   6.381  12.428 -0.2024  0.0853 -0.5952
18381TIP3    H176634   6.364   6.453  12.442 -1.0279  0.8396 -0.7572
18381TIP3    H276635   6.273   6.358  12.516  1.1121 -1.0218 -0.4145
18382TIP3   OH276636   4.740   6.146  10.615 -0.1452  0.2491 -0.7782
18382TIP3    H176637   4.820   6.196  10.598 -0.2284  0.1885 -1.3523
18382TIP3    H276638   4.767   6.076  10.674 -0.0025  0.8986 -0.0546
18383TIP3   OH276639   1.276   1.169   3.070 -0.1582  0.1831 -0.3014
18383TIP3    H176640   1.359   1.123   3.084 -1.2989 -2.6463 -1.9193
18383TIP3    H276641   1.221   1.142   3.143 -0.5744 -0.4317 -0.8272
18384TIP3   OH276642   6.221   1.269   0.791  0.3449 -0.3150  0.2995
18384TIP3    H176643   6.234   1.305   0.703  0.2502  0.4071  0.5697
18384TIP3    H276644   6.188   1.181   0.777 -0.9103  0.2485 -0.4021
18385TIP3   OH276645   3.665   0.216   0.637  0.5828 -0.0552 -0.0338
18385TIP3    H176646   3.742   0.261   0.603  0.8742 -0.0428  0.6175
18385TIP3    H276647   3.651   0.144   0.576  0.0084  0.9890 -1.1854
18386TIP3   OH276648   3.427   2.868   4.044  0.1236  0.1341  0.4499
18386TIP3    H176649   3.391   2.794   3.995 -1.0572  0.6977  0.4364
18386TIP3    H276650   3.397   2.854   4.134 -1.3541  1.3200  0.1842
18387TIP3   OH276651   5.441   1.340   1.790  0.0465 -0.3578  0.5588
18387TIP3    H176652   5.463   1.257   1.747 -0.9762 -0.5433  0.3721
18387TIP3    H276653   5.360   1.322   1.837  0.7574  0.0436  2.0137
18388TIP3   OH276654   0.364   0.257  14.282 -0.3794  0.1559  0.4728
18388TIP3    H176655   0.307   0.331  14.305 -0.7097  0.0274  0.0559
18388TIP3    H276656   0.313   0.204  14.222  0.1906  0.0516  0.0755
18389TIP3   OH276657   2.589   0.974  12.783  0.3636 -0.2084 -0.2514
18389TIP3    H176658   2.587   1.039  12.712  1.4449 -0.3182 -0.3933
18389TIP3    H276659   2.648   1.011  12.848  0.2001 -0.5985  0.1242
18390TIP3   OH276660   6.765   6.248   4.445 -0.8359  0.1394  0.0979
18390TIP3    H176661   6.693   6.299   4.483 -0.1718  0.6409  0.7082
18390TIP3    H276662   6.798   6.195   4.517  0.8247  1.5428  0.4351
18391TIP3   OH276663   5.614   2.022   3.036 -0.0576 -0.0821 -0.0069
18391TIP3    H176664   5.657   2.093   3.084 -0.8510  0.2613  0.2057
18391TIP3    H276665   5.643   2.035   2.945 -0.9930  1.1546 -0.1643
18392TIP3   OH276666   4.866   5.285   3.739 -0.1427 -0.3246  0.5578
18392TIP3    H176667   4.848   5.322   3.652 -1.2177 -0.1310  0.8409
18392TIP3    H276668   4.913   5.355   3.785  1.4584 -0.8438 -0.2111
18393TIP3   OH276669   5.715   4.831  15.116  0.1911 -0.0486 -0.3368
18393TIP3    H176670   5.766   4.861  15.040 -0.2869 -1.6694 -1.3617
18393TIP3    H276671   5.627   4.865  15.100  0.5166  1.2008  0.4819
18394TIP3   OH276672   6.679   6.427  12.285  0.9314 -0.3389  0.5386
18394TIP3    H176673   6.734   6.438  12.207 -1.3673  0.8538 -1.0190
18394TIP3    H276674   6.619   6.355  12.263  0.3236 -0.0670  1.2482
18395TIP3   OH276675   2.256   2.521   1.715 -0.4848 -0.1781  0.3456
18395TIP3    H176676   2.317   2.447   1.704  0.0078  0.4756 -1.8112
18395TIP3    H276677   2.169   2.481   1.708 -0.3156 -0.8382  1.5240
18396TIP3   OH276678   2.444   2.339  10.599  0.2202  0.2795 -0.1805
18396TIP3    H176679   2.453   2.434  10.606 -0.9513  0.4080 -0.2692
18396TIP3    H276680   2.522   2.305  10.644  1.2977  1.2714 -1.2053
18397TIP3   OH276681   0.636   2.174   5.218 -0.3430  0.0565  0.2644
18397TIP3    H176682   0.645   2.269   5.226  1.0052 -0.1311  1.3852
18397TIP3    H276683   0.564   2.162   5.157 -1.1377  1.7977  0.7891
18398TIP3   OH276684   2.804   0.520   0.208 -0.3588  0.4408  0.3781
18398TIP3    H176685   2.892   0.485   0.223 -0.3762 -0.7567 -1.9407
18398TIP3    H276686   2.761   0.514   0.294  1.3700 -0.2517  1.2407
18399TIP3   OH276687   4.646   0.365   4.045 -0.3612  0.1456  0.7337
18399TIP3    H176688   4.647   0.438   4.108 -0.3854 -1.1035  2.2368
18399TIP3    H276689   4.554   0.356   4.020 -0.6372 -0.4836  1.9183
18400TIP3   OH276690   6.206   1.598  13.802 -0.0694 -0.7342  0.2611
18400TIP3    H176691   6.114   1.590  13.826  0.2187 -0.8957  1.3582
18400TIP3    H276692   6.207   1.593  13.707 -1.0985 -1.7648  0.2860
18401TIP3   OH276693   4.396   4.098  14.586  0.2334  0.2686 -0.5624
18401TIP3    H176694   4.459   4.054  14.643  0.9490 -0.7537 -2.0746
18401TIP3    H276695   4.328   4.130  14.646  2.3277  1.7397  1.1601
18402TIP3   OH276696   3.442   2.516  12.463 -0.1582  0.2085  0.3437
18402TIP3    H176697   3.508   2.467  12.512  0.3855  0.3989 -0.1889
18402TIP3    H276698   3.361   2.503  12.513  0.2077 -0.3030  0.8211
18403TIP3   OH276699   1.112   1.696   1.934  0.0731 -0.1207 -0.0244
18403TIP3    H176700   1.170   1.645   1.878  0.6846  0.7241 -0.1816
18403TIP3    H276701   1.146   1.785   1.930  0.5519 -0.1337  2.2025
18404TIP3   OH276702   5.657   6.361   0.576  0.2536  0.3359 -0.3217
18404TIP3    H176703   5.587   6.425   0.565 -0.2067  0.2073  1.4670
18404TIP3    H276704   5.689   6.376   0.665  1.9675 -0.1517 -0.8177
18405TIP3   OH276705   1.907   3.647   3.954 -0.6797  0.5531 -0.4365
18405TIP3    H176706   1.943   3.562   3.979 -0.5729 -0.0065 -2.3325
18405TIP3    H276707   1.813   3.640   3.972 -0.6501  0.0764 -0.4507
18406TIP3   OH276708   1.571   6.625   5.223  0.6439  0.4293 -0.1059
18406TIP3    H176709   1.545   6.649   5.133  2.8338  0.8725 -0.6631
18406TIP3    H276710   1.492   6.583   5.259 -0.3552  0.3583 -2.1765
18407TIP3   OH276711   5.219   1.888  11.142 -0.3097 -0.8533  0.1582
18407TIP3    H176712   5.148   1.906  11.204  1.5211 -0.1416  2.1973
18407TIP3    H276713   5.232   1.793  11.148  1.1306 -0.5937  2.5204
18408TIP3   OH276714   3.784   4.554  10.867 -0.2962 -0.1828 -0.3867
18408TIP3    H176715   3.794   4.510  10.952 -1.3633 -0.7181 -0.5220
18408TIP3    H276716   3.824   4.640  10.880  2.1171 -1.2444 -0.1921
18409TIP3   OH276717   5.772   2.382  13.340  0.1447  0.0269 -0.3761
18409TIP3    H176718   5.683   2.405  13.366 -0.4212 -1.5829 -0.7801
18409TIP3    H276719   5.821   2.464  13.347 -1.9198  1.5785 -2.6714
18410TIP3   OH276720   0.407   3.877  14.976  0.2392  0.1001  0.5167
18410TIP3    H176721   0.342   3.834  15.031 -1.0940  1.1475 -0.1784
18410TIP3    H276722   0.483   3.888  15.033 -0.7787  0.3608  1.8909
18411TIP3   OH276723   3.529   5.660   3.163  0.4467 -0.2394 -0.6919
18411TIP3    H176724   3.580   5.646   3.083  0.2242 -1.4096 -0.6512
18411TIP3    H276725   3.594   5.671   3.232  0.6628 -0.9238 -0.7738
18412TIP3   OH276726   3.556   1.976   4.982  0.4101  0.0829 -0.4434
18412TIP3    H176727   3.593   2.006   5.065 -0.7919 -2.3095  1.0839
18412TIP3    H276728   3.620   1.913   4.949  0.0488 -0.3328 -0.3629
18413TIP3   OH276729   4.058   3.107  10.579 -0.3919 -0.2997 -0.0906
18413TIP3    H176730   3.994   3.121  10.509 -2.4141 -1.1013  1.5326
18413TIP3    H276731   4.025   3.157  10.653  1.6775  0.4596  0.4118
18414TIP3   OH276732   0.525   0.424   5.205 -0.3315 -0.0441 -0.3914
18414TIP3    H176733   0.591   0.377   5.155  0.1401 -0.3630  0.5171
18414TIP3    H276734   0.547   0.407   5.296 -1.3118  0.3443 -0.0700
18415TIP3   OH276735   2.193   2.496  11.618 -0.4927 -0.4853  0.3081
18415TIP3    H176736   2.135   2.525  11.547 -1.9544  1.0343  2.0087
18415TIP3    H276737   2.134   2.477  11.691  1.0311 -0.8917  1.4881
18416TIP3   OH276738   0.768   5.041  15.106  0.2747  0.1407 -0.2870
18416TIP3    H176739   0.741   5.098  15.178 -0.0710  0.8141 -0.9391
18416TIP3    H276740   0.853   5.007  15.133 -0.1158 -0.0989  0.7084
18417TIP3   OH276741   2.402   2.811  16.899  0.1771 -0.3668 -0.3977
18417TIP3    H176742   2.377   2.892  16.944 -0.3169 -1.2343  0.9746
18417TIP3    H276743   2.335   2.747  16.926  1.5786 -1.7034  0.0875
18418TIP3   OH276744   3.082   3.473  14.266  0.4485  0.1059  0.3808
18418TIP3    H176745   3.159   3.454  14.213  0.9125  2.6359  0.0493
18418TIP3    H276746   3.055   3.387  14.300  1.8189 -1.1923 -1.5943
18419TIP3   OH276747   1.771   1.442   3.566  0.1992  0.1090  0.0189
18419TIP3    H176748   1.779   1.348   3.581 -1.6643 -0.0283  0.4283
18419TIP3    H276749   1.749   1.450   3.473  1.2122  0.2153 -0.2201
18420TIP3   OH276750   4.746   0.996   2.608 -0.3140  0.1711  0.1263
18420TIP3    H176751   4.705   0.977   2.524  0.2853  0.0323 -0.1419
18420TIP3    H276752   4.830   0.949   2.605 -0.4758 -0.1922  0.9751
18421TIP3   OH276753   1.548   5.939   2.507 -0.7599 -0.0453 -0.2256
18421TIP3    H176754   1.469   5.909   2.550 -0.3236  0.9893  1.3686
18421TIP3    H276755   1.620   5.904   2.560 -0.2252  2.6600  0.9926
18422TIP3   OH276756   1.698   5.738  15.936  0.3311 -0.0148 -0.0470
18422TIP3    H176757   1.735   5.794  16.004  2.0500  0.5882 -1.4064
18422TIP3    H276758   1.723   5.781  15.854  0.4205 -2.0040 -1.1045
18423TIP3   OH276759   5.240   5.429  14.541 -0.0244 -0.0196 -0.4259
18423TIP3    H176760   5.297   5.417  14.465 -0.8043 -0.0655 -1.0204
18423TIP3    H276761   5.153   5.402  14.510 -0.3545 -0.0281  0.4816
18424TIP3   OH276762   0.787   0.671   1.895  0.1080 -0.0967 -0.0646
18424TIP3    H176763   0.792   0.705   1.806  0.5638 -0.4689 -0.1907
18424TIP3    H276764   0.878   0.675   1.927  0.1659 -1.1152 -0.0648
18425TIP3   OH276765   3.005   3.719  11.751 -0.1970  0.0351  0.4245
18425TIP3    H176766   2.949   3.761  11.686 -0.6215  2.0244  1.9915
18425TIP3    H276767   2.962   3.735  11.835  2.2854  1.0203  1.6167
18426TIP3   OH276768   4.736   2.071  12.704  0.1674 -0.7967  0.3716
18426TIP3    H176769   4.725   1.989  12.751 -1.4746 -0.5885  0.4149
18426TIP3    H276770   4.648   2.092  12.672  0.5541  0.9083  0.3278
18427TIP3   OH276771   2.690   3.574  11.702 -0.5220 -0.0263  0.0984
18427TIP3    H176772   2.740   3.540  11.628  0.5962  0.9705  0.3814
18427TIP3    H276773   2.719   3.522  11.777  0.3427  0.7436  0.3169
18428TIP3   OH276774   3.435   0.889  14.305  0.9024  0.0738 -0.0026
18428TIP3    H176775   3.475   0.911  14.389  2.7944 -1.9806 -0.2771
18428TIP3    H276776   3.359   0.835  14.328  0.2364  1.1462  0.4074
18429TIP3   OH276777   2.129   5.867  11.242 -0.1627  0.1689 -0.1444
18429TIP3    H176778   2.130   5.844  11.149  2.9680  1.3323 -0.5157
18429TIP3    H276779   2.208   5.827  11.279 -1.2673 -0.1716  2.0212
18430TIP3   OH276780   4.506   3.144  15.841  0.5065 -0.1111 -0.0696
18430TIP3    H176781   4.552   3.207  15.897  1.5776 -1.1904  0.3027
18430TIP3    H276782   4.447   3.097  15.900 -0.3295  0.5505 -0.3560
18431TIP3   OH276783   2.126   5.204   5.971  0.1080  0.0769 -0.0899
18431TIP3    H176784   2.086   5.159   6.046 -0.6931  1.4580  0.3398
18431TIP3    H276785   2.153   5.133   5.913 -1.3325 -0.9745  0.4522
18432TIP3   OH276786   6.219   4.112  11.973  0.3047  0.6123 -0.1259
18432TIP3    H176787   6.302   4.145  12.009  0.8209 -0.1735 -0.5739
18432TIP3    H276788   6.153   4.144  12.034  1.0792 -0.0417  1.1070
18433TIP3   OH276789   1.839   1.100  12.424  0.8358 -0.2117  0.1397
18433TIP3    H176790   1.888   1.144  12.494  0.5214 -1.5978  1.2722
18433TIP3    H276791   1.789   1.170  12.383 -0.1121  0.4736  2.2772
18434TIP3   OH276792   3.109   0.518  10.384 -0.0370 -0.5526  0.0811
18434TIP3    H176793   3.107   0.559  10.298  0.1818  0.0438  0.3512
18434TIP3    H276794   3.086   0.427  10.368  1.0982 -0.7206 -0.7695
18435TIP3   OH276795   1.558   1.918  15.865 -0.5401  0.3793 -0.3774
18435TIP3    H176796   1.581   1.907  15.773 -2.3638  0.7769 -0.9306
18435TIP3    H276797   1.492   1.850  15.881  2.7490 -2.6280  1.8981
18436TIP3   OH276798   0.307   2.200   2.148 -0.4022 -0.3882  0.0963
18436TIP3    H176799   0.367   2.184   2.220  0.3537 -0.3504 -0.5117
18436TIP3    H276800   0.359   2.250   2.085 -1.7287  1.6730  0.5465
18437TIP3   OH276801   0.828   1.299  15.473 -0.7460 -0.0682 -0.0743
18437TIP3    H176802   0.874   1.215  15.486  0.1379  0.3417 -0.4481
18437TIP3    H276803   0.775   1.285  15.394  1.2996  0.4581 -1.6316
18438TIP3   OH276804   2.806   5.932  16.886  0.0796  0.0818 -0.4614
18438TIP3    H176805   2.802   5.935  16.791  1.4324 -0.3112 -0.5620
18438TIP3    H276806   2.898   5.953  16.906 -0.0648 -0.3457  0.7167
18439TIP3   OH276807   1.763   1.933  12.010 -0.6036  0.2939 -0.0071
18439TIP3    H176808   1.737   2.009  11.956 -0.5285  0.8148  0.6762
18439TIP3    H276809   1.857   1.925  11.995 -0.0674  2.0444  1.9790
18440TIP3   OH276810   2.351   4.310  16.893 -0.0570  0.3488 -0.7383
18440TIP3    H176811   2.440   4.312  16.928  0.0243  0.2140 -0.9379
18440TIP3    H276812   2.314   4.395  16.919 -0.0802  0.1545 -0.1187
18441TIP3   OH276813   1.421   3.512  14.840 -0.0170  0.3588  0.2995
18441TIP3    H176814   1.387   3.447  14.902 -0.6722 -0.4579 -0.8953
18441TIP3    H276815   1.501   3.473  14.806  0.7743  1.1546  1.1867
18442TIP3   OH276816   5.419   4.560  14.271 -0.2365  0.0068 -0.2728
18442TIP3    H176817   5.392   4.534  14.183 -0.6346  1.7880 -0.7189
18442TIP3    H276818   5.401   4.483  14.326 -2.2891 -0.3041 -1.3067
18443TIP3   OH276819   2.754   6.330   4.393  0.0176  0.2478 -0.1719
18443TIP3    H176820   2.794   6.368   4.471  1.5558 -0.3562 -0.6350
18443TIP3    H276821   2.682   6.277   4.427  1.0445 -0.5089  0.9049
18444TIP3   OH276822   3.755   4.171   1.305 -0.4275  0.1526 -0.1089
18444TIP3    H176823   3.822   4.116   1.264 -0.0512  0.3997  0.1656
18444TIP3    H276824   3.700   4.201   1.232 -1.2639 -1.4070 -0.1628
18445TIP3   OH276825   2.600   4.136  16.516 -0.0757 -0.0391  0.5172
18445TIP3    H176826   2.510   4.130  16.547 -0.3860  2.3937  0.2702
18445TIP3    H276827   2.592   4.160  16.424  0.7886  1.2751  0.7591
18446TIP3   OH276828   3.777   0.460   1.747 -0.5051 -0.5934 -0.2616
18446TIP3    H176829   3.714   0.397   1.712 -0.8555 -0.1214 -0.5069
18446TIP3    H276830   3.740   0.545   1.723 -1.2584 -0.1839  2.0285
18447TIP3   OH276831   5.044   3.505  13.166 -0.2930 -0.3176 -0.2442
18447TIP3    H176832   5.109   3.522  13.235  0.3341 -0.7285 -0.7268
18447TIP3    H276833   5.095   3.469  13.094 -1.1113 -0.9161 -0.5252
18448TIP3   OH276834   6.581   2.833  11.353  0.1170  0.9258  0.9120
18448TIP3    H176835   6.488   2.843  11.334  0.0494  0.4727  0.9854
18448TIP3    H276836   6.626   2.858  11.272 -0.1569 -0.8034  0.1714
18449TIP3   OH276837   1.937   6.505   2.127 -0.1994  0.4006  0.2046
18449TIP3    H176838   1.916   6.424   2.081  0.1207 -1.1557  2.6125
18449TIP3    H276839   2.024   6.529   2.094 -0.6297  0.2545 -1.1138
18450TIP3   OH276840   0.484   6.063   6.160  0.3131  0.1525  0.3992
18450TIP3    H176841   0.490   6.146   6.111 -0.2849 -0.1254 -0.1582
18450TIP3    H276842   0.536   6.001   6.108  1.9114  0.4826  1.5272
18451TIP3   OH276843   1.639   3.641   1.182 -0.2525  0.0121  0.5415
18451TIP3    H176844   1.547   3.661   1.203  0.3662  1.0388  2.5577
18451TIP3    H276845   1.661   3.567   1.238  0.2581  0.0319  0.3687
18452TIP3   OH276846   2.386   1.350  12.353  0.5712  0.5316 -0.5257
18452TIP3    H176847   2.395   1.287  12.282  2.1446  0.5377 -0.3664
18452TIP3    H276848   2.476   1.369  12.380  0.0092  0.5013  1.5044
18453TIP3   OH276849   3.252   5.658   3.832 -0.2587 -0.0391  0.1240
18453TIP3    H176850   3.341   5.623   3.827 -0.4010 -0.6780  1.5312
18453TIP3    H276851   3.220   5.631   3.919 -1.3125  1.4132  0.2277
18454TIP3   OH276852   0.075   5.062   3.639  0.4109  0.4018 -0.6156
18454TIP3    H176853   0.027   4.978   3.639 -0.3356  0.8084  0.2399
18454TIP3    H276854   0.074   5.090   3.547 -0.7220  0.2300 -0.6771
18455TIP3   OH276855   1.995   6.799  15.366 -0.0388 -0.6517  0.0672
18455TIP3    H176856   1.907   6.790  15.328 -1.3128  1.6401  2.1675
18455TIP3    H276857   2.009   6.893  15.372 -0.9326 -0.4430  6.7467
18456TIP3   OH276858   6.435   5.336  16.413 -0.3082 -0.4346  0.7668
18456TIP3    H176859   6.447   5.298  16.326 -0.5144  0.1739  0.4682
18456TIP3    H276860   6.521   5.326  16.455 -0.1297 -0.4894  0.3987
18457TIP3   OH276861   6.401   3.052  15.673 -0.0932 -0.7831 -0.0516
18457TIP3    H176862   6.417   3.014  15.587  1.2335  0.1435 -0.2489
18457TIP3    H276863   6.476   3.023  15.726 -0.2724 -0.3627  0.4398
18458TIP3   OH276864   4.586   1.353   0.872 -0.3641  0.1010 -0.5696
18458TIP3    H176865   4.669   1.365   0.827 -0.2090 -1.3300 -0.7232
18458TIP3    H276866   4.522   1.399   0.817  0.5265  2.7653  0.4961
18459TIP3   OH276867   1.775   4.483   5.040  0.1717 -0.0660  0.3866
18459TIP3    H176868   1.861   4.511   5.074  0.0872  1.2060 -0.3835
18459TIP3    H276869   1.712   4.531   5.094  0.0234  1.2373 -0.8932
18460TIP3   OH276870   6.247   2.162   0.225 -0.2587  0.2371 -0.1967
18460TIP3    H176871   6.263   2.256   0.216  1.9300 -0.1996 -1.5844
18460TIP3    H276872   6.170   2.145   0.170 -0.6271  1.1936  0.0084
18461TIP3   OH276873   6.240   2.339  11.987  0.5153  0.4289 -0.3764
18461TIP3    H176874   6.268   2.358  12.077  1.1167 -0.6922 -0.3154
18461TIP3    H276875   6.195   2.419  11.959  1.7153  1.3976  0.3602
18462TIP3   OH276876   4.982   5.093   0.952 -0.2318 -0.5119  0.5701
18462TIP3    H176877   4.940   5.179   0.950 -1.0941 -0.9219 -0.3308
18462TIP3    H276878   4.921   5.038   1.001 -1.1060 -1.2509 -1.2329
18463TIP3   OH276879   1.602   6.569  16.489  1.0896  0.4283  0.1601
18463TIP3    H176880   1.576   6.626  16.416  0.2551  0.5301  0.5257
18463TIP3    H276881   1.522   6.521  16.511  1.6694 -0.5732  0.1471
18464TIP3   OH276882   1.526   0.422  15.372  0.5847 -0.1246 -0.3138
18464TIP3    H176883   1.609   0.469  15.381  0.4039  0.0287  0.5872
18464TIP3    H276884   1.474   0.450  15.447 -0.7271  0.6592 -1.4683
18465TIP3   OH276885   5.824   6.142  15.232 -0.4564  0.6317  0.7931
18465TIP3    H176886   5.763   6.160  15.161  1.8591  4.6066 -0.4840
18465TIP3    H276887   5.874   6.066  15.201 -1.3315  0.5432 -0.4829
18466TIP3   OH276888   3.399   0.401  12.766 -0.1834 -0.1017  0.1025
18466TIP3    H176889   3.340   0.470  12.734 -0.8671 -0.8082 -0.1842
18466TIP3    H276890   3.373   0.387  12.857  1.7102  1.8529  1.0331
18467TIP3   OH276891   6.361   0.952   5.846  0.5019  0.3025 -0.6416
18467TIP3    H176892   6.409   0.886   5.898  1.4515  2.5028  1.4808
18467TIP3    H276893   6.269   0.926   5.853  0.9249 -1.3872 -0.8306
18468TIP3   OH276894   6.661   5.411   5.635  0.2339  0.0391  0.6644
18468TIP3    H176895   6.623   5.419   5.548  0.3028  0.0912  0.6397
18468TIP3    H276896   6.598   5.357   5.683 -0.4861  1.1257  0.9792
18469TIP3   OH276897   1.658   5.782  16.499 -0.0430 -0.0931  0.2244
18469TIP3    H176898   1.712   5.715  16.456  0.1847  0.1631  0.1035
18469TIP3    H276899   1.584   5.734  16.535  0.3425 -0.4790  0.5243
18470TIP3   OH276900   3.732   3.659   0.787 -0.0846 -0.2682  0.3349
18470TIP3    H176901   3.796   3.648   0.857  1.0120  0.3567 -0.5418
18470TIP3    H276902   3.760   3.598   0.719 -1.2449 -1.0050  0.4946
18471TIP3   OH276903   4.375   3.789   4.392 -0.3179  0.1056 -0.1838
18471TIP3    H176904   4.289   3.755   4.416  0.7822 -2.0562  0.9923
18471TIP3    H276905   4.435   3.748   4.454  1.5736  1.5557 -0.9737
18472TIP3   OH276906   4.317   2.987   3.008  0.2067 -0.0717  0.6099
18472TIP3    H176907   4.263   3.017   2.934  3.5633  1.9294 -1.2578
18472TIP3    H276908   4.377   2.923   2.970 -0.8633 -2.4808  2.6973
18473TIP3   OH276909   5.874   4.936   4.664 -0.3538 -0.4620  0.6978
18473TIP3    H176910   5.926   4.871   4.711  0.4019 -0.9683 -0.7908
18473TIP3    H276911   5.909   5.021   4.692 -0.3757 -0.7223  1.5385
18474TIP3   OH276912   6.647   5.453  12.770  0.6466  0.4945 -0.2764
18474TIP3    H176913   6.620   5.384  12.831 -1.2516  1.6497  0.2835
18474TIP3    H276914   6.601   5.431  12.688  0.7993  0.5742 -0.3838
18475TIP3   OH276915   2.673   4.232  15.248 -0.0368 -0.3820 -0.2601
18475TIP3    H176916   2.618   4.173  15.300 -0.9831 -0.8127 -1.7132
18475TIP3    H276917   2.647   4.319  15.277  0.3289 -0.6137  0.8490
18476TIP3   OH276918   1.561   4.548  13.800 -0.3524  0.2098 -0.3117
18476TIP3    H176919   1.524   4.476  13.851 -0.7265  0.5756 -0.0535
18476TIP3    H276920   1.519   4.626  13.836 -0.3023  0.5130 -0.9002
18477TIP3   OH276921   5.026   5.080  13.964 -0.2153  0.0173  0.4873
18477TIP3    H176922   5.109   5.120  13.989 -0.4804  0.8367  0.0871
18477TIP3    H276923   5.019   5.003  14.020 -0.3903  1.3324  2.3561
18478TIP3   OH276924   4.244   4.159   1.305  0.0738 -0.1264  0.8193
18478TIP3    H176925   4.168   4.185   1.356 -0.6775  1.8836 -1.1476
18478TIP3    H276926   4.212   4.091   1.246  0.4436 -1.0046  1.6033
18479TIP3   OH276927   5.205   4.326   2.760  0.0019 -0.1249 -0.1724
18479TIP3    H176928   5.180   4.354   2.848  0.3432  1.0030 -0.4161
18479TIP3    H276929   5.298   4.306   2.767 -0.1412 -0.7751 -0.1055
18480TIP3   OH276930   1.242   2.725   4.926 -0.0487  0.1850  0.1870
18480TIP3    H176931   1.269   2.636   4.949 -0.1361  0.7966  3.0488
18480TIP3    H276932   1.319   2.778   4.942  0.4964  0.5355 -3.0175
18481TIP3   OH276933   4.771   3.081  13.763 -0.2390 -0.3422  0.1153
18481TIP3    H176934   4.854   3.124  13.746 -0.0155 -0.3455  1.1085
18481TIP3    H276935   4.792   2.988  13.768 -0.3229 -0.3548  0.2447
18482TIP3   OH276936   6.807   5.370   4.087 -0.0225  0.2636 -0.5171
18482TIP3    H176937   6.819   5.463   4.070 -0.6644  0.3918 -0.3151
18482TIP3    H276938   6.801   5.330   4.001  0.0915  0.4339 -0.6042
18483TIP3   OH276939   6.143   0.258  16.830  0.1864  0.0378  0.0684
18483TIP3    H176940   6.112   0.331  16.776  1.9341  2.0866  1.6824
18483TIP3    H276941   6.078   0.252  16.901 -0.6436 -0.8876 -0.7265
18484TIP3   OH276942   0.336   4.132  10.452 -0.0701 -0.1071  0.1623
18484TIP3    H176943   0.310   4.155  10.363  2.3319  1.6880 -0.1655
18484TIP3    H276944   0.399   4.061  10.441 -0.5679 -0.6207  0.5417
18485TIP3   OH276945   2.442   6.707  15.406 -0.2142  0.6875  0.6360
18485TIP3    H176946   2.476   6.776  15.463 -0.5780  0.0535  1.6457
18485TIP3    H276947   2.390   6.754  15.341  1.6536  1.5850 -0.2977
18486TIP3   OH276948   5.489   4.197   0.616  0.6437 -0.1632  0.7953
18486TIP3    H176949   5.516   4.138   0.545  1.2453  2.7229 -1.5846
18486TIP3    H276950   5.393   4.198   0.612  0.6701  0.6917 -0.7685
18487TIP3   OH276951   1.294   4.151   3.597  0.0111 -0.3552 -0.1413
18487TIP3    H176952   1.301   4.236   3.642  0.0732 -0.0523 -0.7167
18487TIP3    H276953   1.239   4.098   3.655  0.3016 -0.0564  0.4174
18488TIP3   OH276954   5.974   4.229   3.191 -0.1551  0.6329 -0.1224
18488TIP3    H176955   5.884   4.204   3.172 -0.2551 -0.3200  1.4492
18488TIP3    H276956   6.026   4.180   3.127 -0.6380 -0.3669  0.2271
18489TIP3   OH276957   1.004   5.551  11.817 -0.2586  0.2086 -0.1765
18489TIP3    H176958   0.932   5.599  11.859 -0.1236  0.3295 -0.0852
18489TIP3    H276959   1.010   5.469  11.868 -0.6158  0.0043 -0.4517
18490TIP3   OH276960   5.127   5.996  12.313  0.0794  0.5014  0.1840
18490TIP3    H176961   5.195   5.975  12.377 -0.1762  0.0228  0.3065
18490TIP3    H276962   5.052   6.023  12.366  0.3096  1.4494  0.0321
18491TIP3   OH276963   4.949   4.111  13.863  0.1339 -0.0667 -0.4680
18491TIP3    H176964   4.889   4.037  13.873  0.1392 -0.0370 -0.1906
18491TIP3    H276965   4.958   4.146  13.952  4.0022 -2.7462  0.4513
18492TIP3   OH276966   5.192   1.060   6.219  0.0783  0.2276  0.2129
18492TIP3    H176967   5.200   1.062   6.124  1.5274  0.9620  0.3210
18492TIP3    H276968   5.142   1.139   6.241 -2.6777 -1.3239 -0.0730
18493TIP3   OH276969   2.661   5.229  10.563 -0.1291  0.0695  0.9034
18493TIP3    H176970   2.623   5.154  10.518  3.3664 -1.2882 -0.1767
18493TIP3    H276971   2.624   5.305  10.519  0.0547 -1.1704 -1.5894
18494TIP3   OH276972   4.947   4.033   3.603  0.6030 -0.6785 -0.4629
18494TIP3    H176973   4.931   3.939   3.601 -1.5446 -0.3732 -0.9218
18494TIP3    H276974   4.963   4.057   3.512  2.2731 -0.7156 -0.2129
18495TIP3   OH276975   5.529   3.682   2.546  0.9180 -0.2956  0.0528
18495TIP3    H176976   5.530   3.612   2.482  1.6500  0.7317 -1.1160
18495TIP3    H276977   5.587   3.651   2.616 -1.3239 -2.2056  1.1761
18496TIP3   OH276978   6.751   4.422   0.879 -0.0347  0.5010  0.5270
18496TIP3    H176979   6.752   4.416   0.974 -0.7350  0.8879  0.5626
18496TIP3    H276980   6.803   4.501   0.859  1.3563 -0.3825  0.5010
18497TIP3   OH276981   3.881   5.657   1.481  0.0900 -0.1493 -0.0311
18497TIP3    H176982   3.938   5.610   1.419  0.0407 -0.4735  0.1686
18497TIP3    H276983   3.829   5.589   1.522  0.2978  0.0408  0.5548
18498TIP3   OH276984   3.698   4.248  16.624 -0.3223 -0.3608 -0.3563
18498TIP3    H176985   3.637   4.217  16.691 -0.3116 -2.0682 -1.0830
18498TIP3    H276986   3.645   4.255  16.544  0.1269 -0.5323 -0.6783
18499TIP3   OH276987   6.432   4.827  14.375 -0.1916 -0.1935 -0.0934
18499TIP3    H176988   6.339   4.802  14.372 -1.0221  2.5224 -0.2308
18499TIP3    H276989   6.442   4.869  14.461  1.4223 -2.0558  0.6813
18500TIP3   OH276990   4.296   1.853  15.637 -0.1150  0.1127  0.3083
18500TIP3    H176991   4.366   1.876  15.576  1.2376  2.3493  2.5217
18500TIP3    H276992   4.254   1.777  15.597  1.6827  0.4713 -2.5686
18501TIP3   OH276993   0.074   4.277   0.700 -0.7496  0.3312  0.0332
18501TIP3    H176994   0.036   4.312   0.619  0.5512 -0.9652 -1.1984
18501TIP3    H276995   0.031   4.327   0.770 -1.4280  1.9748 -1.4631
18502TIP3   OH276996   4.051   4.073   0.951 -0.3051 -0.3439 -0.2105
18502TIP3    H176997   4.133   4.092   0.904  0.0671 -0.2529  0.4577
18502TIP3    H276998   3.997   4.028   0.886  0.9622 -2.0378 -0.1760
18503TIP3   OH276999   2.741   1.945  14.076 -0.0443  0.3523 -0.2355
18503TIP3    H177000   2.748   1.905  13.989 -0.4779  0.9515 -0.5502
18503TIP3    H277001   2.821   1.997  14.086 -0.9893  2.0667 -1.2029
18504TIP3   OH277002   0.411   1.890   2.067  0.9057 -0.1753  0.3446
18504TIP3    H177003   0.482   1.838   2.030  0.6037 -0.1690 -0.2687
18504TIP3    H277004   0.452   1.973   2.091  0.7288  0.7292 -2.1312
18505TIP3   OH277005   6.805   3.430   4.231 -0.1923 -0.5005  0.1580
18505TIP3    H177006   6.776   3.392   4.148  0.5280 -1.8946  0.5197
18505TIP3    H277007   6.748   3.506   4.244 -1.7952 -1.5375 -0.5268
18506TIP3   OH277008   3.038   2.328  16.708 -0.0810 -0.3548  0.0972
18506TIP3    H177009   3.008   2.351  16.796  1.0789  0.3609  0.3283
18506TIP3    H277010   3.018   2.235  16.699 -1.6322 -0.0913  0.5096
18507TIP3   OH277011   4.970   0.590  15.300 -0.1255  0.6218 -0.1984
18507TIP3    H177012   5.012   0.673  15.325  1.9968  0.0556 -1.6565
18507TIP3    H277013   5.020   0.523  15.346  0.7074 -0.0782 -2.0474
18508TIP3   OH277014   1.064   2.640  15.313  0.0971 -0.2458 -0.2905
18508TIP3    H177015   1.077   2.626  15.219 -0.5894  2.7844 -0.9699
18508TIP3    H277016   0.975   2.609  15.330  0.5290 -1.6141 -0.3938
18509TIP3   OH277017   4.301   4.668   1.285  0.1428  0.8744 -0.5702
18509TIP3    H177018   4.206   4.660   1.277 -0.0762  1.8482  0.6399
18509TIP3    H277019   4.335   4.588   1.246 -1.1316  0.8455 -1.7050
18510TIP3   OH277020   2.090   0.553   3.350  0.1881  0.0883  0.5015
18510TIP3    H177021   2.100   0.624   3.287 -0.7147 -0.5848 -0.4243
18510TIP3    H277022   2.119   0.591   3.433 -0.7538  1.7034  0.1462
18511TIP3   OH277023   3.727   5.437   0.711  0.3173 -0.0851 -0.1898
18511TIP3    H177024   3.659   5.452   0.777  0.1776 -1.2305 -0.0639
18511TIP3    H277025   3.797   5.391   0.758  0.2371 -0.8665 -0.8149
18512TIP3   OH277026   4.663   4.411   1.701  0.0463  0.3154  0.1698
18512TIP3    H177027   4.581   4.461   1.701  1.1075  2.1620 -0.0585
18512TIP3    H277028   4.641   4.329   1.658 -1.5832  0.9397 -0.2746
18513TIP3   OH277029   6.114   3.726   4.568 -0.0854  0.2071 -0.2216
18513TIP3    H177030   6.199   3.765   4.547  0.3358 -0.3181  0.4599
18513TIP3    H277031   6.134   3.637   4.596 -1.1295 -0.9502 -2.8263
18514TIP3   OH277032   5.721   6.524   2.151  0.6140 -0.0523 -0.1837
18514TIP3    H177033   5.690   6.457   2.091  0.0442  0.5317 -0.5508
18514TIP3    H277034   5.642   6.568   2.181  1.0098  0.7489 -0.2912
18515TIP3   OH277035   2.965   5.669  15.838 -0.0022  0.1714 -0.6596
18515TIP3    H177036   2.961   5.738  15.772 -0.7518  0.8219  0.0317
18515TIP3    H277037   2.996   5.592  15.791  0.5177  0.8867 -1.5288
18516TIP3   OH277038   1.541   4.719  16.456 -0.1826  0.1250  0.2034
18516TIP3    H177039   1.583   4.633  16.460 -2.1086 -0.8711 -0.2243
18516TIP3    H277040   1.573   4.757  16.375 -0.2350 -0.6778 -0.2009
18517TIP3   OH277041   5.810   2.630   2.675 -0.4255  0.0426 -0.3077
18517TIP3    H177042   5.879   2.673   2.725 -0.4757 -0.3948  0.1441
18517TIP3    H277043   5.753   2.701   2.646  0.9565  0.5857 -1.8915
18518TIP3   OH277044   2.111   0.114   0.242  0.3330 -0.3264  0.1447
18518TIP3    H177045   2.195   0.093   0.202 -0.4124 -0.8313 -1.2197
18518TIP3    H277046   2.054   0.135   0.169 -0.9326 -0.7031  0.9837
18519TIP3   OH277047   5.870   3.733  14.736  0.1091 -0.3210  0.0235
18519TIP3    H177048   5.833   3.659  14.688 -1.0940 -0.6368  1.3438
18519TIP3    H277049   5.952   3.700  14.772 -0.0621 -0.7877 -0.0041
18520TIP3   OH277050   5.431   1.807  12.000 -0.2297  0.0021  0.7325
18520TIP3    H177051   5.393   1.819  11.913 -0.5294  0.0933  0.8752
18520TIP3    H277052   5.360   1.769  12.052  0.0479 -0.3511  0.8537
18521TIP3   OH277053   5.101   0.124  15.805  0.1114 -0.5931  0.8817
18521TIP3    H177054   5.190   0.090  15.813  0.9548  0.4498 -2.5000
18521TIP3    H277055   5.103   0.209  15.848  1.1764 -0.0209 -0.2338
18522TIP3   OH277056   4.943   1.573  16.033  0.0614  0.3085  0.1089
18522TIP3    H177057   4.864   1.624  16.017  0.0564  0.6130  1.0563
18522TIP3    H277058   4.961   1.530  15.949 -0.4438  1.1478 -0.4426
18523TIP3   OH277059   0.175   4.027   4.566  0.4519  0.1437 -0.3357
18523TIP3    H177060   0.195   3.945   4.522 -1.4017 -0.2403 -0.5205
18523TIP3    H277061   0.162   4.090   4.496 -1.6712 -0.2731 -0.3618
18524TIP3   OH277062   1.552   5.103  14.526  0.5380  0.3882  0.4515
18524TIP3    H177063   1.569   5.010  14.510  0.3789  0.2835  0.8737
18524TIP3    H277064   1.628   5.148  14.489  1.2590 -0.0109  1.4011
18525TIP3   OH277065   4.140   4.090  15.132  0.1535 -0.1113 -0.2265
18525TIP3    H177066   4.185   4.136  15.203  2.3356 -1.7819 -0.4535
18525TIP3    H277067   4.110   4.160  15.074  3.0940  1.1463 -0.4020
18526TIP3   OH277068   5.955   4.248  12.352 -0.2316 -0.3248  0.6539
18526TIP3    H177069   5.892   4.256  12.280 -0.9952  1.2999  1.4613
18526TIP3    H277070   5.959   4.154  12.370 -2.6658 -0.4523  0.7730
18527TIP3   OH277071   3.015   5.480  14.114 -0.2466  0.1340  0.0755
18527TIP3    H177072   3.033   5.419  14.042 -0.8711  0.7333 -0.6037
18527TIP3    H277073   3.016   5.425  14.192 -1.2955 -0.8630 -0.5694
18528TIP3   OH277074   4.155   3.568   2.079  0.4524 -0.7607 -0.2541
18528TIP3    H177075   4.239   3.612   2.070 -0.7140  2.3139  2.3419
18528TIP3    H277076   4.169   3.503   2.148  0.3471  1.0942  1.6165
18529TIP3   OH277077   3.198   6.405  15.167 -0.1740  0.0532 -0.0219
18529TIP3    H177078   3.109   6.432  15.187 -1.3040 -2.7655 -0.6479
18529TIP3    H277079   3.204   6.410  15.072  0.0124 -0.5984 -0.0502
18530TIP3   OH277080   5.545   4.374  15.765 -0.2806 -0.1278  0.2006
18530TIP3    H177081   5.509   4.285  15.775  0.1276 -0.1990  1.2097
18530TIP3    H277082   5.593   4.389  15.847  1.5981  0.1479 -0.8940
18531TIP3   OH277083   4.629   6.436  12.400 -0.3271  0.5984  0.3237
18531TIP3    H177084   4.576   6.515  12.388  0.7104  1.0691 -1.6023
18531TIP3    H277085   4.612   6.383  12.322 -0.3322 -0.6866  1.1660
18532TIP3   OH277086   5.836   5.252   2.567 -0.3262 -0.2720  0.4672
18532TIP3    H177087   5.744   5.235   2.588  0.3002 -0.9396  3.0278
18532TIP3    H277088   5.885   5.220   2.643  2.0312  0.2784 -0.7014
18533TIP3   OH277089   2.214   5.072   4.630  0.1439 -0.2792  0.0943
18533TIP3    H177090   2.260   5.009   4.685 -0.0863  0.3126  0.9925
18533TIP3    H277091   2.122   5.048   4.640  0.0829 -0.0080  0.1781
18534TIP3   OH277092   3.737   2.187  13.970  0.1714 -0.2501 -0.0612
18534TIP3    H177093   3.645   2.192  13.946  0.0331  0.9261  0.6265
18534TIP3    H277094   3.784   2.208  13.889 -0.1888 -0.2066 -0.2603
18535TIP3   OH277095   3.662   4.194   0.029  0.3067 -0.3129 -0.3011
18535TIP3    H177096   3.639   4.252   0.102  0.5010 -2.0049  1.1628
18535TIP3    H277097   3.584   4.193  -0.026 -0.0750  0.5096  0.2017
18536TIP3   OH277098   4.352   3.596  12.776 -0.2455 -0.4889 -0.2118
18536TIP3    H177099   4.348   3.519  12.832  0.7923 -0.4936 -0.1204
18536TIP3    H277100   4.353   3.561  12.687  1.6831 -0.6875 -0.1496
18537TIP3   OH277101   6.154   6.383   6.020 -0.3170  0.1797 -0.5282
18537TIP3    H177102   6.208   6.399   5.942  0.9494  0.8244  0.4449
18537TIP3    H277103   6.140   6.470   6.057  2.0096 -0.3376  1.8353
18538TIP3   OH277104   3.387   4.372  12.804  0.4911 -0.4188 -0.2759
18538TIP3    H177105   3.292   4.379  12.800  0.4175 -1.7983 -2.2364
18538TIP3    H277106   3.419   4.455  12.769  0.0295  0.0521  0.3971
18539TIP3   OH277107   3.233   6.285  11.965  0.6088  0.1801  0.2497
18539TIP3    H177108   3.146   6.302  11.931  0.4414  0.6454  0.8880
18539TIP3    H277109   3.227   6.304  12.058  1.6033  1.0413  0.1590
18540TIP3   OH277110   0.276   6.397   4.115  0.3196  0.2374  0.1618
18540TIP3    H177111   0.279   6.402   4.211  1.7635  2.0796  0.0842
18540TIP3    H277112   0.263   6.305   4.096  3.1980 -0.7233  2.1271
18541TIP3   OH277113   3.132   6.449   3.504  0.0986  0.4104 -0.5262
18541TIP3    H177114   3.200   6.437   3.570  0.0747  2.3199 -0.1252
18541TIP3    H277115   3.177   6.492   3.431 -0.1009 -0.7754 -1.3759
18542TIP3   OH277116   6.612   3.359   2.265  0.5703 -0.0864 -0.1458
18542TIP3    H177117   6.635   3.435   2.318  3.0203 -1.3712  0.7901
18542TIP3    H277118   6.594   3.289   2.328  3.3545 -1.5979 -0.8592
18543TIP3   OH277119   6.475   2.700   4.274 -0.0332 -0.0356  0.9857
18543TIP3    H177120   6.434   2.617   4.249 -0.7929  0.5521  0.2208
18543TIP3    H277121   6.495   2.743   4.192  0.8846  0.3038  1.3738
18544TIP3   OH277122   4.514   0.157   0.558 -0.1063  0.2818 -0.1272
18544TIP3    H177123   4.471   0.094   0.616  0.3219 -0.3095 -0.4412
18544TIP3    H277124   4.572   0.104   0.504 -0.6557  0.7970 -1.2549
18545TIP3   OH277125   1.297   0.652  11.295  0.3284  0.0505  0.5027
18545TIP3    H177126   1.275   0.642  11.203 -1.2003 -0.4415  0.8800
18545TIP3    H277127   1.382   0.608  11.305  0.0844 -0.6913 -0.4983
18546TIP3   OH277128   2.442   5.985  13.217 -0.4563 -0.3835  0.0222
18546TIP3    H177129   2.407   5.896  13.224  0.6725 -1.0159 -1.7356
18546TIP3    H277130   2.383   6.030  13.156  0.0812 -0.5505 -0.6335
18547TIP3   OH277131   3.078   0.901  10.318  0.6471 -0.4588  0.0991
18547TIP3    H177132   3.041   0.868  10.400  0.3447  0.2718  0.2685
18547TIP3    H277133   3.075   0.996  10.328 -1.6545 -0.2424 -1.7175
18548TIP3   OH277134   2.777   0.866  11.491  0.4706  0.1874 -0.4914
18548TIP3    H177135   2.848   0.917  11.531 -0.3128  0.8834  0.0370
18548TIP3    H277136   2.698   0.896  11.535 -0.1752 -0.5195 -1.1392
18549TIP3   OH277137   1.325   4.895  16.311 -0.2623  0.3026 -0.6084
18549TIP3    H177138   1.365   4.826  16.259  0.9749 -0.1126  0.7955
18549TIP3    H277139   1.232   4.888  16.293 -0.2073 -1.9395 -0.3144
18550TIP3   OH277140   5.809   6.308   5.335  0.3099 -0.2791 -0.4152
18550TIP3    H177141   5.785   6.379   5.275  0.9948  0.0797 -0.2680
18550TIP3    H277142   5.805   6.229   5.281  2.5403  0.2080 -1.4027
18551TIP3   OH277143   1.683   5.337   4.517 -0.0318 -0.5818 -0.2966
18551TIP3    H177144   1.657   5.427   4.539  2.9568  0.0872  1.0361
18551TIP3    H277145   1.727   5.345   4.433 -2.2045 -1.3646 -1.5834
18552TIP3   OH277146   5.655   4.960   4.018  0.1952  0.1025  0.7561
18552TIP3    H177147   5.734   4.984   3.968 -0.7730 -1.7788 -1.8910
18552TIP3    H277148   5.587   5.018   3.983  0.1173  0.9604  2.2528
18553TIP3   OH277149   2.692   5.277  11.255 -0.5326  0.2582  0.4626
18553TIP3    H177150   2.625   5.326  11.207  1.5335  1.7317 -1.1251
18553TIP3    H277151   2.681   5.186  11.228 -2.5453  0.2806  1.1012
18554TIP3   OH277152   6.270   2.059   4.839 -0.3198  0.1487  0.4943
18554TIP3    H177153   6.357   2.080   4.873 -0.2881 -0.3946  0.7648
18554TIP3    H277154   6.247   1.977   4.883 -0.3331 -0.5091 -0.7023
18555TIP3   OH277155   1.388   6.121   5.250 -0.3226  0.8176 -0.3650
18555TIP3    H177156   1.306   6.113   5.298  0.7185  0.2168  1.3915
18555TIP3    H277157   1.449   6.063   5.296  1.1482  1.3614 -1.5318
18556TIP3   OH277158   4.182   2.027   4.391 -0.1484 -0.4330  0.0446
18556TIP3    H177159   4.199   2.104   4.445  0.5070  0.1335 -0.9361
18556TIP3    H277160   4.246   2.034   4.320  0.1281 -2.0526  0.1099
18557TIP3   OH277161   1.157   2.441   0.235  0.0843  0.5223  0.5173
18557TIP3    H177162   1.214   2.384   0.288  0.7301  1.5642  0.9791
18557TIP3    H277163   1.207   2.459   0.156  0.3126  1.2299  0.8092
18558TIP3   OH277164   0.279   3.905  16.523  0.2424 -0.1355 -0.6041
18558TIP3    H177165   0.293   3.902  16.429  0.1847  1.2101 -0.6798
18558TIP3    H277166   0.350   3.851  16.560 -0.0765 -1.1329 -1.4245
18559TIP3   OH277167   0.364   1.148  11.386 -0.2353  0.2137 -0.2114
18559TIP3    H177168   0.297   1.211  11.359  0.1706  1.5145  1.6500
18559TIP3    H277169   0.319   1.064  11.384 -1.5333  0.8775 -0.3011
18560TIP3   OH277170   3.772   1.446  15.135 -0.4802  0.1236  0.1550
18560TIP3    H177171   3.742   1.494  15.057 -0.2776  0.1443  0.0887
18560TIP3    H277172   3.778   1.513  15.203 -1.3476 -0.0197  0.3844
18561TIP3   OH277173   4.463   0.892   4.729  0.0674  0.0605  0.2902
18561TIP3    H177174   4.398   0.942   4.778 -0.5665  1.9406 -2.2655
18561TIP3    H277175   4.414   0.848   4.660  0.8814 -2.8199  1.4007
18562TIP3   OH277176   4.316   1.657  13.980 -0.1419  0.4427 -0.2082
18562TIP3    H177177   4.314   1.727  13.915 -0.5600 -0.1314 -0.8208
18562TIP3    H277178   4.228   1.656  14.017  0.4423  1.6545  1.3595
18563TIP3   OH277179   1.868   5.371   0.548 -0.7326 -0.4571  0.6954
18563TIP3    H177180   1.846   5.383   0.640  0.6526  0.2120  0.9701
18563TIP3    H277181   1.852   5.457   0.508  1.5767  0.1852  0.9918
18564TIP3   OH277182   3.804   3.260  16.780 -0.1125  0.3761 -0.4615
18564TIP3    H177183   3.736   3.263  16.846 -1.0834  0.7255 -1.4451
18564TIP3    H277184   3.876   3.311  16.817 -1.0711  1.5454 -0.1503
18565TIP3   OH277185   2.218   1.632  15.333 -0.1103  0.3325 -0.7395
18565TIP3    H177186   2.234   1.654  15.425  0.1712 -1.1353 -0.4210
18565TIP3    H277187   2.131   1.668  15.315 -0.2549  0.4695  0.1595
18566TIP3   OH277188   4.734   3.901  16.803  0.4371 -0.0797 -0.5020
18566TIP3    H177189   4.660   3.914  16.862  0.0231  0.7143 -1.1693
18566TIP3    H277190   4.701   3.928  16.717  0.9976 -1.2819 -1.1272
18567TIP3   OH277191   5.197   2.106  15.828  0.1624  0.6611 -0.0537
18567TIP3    H177192   5.260   2.035  15.814 -1.4246 -0.6402 -0.9421
18567TIP3    H277193   5.190   2.112  15.923 -0.9489 -1.6112  0.0665
18568TIP3   OH277194   0.011   4.208   5.911  0.2844  0.1115  0.2307
18568TIP3    H177195  -0.045   4.140   5.949  0.4294 -0.3801 -0.4105
18568TIP3    H277196   0.078   4.224   5.978  1.1068 -1.4333 -0.1609
18569TIP3   OH277197   6.052   3.330   5.747 -0.3646 -0.0446 -0.2980
18569TIP3    H177198   6.137   3.295   5.775  0.4101 -0.2470 -2.6329
18569TIP3    H277199   6.023   3.385   5.820  0.3841 -2.1793  1.7304
18570TIP3   OH277200   1.491   1.152   5.646 -0.1821 -0.2031  0.1476
18570TIP3    H177201   1.547   1.196   5.710 -0.7181 -0.1847  0.6074
18570TIP3    H277202   1.528   1.176   5.561  1.8759 -1.9910  0.4685
18571TIP3   OH277203   0.732   5.953  15.796 -0.3218 -0.1526 -0.1528
18571TIP3    H177204   0.719   5.876  15.852  0.7236  0.7983  1.4872
18571TIP3    H277205   0.647   5.995  15.793 -0.5276 -0.5315  0.2515
18572TIP3   OH277206   0.877   4.041   5.488 -0.1971 -0.3752 -0.2448
18572TIP3    H177207   0.803   3.982   5.499  0.4709 -0.9595  1.4138
18572TIP3    H277208   0.873   4.099   5.563  0.1368  0.6218 -0.9739
18573TIP3   OH277209   3.737   3.728  14.493 -0.0961  0.2359 -0.1119
18573TIP3    H177210   3.746   3.748  14.400 -0.7982 -0.2188 -0.2850
18573TIP3    H277211   3.773   3.640  14.502  0.2865  0.4100  0.1159
18574TIP3   OH277212   5.443   5.443   4.648 -0.0433 -0.4834 -0.1035
18574TIP3    H177213   5.494   5.394   4.713  1.4926  0.9098 -0.1804
18574TIP3    H277214   5.465   5.403   4.564  1.1866  0.2641 -0.1634
18575TIP3   OH277215   3.389   3.303   1.304  0.0204  0.1388 -0.0572
18575TIP3    H177216   3.360   3.392   1.286 -2.0228 -0.6345 -0.8882
18575TIP3    H277217   3.469   3.293   1.251 -0.3571  1.1128 -0.8438
18576TIP3   OH277218   6.645   5.260  13.966 -0.1794  0.2327  0.9833
18576TIP3    H177219   6.591   5.237  14.041  0.0940  0.0258  1.1161
18576TIP3    H277220   6.695   5.336  13.994 -1.5932  1.4672  0.3143
18577TIP3   OH277221   4.443   4.453   5.274 -0.0581  0.4639 -0.4313
18577TIP3    H177222   4.385   4.526   5.294 -0.0979  0.4034 -0.3251
18577TIP3    H277223   4.418   4.385   5.337 -0.9844 -0.1487 -1.4163
18578TIP3   OH277224   0.461   1.885  16.623  0.2553  0.0698  0.1751
18578TIP3    H177225   0.399   1.812  16.627 -1.5402  1.4914  0.1490
18578TIP3    H277226   0.492   1.885  16.533  0.8306 -1.0647  0.3578
18579TIP3   OH277227   0.543   0.163  12.733  0.5289  0.7822  0.0896
18579TIP3    H177228   0.501   0.116  12.804  0.0384  0.9118 -0.1067
18579TIP3    H277229   0.556   0.097  12.664 -2.0261  1.3040 -0.9962
18580TIP3   OH277230   0.952   0.583  14.226  0.0362  0.0193 -0.1354
18580TIP3    H177231   0.957   0.487  14.227 -0.9326 -0.0812 -1.5310
18580TIP3    H277232   0.868   0.602  14.183 -0.7002  1.4990  1.7921
18581TIP3   OH277233   3.408   4.001   2.977 -0.2276 -0.3806 -0.0574
18581TIP3    H177234   3.328   4.051   2.991 -0.6467 -0.0540 -2.8947
18581TIP3    H277235   3.379   3.920   2.936  0.7754 -1.0016  0.4290
18582TIP3   OH277236   2.074   5.525  11.600  0.1170  0.2825 -0.7976
18582TIP3    H177237   2.158   5.560  11.570  0.7991  1.1064  1.7957
18582TIP3    H277238   2.016   5.601  11.604  0.4235  0.4583  1.0549
18583TIP3   OH277239   0.484   5.973   3.454  0.1443 -0.1310 -0.5878
18583TIP3    H177240   0.549   6.018   3.401 -0.4832  0.2254 -1.0645
18583TIP3    H277241   0.405   6.026   3.446 -0.8860 -1.7638 -1.9158
18584TIP3   OH277242   3.446   5.172  11.535 -0.0864 -0.6229 -0.4944
18584TIP3    H177243   3.397   5.240  11.488  0.5442  1.0740  1.1573
18584TIP3    H277244   3.380   5.132  11.593  0.2655  1.4776  1.5315
18585TIP3   OH277245   3.552   5.583  15.730  0.1488  0.2284  0.0301
18585TIP3    H177246   3.637   5.561  15.769 -0.9467 -1.7497  1.5009
18585TIP3    H277247   3.488   5.536  15.784 -1.8082  0.7428 -1.7113
18586TIP3   OH277248   3.266   4.443   6.363 -0.2627  0.2773 -0.0164
18586TIP3    H177249   3.212   4.500   6.309  0.7314  2.6508  1.3744
18586TIP3    H277250   3.300   4.499   6.433  1.3212 -1.8689  1.0839
18587TIP3   OH277251   6.168   0.995   0.955 -0.1006 -0.2379  0.0093
18587TIP3    H177252   6.175   0.998   0.860 -0.9594  0.4664 -0.0405
18587TIP3    H277253   6.184   1.084   0.984  0.3169 -0.4772  0.5453
18588TIP3   OH277254   2.099   4.975   0.873 -0.0128 -0.1288  0.4529
18588TIP3    H177255   2.058   5.061   0.879 -0.4383  0.2091 -3.8660
18588TIP3    H277256   2.027   4.913   0.888 -0.7885  0.4155 -0.7653
18589TIP3   OH277257   5.141   0.406   4.655 -0.3681 -0.0900  0.4790
18589TIP3    H177258   5.153   0.366   4.741 -1.1184 -1.2834  0.0573
18589TIP3    H277259   5.229   0.433   4.628 -0.1534  0.4350  1.6699
18590TIP3   OH277260   1.893   6.208   5.875 -0.0462  0.2626 -0.3967
18590TIP3    H177261   1.825   6.201   5.942  0.6132 -1.1894  0.1475
18590TIP3    H277262   1.970   6.167   5.914  0.6781  0.3834 -1.6406
18591TIP3   OH277263   3.879   1.205   5.197 -0.3100  0.1885  0.0839
18591TIP3    H177264   3.822   1.273   5.234  0.3976 -0.8435  3.3707
18591TIP3    H277265   3.828   1.124   5.204  1.0432 -0.5654  2.0467
18592TIP3   OH277266   1.745   4.474   0.544 -0.2795  0.1464  0.3376
18592TIP3    H177267   1.714   4.474   0.634  0.0195 -0.5545  0.4434
18592TIP3    H277268   1.839   4.458   0.550 -0.5890 -2.1636 -0.1787
18593TIP3   OH277269   2.180   5.091   3.487  0.2748  0.2170 -0.1358
18593TIP3    H177270   2.148   5.180   3.474  2.4793  0.9260 -1.2877
18593TIP3    H277271   2.161   5.047   3.405 -2.5625 -1.0788  1.0738
18594TIP3   OH277272   3.036   2.253  15.148 -0.7558  0.7009  0.3219
18594TIP3    H177273   3.093   2.243  15.072 -1.5149  2.3441 -0.5211
18594TIP3    H277274   3.051   2.174  15.200 -1.2764 -1.2239 -2.2372
18595TIP3   OH277275   5.594   3.339   5.038  0.1598 -0.7023  0.4638
18595TIP3    H177276   5.662   3.272   5.031 -0.3151 -1.0564 -1.0176
18595TIP3    H277277   5.637   3.412   5.083  1.2970 -1.1898  0.1989
18596TIP3   OH277278   1.485   3.816   5.494  0.1203  0.1060  0.5026
18596TIP3    H177279   1.516   3.902   5.465  0.9783 -0.4682 -0.3116
18596TIP3    H277280   1.564   3.765   5.508 -0.3111 -0.0480  2.6749
18597TIP3   OH277281   3.375   3.419   4.856  0.7237  0.1005  0.0088
18597TIP3    H177282   3.393   3.474   4.932  0.3375  0.7285 -0.3463
18597TIP3    H277283   3.342   3.337   4.893 -0.2691  0.6982  0.5108
18598TIP3   OH277284   6.202   3.677   5.303  0.4389 -0.4261 -0.0400
18598TIP3    H177285   6.287   3.641   5.328  1.3820  1.0463 -1.0018
18598TIP3    H277286   6.222   3.759   5.259 -1.5249  0.2458  0.2018
18599TIP3   OH277287   2.410   6.091  14.870 -0.1252  0.0216  0.3434
18599TIP3    H177288   2.486   6.141  14.899 -0.3959 -0.8532  2.7896
18599TIP3    H277289   2.404   6.019  14.932 -0.2152 -2.6698 -2.5473
18600TIP3   OH277290   5.161   0.669  15.542  0.3523 -0.6532  0.1721
18600TIP3    H177291   5.182   0.709  15.458  0.2884 -1.0409 -0.0258
18600TIP3    H277292   5.146   0.577  15.523 -0.7355 -0.5462  0.4402
18601TIP3   OH277293   3.529   6.293   4.025 -0.3382 -0.1142  0.4737
18601TIP3    H177294   3.539   6.327   4.114  1.0845 -1.3820  0.8434
18601TIP3    H277295   3.446   6.246   4.027 -0.7708  0.6455  0.8514
18602TIP3   OH277296   2.875   5.814   6.165  0.1464  0.3690  0.4183
18602TIP3    H177297   2.936   5.885   6.144 -0.3012  0.4925 -0.5220
18602TIP3    H277298   2.907   5.779   6.248  1.9460 -0.0482 -0.4045
18603TIP3   OH277299   2.700   4.678  14.028 -0.1635  0.1307 -0.2110
18603TIP3    H177300   2.750   4.600  14.003 -0.4435 -0.1992  0.2581
18603TIP3    H277301   2.688   4.671  14.123 -2.4750 -0.6185 -0.5075
18604TIP3   OH277302   0.125   2.581   4.182  0.2938 -0.3893 -0.3982
18604TIP3    H177303   0.143   2.672   4.209 -0.3537 -0.2272 -0.5124
18604TIP3    H277304   0.088   2.540   4.259  0.1441 -0.4263 -0.4896
18605TIP3   OH277305   6.184   4.591   4.910  0.0782 -0.1459  0.0364
18605TIP3    H177306   6.160   4.499   4.918  0.1321 -0.1860 -0.2540
18605TIP3    H277307   6.272   4.590   4.872  0.9828 -0.0312  1.9888
18606TIP3   OH277308   4.908   0.654   3.649  0.1045 -0.8953 -0.1907
18606TIP3    H177309   4.823   0.696   3.642  0.2076 -0.3191  1.5737
18606TIP3    H277310   4.890   0.570   3.691  0.4969 -0.2614  1.3255
18607TIP3   OH277311   4.931   6.063  14.850 -0.3997  0.0480 -0.0868
18607TIP3    H177312   4.877   6.123  14.798 -1.0585  0.2674  0.8281
18607TIP3    H277313   4.935   6.103  14.937 -0.4361 -0.9857  0.4079
18608TIP3   OH277314   3.327   5.243   3.951 -0.2518  0.4668 -0.2185
18608TIP3    H177315   3.389   5.170   3.945 -0.4158  0.3804 -0.8699
18608TIP3    H277316   3.243   5.201   3.971 -0.1265  0.5754  0.5656
18609TIP3   OH277317   2.850   5.813   1.962 -0.3137  0.4034  0.8030
18609TIP3    H177318   2.826   5.891   1.912 -0.6431  0.3967  0.9555
18609TIP3    H277319   2.901   5.761   1.900  0.5262  1.0627  0.9097
18610TIP3   OH277320   3.164   3.922  11.922 -0.1290  0.2438  0.2030
18610TIP3    H177321   3.100   3.860  11.889 -0.3529  0.7806 -0.3855
18610TIP3    H277322   3.155   3.917  12.017 -2.6270  1.8974  0.1464
18611TIP3   OH277323   1.483   3.686   4.847 -0.2361 -0.3738  0.1311
18611TIP3    H177324   1.547   3.629   4.804 -1.4191 -2.5701  1.1289
18611TIP3    H277325   1.485   3.767   4.796  2.9056 -0.5574 -0.1812
18612TIP3   OH277326   5.455   6.714   5.235  0.0201 -0.0217  0.2477
18612TIP3    H177327   5.386   6.655   5.205 -0.6654  1.4148 -1.1577
18612TIP3    H277328   5.409   6.782   5.285  0.2309  1.3874 -1.3573
18613TIP3   OH277329   0.690   2.919   1.574  0.2771 -0.1492  0.1055
18613TIP3    H177330   0.784   2.936   1.577  0.3190 -0.3418 -0.0903
18613TIP3    H277331   0.683   2.829   1.543  0.0258 -0.1125  0.0536
18614TIP3   OH277332   0.936   2.828   3.613 -0.0870  0.2605 -0.5116
18614TIP3    H177333   0.999   2.857   3.679 -2.1425  1.8644  0.8460
18614TIP3    H277334   0.884   2.761   3.657  1.5004 -2.2008 -2.1113
18615TIP3   OH277335   2.142   6.459   1.251  0.2119 -0.1188  0.0118
18615TIP3    H177336   2.235   6.470   1.267  0.4403  0.3696 -1.5624
18615TIP3    H277337   2.134   6.444   1.157 -1.1644 -1.7767  0.3345
18616TIP3   OH277338   4.742   3.657  14.853 -0.0117  0.2508  0.6305
18616TIP3    H177339   4.702   3.615  14.929  1.5584 -1.0640  0.8066
18616TIP3    H277340   4.732   3.751  14.868  0.2326  0.0170  2.4534
18617TIP3   OH277341   0.620   6.357  13.776 -0.2574 -0.0509  0.6110
18617TIP3    H177342   0.596   6.450  13.772 -1.4441 -0.3528  0.1839
18617TIP3    H277343   0.697   6.350  13.720 -0.1833  0.6703  0.6143
18618TIP3   OH277344   3.331   3.261  11.565  0.1405 -0.3963 -0.0138
18618TIP3    H177345   3.380   3.229  11.489  0.3650  0.7877 -0.3971
18618TIP3    H277346   3.398   3.288  11.628 -0.0272 -0.1754  0.0748
18619TIP3   OH277347   2.478   6.282  13.677  0.6547  0.1750  0.6231
18619TIP3    H177348   2.524   6.230  13.611 -1.2724 -1.5533  0.5316
18619TIP3    H277349   2.391   6.295  13.641  0.0707  0.6326  2.1102
18620TIP3   OH277350   2.793   4.601   0.774  0.1706 -0.5650  0.1509
18620TIP3    H177351   2.753   4.631   0.692  2.6186  1.1353 -0.5320
18620TIP3    H277352   2.757   4.513   0.788 -2.9254  0.4007 -0.8786
18621TIP3   OH277353   3.004   2.113  11.844 -0.0789 -0.8402  0.1740
18621TIP3    H177354   3.071   2.116  11.776  0.4478  2.0490  0.6846
18621TIP3    H277355   2.922   2.103  11.796  0.4966 -1.7955 -0.6528
18622TIP3   OH277356   4.014   5.507   3.632 -0.6453  0.1883 -0.2359
18622TIP3    H177357   4.104   5.538   3.643  0.2787 -2.3263 -0.1514
18622TIP3    H277358   3.963   5.564   3.690  1.0300  0.9731  0.5550
18623TIP3   OH277359   4.514   4.317  12.979 -0.4019 -0.3671 -0.5541
18623TIP3    H177360   4.559   4.276  13.052 -1.0509  1.1313  0.7278
18623TIP3    H277361   4.440   4.258  12.960 -2.2224  0.8095  2.2512
18624TIP3   OH277362   3.688   1.586  14.532  0.2111 -0.1138  0.5000
18624TIP3    H177363   3.713   1.543  14.613 -0.4646 -0.6720  0.4169
18624TIP3    H277364   3.764   1.575  14.475 -0.6376 -2.9903 -0.2320
18625TIP3   OH277365   3.535   0.222   1.360  0.1012  0.1435 -0.4600
18625TIP3    H177366   3.564   0.268   1.281 -0.3112 -0.5380 -1.0224
18625TIP3    H277367   3.530   0.131   1.333  2.0181 -0.4509  0.9419
18626TIP3   OH277368   1.772   2.822  12.929  0.1231 -0.3983 -0.0630
18626TIP3    H177369   1.732   2.908  12.915 -0.4640 -0.8583 -1.3441
18626TIP3    H277370   1.704   2.770  12.971  0.6105 -0.1519  1.0861
18627TIP3   OH277371   1.428   5.765  15.406  0.4157 -0.5225  0.2458
18627TIP3    H177372   1.386   5.681  15.424  1.6452 -1.0723  0.6320
18627TIP3    H277373   1.384   5.827  15.464  1.2773 -1.4211  1.9204
18628TIP3   OH277374   2.429   6.076   1.928  0.6959  0.1349  0.0566
18628TIP3    H177375   2.338   6.071   1.957  0.7026  0.0391  0.0605
18628TIP3    H277376   2.479   6.044   2.003  0.6147 -1.9681 -0.7185
18629TIP3   OH277377   1.757   3.747   5.694  0.3098  0.4430  0.7089
18629TIP3    H177378   1.846   3.772   5.670  0.5208  0.7272  1.7349
18629TIP3    H277379   1.749   3.771   5.787 -1.0440  1.0381  0.4683
18630TIP3   OH277380   3.439   5.229  10.393  0.1292 -0.0958  0.2719
18630TIP3    H177381   3.532   5.222  10.372 -0.3351  0.9001 -2.4725
18630TIP3    H277382   3.419   5.322  10.386 -1.0572 -0.2618  1.0555
18631TIP3   OH277383   0.576   0.253  11.640 -0.0413  0.2778 -0.5303
18631TIP3    H177384   0.482   0.261  11.655  0.3194  0.9321  1.7965
18631TIP3    H277385   0.586   0.169  11.595 -1.6041 -0.6298  0.7102
18632TIP3   OH277386   5.434   4.277   0.066  0.1546 -0.4354  0.0250
18632TIP3    H177387   5.506   4.214   0.064 -0.7368 -1.5199  0.7681
18632TIP3    H277388   5.414   4.288   0.159  0.5674  1.2900 -0.0640
18633TIP3   OH277389   3.891   3.873  13.898  0.1098  0.6672 -0.0967
18633TIP3    H177390   3.918   3.941  13.960  0.3195 -0.0591  0.6208
18633TIP3    H277391   3.934   3.794  13.929 -0.3114  0.1559 -0.7971
18634TIP3   OH277392   6.830   0.009  14.747 -0.2670  0.5265 -0.2525
18634TIP3    H177393   6.784   0.044  14.823  0.3603 -0.5642  0.6702
18634TIP3    H277394   6.797  -0.081  14.738 -1.1940  0.9860 -2.0085
18635TIP3   OH277395   6.345   1.606  14.628 -0.0159 -0.4075 -0.0775
18635TIP3    H177396   6.360   1.553  14.550  1.9467 -0.5526  0.3522
18635TIP3    H277397   6.355   1.697  14.597 -0.6192 -0.4000 -0.2602
18636TIP3   OH277398   6.736   1.018   4.368 -0.2349  0.0114 -0.4133
18636TIP3    H177399   6.720   0.924   4.355  0.9519  0.1138 -3.4655
18636TIP3    H277400   6.670   1.045   4.432  0.1027 -3.0810  1.4548
18637TIP3   OH277401   0.768   6.734   4.408  0.1057 -0.0177 -0.5362
18637TIP3    H177402   0.776   6.677   4.331  2.8888 -0.1171 -0.2549
18637TIP3    H277403   0.763   6.675   4.482  0.8168  0.0947 -0.3979
18638TIP3   OH277404   6.449   4.573  15.246 -0.3937 -0.0038 -0.2427
18638TIP3    H177405   6.443   4.574  15.342  2.0530 -0.1004 -0.0156
18638TIP3    H277406   6.493   4.655  15.224  1.1207 -0.9866 -1.0403
18639TIP3   OH277407   1.040   2.453  12.397  0.0180 -0.3944  0.2203
18639TIP3    H177408   1.083   2.386  12.345  1.8984 -1.0597  2.4737
18639TIP3    H277409   0.970   2.406  12.444  0.7416 -0.6217  1.0961
18640TIP3   OH277410   1.420   2.270  14.989 -0.4973 -0.0667 -0.1609
18640TIP3    H177411   1.514   2.275  14.970 -0.1461 -2.3214  0.6195
18640TIP3    H277412   1.399   2.353  15.031  1.6553 -0.2797  1.5021
18641TIP3   OH277413   6.778   3.006  12.492  0.1394 -1.3056  0.0589
18641TIP3    H177414   6.837   3.077  12.470 -2.1308  1.1601  1.3775
18641TIP3    H277415   6.754   2.967  12.408  1.3067 -0.4450 -0.6969
18642TIP3   OH277416   1.120   2.695   5.538 -0.5485  0.4099 -0.1758
18642TIP3    H177417   1.049   2.752   5.567  0.2273  0.1473  2.4686
18642TIP3    H277418   1.076   2.622   5.494 -1.6593  1.8987 -1.6535
18643TIP3   OH277419   2.762   0.501  12.609 -0.4991  0.7594 -0.0613
18643TIP3    H177420   2.725   0.450  12.536 -1.5862 -2.1461  2.2908
18643TIP3    H277421   2.856   0.482  12.606 -0.9369 -2.0954  1.0947
18644TIP3   OH277422   6.163   5.787  15.741  0.3981  0.4752  0.5587
18644TIP3    H177423   6.145   5.739  15.660  4.7498 -0.5680 -0.0482
18644TIP3    H277424   6.161   5.720  15.809  2.2722  0.1688  0.3611
18645TIP3   OH277425   1.091   2.296   5.714 -0.2391  0.2223  0.2084
18645TIP3    H177426   1.055   2.382   5.693  1.2433  0.5078 -1.3833
18645TIP3    H277427   1.032   2.234   5.673 -0.1533  0.5828 -0.4741
18646TIP3   OH277428   1.549   2.400   3.287 -0.8921  0.4564  0.5755
18646TIP3    H177429   1.628   2.346   3.289 -0.7528  0.6130 -0.1971
18646TIP3    H277430   1.533   2.415   3.193 -4.5056 -3.4988  0.2854
18647TIP3   OH277431   4.291   4.585  12.188 -0.2079  0.9270  0.1431
18647TIP3    H177432   4.305   4.628  12.272 -0.7573 -0.0993  0.7765
18647TIP3    H277433   4.284   4.492  12.209  1.1762  0.4662 -1.2187
18648TIP3   OH277434   0.115   4.931  14.867  0.3773 -0.4746 -0.2564
18648TIP3    H177435   0.142   4.861  14.807  0.6845 -0.8219  0.2798
18648TIP3    H277436   0.041   4.973  14.823  1.3636  0.0508 -1.4343
18649TIP3   OH277437   0.914   0.369  11.393  0.3013 -0.2770  0.1028
18649TIP3    H177438   0.997   0.328  11.372  1.9167  2.0174  1.5071
18649TIP3    H277439   0.890   0.333  11.478 -0.2471 -1.0227 -0.3523
18650TIP3   OH277440   0.493   1.450   2.967  0.3422  0.1658  0.1638
18650TIP3    H177441   0.545   1.526   2.992 -0.7592  0.0182  3.2452
18650TIP3    H277442   0.428   1.440   3.036 -3.2224 -0.3273 -2.9112
18651TIP3   OH277443   3.072   1.554   1.795 -0.6463  0.0960  0.1257
18651TIP3    H177444   3.053   1.629   1.738  1.1461 -0.4042 -1.2048
18651TIP3    H277445   3.136   1.588   1.857 -1.8402  0.3564  1.2644
18652TIP3   OH277446   2.888   5.361  12.081  0.3194  0.0330 -0.0747
18652TIP3    H177447   2.935   5.387  12.160 -0.2582  0.3007  0.1936
18652TIP3    H277448   2.798   5.389  12.097  0.4550  1.3557 -1.4095
18653TIP3   OH277449   0.607   1.288  16.928 -0.0370  0.5768 -0.6364
18653TIP3    H177450   0.585   1.317  16.840 -1.0979  1.5176 -0.0998
18653TIP3    H277451   0.534   1.319  16.982  0.9108  0.6130  0.6792
18654TIP3   OH277452   2.466   3.022  11.114  0.1868 -0.6694 -0.1283
18654TIP3    H177453   2.463   2.963  11.188 -2.2152 -0.0396  0.3512
18654TIP3    H277454   2.410   3.095  11.139  1.0205  0.5987 -1.7306
18655TIP3   OH277455   2.910   5.386   4.066  0.1296 -0.1843 -0.6146
18655TIP3    H177456   2.894   5.305   4.114 -0.6075 -0.6111 -1.5516
18655TIP3    H277457   2.870   5.372   3.981  0.0876  1.1364 -0.8347
18656TIP3   OH277458   6.252   4.268  13.063 -0.2937  0.4592  0.3744
18656TIP3    H177459   6.291   4.191  13.104 -0.5825  1.4134  2.5778
18656TIP3    H277460   6.328   4.318  13.030 -0.1441 -1.0484 -1.7487
18657TIP3   OH277461   6.822   1.913  15.682 -0.1097  0.0830 -0.2381
18657TIP3    H177462   6.884   1.844  15.707  1.6813  0.6633 -2.6804
18657TIP3    H277463   6.852   1.990  15.730  1.2634  0.4063 -1.5427
18658TIP3   OH277464   2.166   6.093  13.316  0.0802 -0.5671 -0.1035
18658TIP3    H177465   2.235   6.046  13.271  0.8770  0.4986 -0.0449
18658TIP3    H277466   2.096   6.029  13.328  0.5508 -1.3254 -1.2882
18659TIP3   OH277467   5.195   5.662  12.488 -0.1622 -0.4589 -0.2133
18659TIP3    H177468   5.193   5.577  12.443  1.4846 -1.0639  0.7927
18659TIP3    H277469   5.122   5.657  12.551  0.4715 -1.5109  0.4696
18660TIP3   OH277470   0.729   6.733  11.234  0.2899 -0.4080 -0.3245
18660TIP3    H177471   0.710   6.819  11.196  2.1537  0.6550  0.9618
18660TIP3    H277472   0.669   6.673  11.189 -1.9962  1.7260 -0.3722
18661TIP3   OH277473   3.099   3.099   2.343  0.5951  0.1092 -0.1283
18661TIP3    H177474   3.096   3.009   2.310 -1.7284  0.3280 -0.6498
18661TIP3    H277475   3.007   3.122   2.358  0.8717  3.2689 -2.4107
18662TIP3   OH277476   4.262   6.227  12.750  0.2485  0.3159 -0.2497
18662TIP3    H177477   4.355   6.219  12.726  0.6511 -0.3977  1.3950
18662TIP3    H277478   4.227   6.292  12.689  1.9357  0.9149 -0.6394
18663TIP3   OH277479   3.857   6.022   1.735 -0.0552 -0.2064 -0.1826
18663TIP3    H177480   3.933   6.067   1.701  0.4600 -2.3126 -2.0729
18663TIP3    H277481   3.832   6.072   1.813  2.6262  1.1153 -0.0627
18664TIP3   OH277482   3.354   2.713  12.003  0.0327  0.0305 -0.2523
18664TIP3    H177483   3.372   2.735  12.095  0.2698  0.9636 -0.5104
18664TIP3    H277484   3.276   2.764  11.982  0.5711  0.6044 -0.8624
18665TIP3   OH277485   6.171   1.891  13.129 -0.0618 -0.2424  0.0075
18665TIP3    H177486   6.143   1.882  13.220 -0.0923 -1.0371 -0.0670
18665TIP3    H277487   6.136   1.813  13.086  0.2328 -0.0389 -0.6139
18666TIP3   OH277488   1.781   2.479   0.896  0.2657  0.4515  0.1497
18666TIP3    H177489   1.857   2.439   0.938  0.9875  1.2629 -0.3458
18666TIP3    H277490   1.769   2.562   0.941  0.0485  0.6025 -0.1807
18667TIP3   OH277491   5.619   5.165  13.701 -0.3857 -0.4248  0.2872
18667TIP3    H177492   5.617   5.071  13.686  0.7294 -0.2475 -1.2612
18667TIP3    H277493   5.652   5.202  13.618 -0.5816  1.2992  0.9314
18668TIP3   OH277494   4.986   1.723  12.860  0.7669 -0.2382 -0.0731
18668TIP3    H177495   4.899   1.693  12.832  0.0287  1.6505  0.0990
18668TIP3    H277496   4.982   1.722  12.955  0.4178  1.1816 -0.0531
18669TIP3   OH277497   4.646   0.998   5.699 -0.6416  0.2063  0.2936
18669TIP3    H177498   4.647   1.061   5.771  0.7485  0.2352  0.2796
18669TIP3    H277499   4.637   0.913   5.743 -0.8352  0.2950  0.4280
18670TIP3   OH277500   4.984   2.172   2.206  0.3789  0.0773  0.9661
18670TIP3    H177501   5.024   2.160   2.292 -1.0595  0.2342  1.6758
18670TIP3    H277502   4.979   2.267   2.195  0.6425  0.0592  0.6557
18671TIP3   OH277503   5.357   1.276  12.369  0.1276  0.1365 -0.2005
18671TIP3    H177504   5.319   1.310  12.288 -0.6475 -0.4817 -0.1170
18671TIP3    H277505   5.373   1.183  12.351  0.7434  0.1863  0.0744
18672TIP3   OH277506   5.142   6.811  15.589  0.0575  0.3019 -0.3154
18672TIP3    H177507   5.054   6.772  15.592 -0.1157  0.6783 -0.4539
18672TIP3    H277508   5.136   6.889  15.644 -0.0399  0.9989 -1.2829
18673TIP3   OH277509   5.459   5.491   3.486  0.0454 -0.5566 -0.0871
18673TIP3    H177510   5.395   5.440   3.437 -2.4297  1.7448  0.5421
18673TIP3    H277511   5.407   5.547   3.544  2.4940  2.7164 -0.7548
18674TIP3   OH277512   0.319   1.714  17.079  0.2140  0.4040  0.1416
18674TIP3    H177513   0.251   1.682  17.138 -0.1047 -0.3395 -0.6130
18674TIP3    H277514   0.291   1.802  17.056  0.1262  0.5454  0.7641
18675TIP3   OH277515   0.507   2.140  16.996  0.2741  0.4360  0.2477
18675TIP3    H177516   0.575   2.113  16.934 -0.2523 -0.1663 -0.0747
18675TIP3    H277517   0.554   2.155  17.078  0.6375 -1.2338  0.3767
18676TIP3   OH277518   2.130   4.529  12.465  0.7154 -0.4960  0.0801
18676TIP3    H177519   2.225   4.531  12.470  0.6730 -0.5043  1.1297
18676TIP3    H277520   2.111   4.522  12.371  1.7713 -2.3179 -0.0432
18677TIP3   OH277521   4.885   5.977  10.812 -0.5813  0.1171 -0.3079
18677TIP3    H177522   4.816   6.000  10.874 -0.5644 -0.3093 -0.1256
18677TIP3    H277523   4.955   6.040  10.830 -0.0903 -0.7267  0.9436
18678TIP3   OH277524   1.385   5.148  15.180  0.2781 -0.2964 -0.4456
18678TIP3    H177525   1.401   5.220  15.241  2.8993 -0.0270 -1.3250
18678TIP3    H277526   1.424   5.071  15.223  3.1799  0.1141 -2.1305
18679TIP3   OH277527   1.003   1.272   3.688  0.4974  0.5418  0.1531
18679TIP3    H177528   1.040   1.354   3.722 -0.7435  0.3818  2.0821
18679TIP3    H277529   1.023   1.207   3.755 -1.2996 -0.0104  0.2178
18680TIP3   OH277530   0.251   4.812   4.056 -0.2942 -0.5771  0.1055
18680TIP3    H177531   0.273   4.767   3.974  1.0539 -0.2618  0.2702
18680TIP3    H277532   0.156   4.805   4.062 -0.3157 -1.5541 -0.9360
18681TIP3   OH277533   2.199   6.632   2.163 -0.3219 -0.7508 -0.1914
18681TIP3    H177534   2.214   6.557   2.106 -0.0734  0.1122 -1.3000
18681TIP3    H277535   2.218   6.599   2.251  0.8380 -1.7017 -0.7612
18682TIP3   OH277536   0.092   5.308   4.569 -0.2354  0.0069 -0.3554
18682TIP3    H177537   0.134   5.253   4.635 -0.3669  0.5240  0.1698
18682TIP3    H277538   0.141   5.390   4.571  0.6761 -0.4560 -1.9273
18683TIP3   OH277539   3.349   3.435  14.152 -0.0762  0.4781 -0.2094
18683TIP3    H177540   3.400   3.417  14.231 -1.2509  0.0882  0.4881
18683TIP3    H277541   3.383   3.374  14.087  1.1705  1.0722 -0.1385
18684TIP3   OH277542   4.047   5.643  14.958  0.4157  0.1766 -0.1676
18684TIP3    H177543   4.063   5.721  15.011  0.0088  1.1838 -1.4788
18684TIP3    H277544   3.955   5.623  14.972  0.7675 -0.7542  1.0135
18685TIP3   OH277545   1.398   5.628   4.940  0.4719 -0.4488  0.2093
18685TIP3    H177546   1.439   5.574   5.007  0.8109 -0.1217  0.2690
18685TIP3    H277547   1.410   5.718   4.971  0.9549 -0.2718 -0.4635
18686TIP3   OH277548   6.256   4.991   1.289 -0.0785 -1.0298  0.6780
18686TIP3    H177549   6.319   4.953   1.228 -1.3674 -1.3200 -0.5389
18686TIP3    H277550   6.193   4.920   1.306 -0.9487 -0.2919  0.6146
18687TIP3   OH277551   4.486   3.029  13.925  0.0773 -0.1061 -0.2796
18687TIP3    H177552   4.548   3.058  13.858  2.5307 -2.3569  0.8137
18687TIP3    H277553   4.404   3.014  13.878  0.6892  1.7046 -2.0527
18688TIP3   OH277554   1.264   1.637  14.058 -0.1533 -0.5685  0.3555
18688TIP3    H177555   1.295   1.552  14.028  2.7150 -0.0150  1.4702
18688TIP3    H277556   1.272   1.694  13.981 -1.6295 -1.1518 -0.2595
18689TIP3   OH277557   3.334   5.128  14.400 -0.6762  0.3082  0.3016
18689TIP3    H177558   3.258   5.122  14.343 -0.2351  0.1196 -0.2782
18689TIP3    H277559   3.322   5.058  14.464 -0.4061 -0.5001 -0.5087
18690TIP3   OH277560   0.518   5.254   1.856  0.5082 -0.1189 -0.7112
18690TIP3    H177561   0.523   5.350   1.862  0.3726 -0.0481 -1.5243
18690TIP3    H277562   0.425   5.235   1.862  0.5334 -0.1950 -0.5757
18691TIP3   OH277563   4.708   5.376  14.056 -0.4506  0.6301 -0.0019
18691TIP3    H177564   4.791   5.377  14.009  0.0858  1.1714  0.9121
18691TIP3    H277565   4.675   5.466  14.047  0.4707  1.2266  1.9781
18692TIP3   OH277566   4.820   2.525  12.181 -0.6350 -0.1166 -0.5142
18692TIP3    H177567   4.793   2.585  12.111 -1.5660  2.1648  1.6262
18692TIP3    H277568   4.889   2.574  12.228 -1.1590 -0.8569  1.0866
18693TIP3   OH277569   0.776   1.416   1.319  0.1401  0.0390 -0.1399
18693TIP3    H177570   0.692   1.404   1.275  0.5008 -1.2232 -0.5502
18693TIP3    H277571   0.752   1.445   1.407 -0.7055  0.0939 -0.3708
18694TIP3   OH277572   4.232   1.332   0.321  0.0557  0.0760  0.0558
18694TIP3    H177573   4.228   1.413   0.270 -1.1087 -0.0470 -0.0905
18694TIP3    H277574   4.141   1.302   0.325  0.6573 -2.1277 -1.3270
18695TIP3   OH277575   0.175   3.725  15.579 -0.0513  0.4860 -0.3345
18695TIP3    H177576   0.180   3.765  15.665  0.9644 -1.0621  0.3828
18695TIP3    H277577   0.131   3.641  15.594  2.0065 -0.7611 -0.8852
18696TIP3   OH277578   4.707   4.373  16.468 -0.3025 -0.4007 -0.5987
18696TIP3    H177579   4.624   4.422  16.464  0.0788  0.2144 -1.5922
18696TIP3    H277580   4.683   4.283  16.446 -0.5537  0.0200 -2.1833
18697TIP3   OH277581   3.407   3.091   4.349  0.1004  0.7105 -0.2815
18697TIP3    H177582   3.493   3.058   4.324  0.3806  2.3900 -1.6920
18697TIP3    H277583   3.420   3.126   4.437  0.2740 -1.0080  0.4209
18698TIP3   OH277584   3.354   6.263  12.470  0.0696  0.0206  0.7832
18698TIP3    H177585   3.268   6.286  12.506 -1.2524 -1.2193 -1.3537
18698TIP3    H277586   3.400   6.347  12.463 -1.9464  1.1168 -0.3263
18699TIP3   OH277587   2.888   6.416   5.783  0.1115 -0.2457 -0.3795
18699TIP3    H177588   2.913   6.397   5.873  0.7475 -0.0301 -0.5070
18699TIP3    H277589   2.803   6.373   5.773 -0.5275  0.7290  0.6752
18700TIP3   OH277590   4.934   0.741   4.105  0.1641  0.0453 -0.4708
18700TIP3    H177591   4.997   0.784   4.163 -1.0792  1.1488  0.1264
18700TIP3    H277592   4.867   0.808   4.089 -2.2592 -1.8136  1.1117
18701TIP3   OH277593   3.991   4.495  15.653  0.0293  0.1070 -0.0344
18701TIP3    H177594   3.927   4.424  15.658  1.0168 -0.8174  5.2851
18701TIP3    H277595   3.939   4.575  15.661 -0.7524 -0.6025  3.6921
18702TIP3   OH277596   2.655   6.098  16.539 -0.0207 -0.1616  0.1967
18702TIP3    H177597   2.680   6.010  16.566  4.6202  1.1348  0.9274
18702TIP3    H277598   2.591   6.126  16.604 -0.0481 -2.2497  1.1376
18703TIP3   OH277599   5.470   4.374  13.492  0.5288 -0.4455 -0.3034
18703TIP3    H177600   5.382   4.337  13.497  0.6691 -0.8022 -0.4342
18703TIP3    H277601   5.512   4.325  13.420  0.2296  0.9943 -1.5069
18704TIP3   OH277602   0.836   4.464  12.748 -0.2159  0.0141  0.1791
18704TIP3    H177603   0.771   4.480  12.679 -1.8952  0.3820  1.7787
18704TIP3    H277604   0.898   4.537  12.741 -0.3724  0.0629 -0.8912
18705TIP3   OH277605   4.403   4.388   1.273  0.2810  0.6092 -0.5147
18705TIP3    H177606   4.348   4.314   1.302 -2.7448  1.7551 -2.8112
18705TIP3    H277607   4.482   4.347   1.239 -1.4306 -1.7091 -2.0178
18706TIP3   OH277608   4.029   2.489   5.582  0.1217  0.2440  0.2963
18706TIP3    H177609   4.078   2.544   5.521 -0.4856 -0.3399 -0.7416
18706TIP3    H277610   3.952   2.541   5.603 -1.0565 -0.6172 -1.6129
18707TIP3   OH277611   4.216   2.482  12.562 -0.0289  0.1420 -0.2035
18707TIP3    H177612   4.277   2.523  12.502  0.4256  1.0993  0.8776
18707TIP3    H277613   4.164   2.554  12.597  0.1077 -0.3128  0.9841
18708TIP3   OH277614   3.531   4.679  15.399  0.0538  0.0870 -0.6841
18708TIP3    H177615   3.485   4.601  15.367  0.1530  0.1530 -0.9908
18708TIP3    H277616   3.599   4.644  15.457  0.3446 -0.0832 -1.1188
18709TIP3   OH277617   6.623   0.286   3.233  1.0200 -0.0315  0.4384
18709TIP3    H177618   6.677   0.221   3.277  0.5444 -0.0669  0.9773
18709TIP3    H277619   6.639   0.271   3.140  1.0814 -0.7783  0.5622
18710TIP3   OH277620   1.698   4.922  10.824  0.6537 -0.1638  0.2239
18710TIP3    H177621   1.631   4.990  10.809  0.1250 -1.0679 -2.0770
18710TIP3    H277622   1.751   4.955  10.895 -1.2106  1.4128  0.9751
18711TIP3   OH277623   1.924   3.097   1.956 -0.0974  0.0816  0.0168
18711TIP3    H177624   2.004   3.047   1.973 -0.8402 -1.6291 -1.2847
18711TIP3    H277625   1.911   3.150   2.035  0.8408 -1.6155  1.3637
18712TIP3   OH277626   1.993   4.760  10.742 -0.0747 -0.2670 -0.1877
18712TIP3    H177627   1.982   4.855  10.736 -0.2543 -0.2403  0.5322
18712TIP3    H277628   2.036   4.745  10.826 -2.3932 -0.9910  0.9510
18713TIP3   OH277629   4.122   4.035  11.196  0.1464  0.3275 -0.0633
18713TIP3    H177630   4.215   4.055  11.200  0.1092  0.6882 -0.9155
18713TIP3    H277631   4.110   3.965  11.261  1.1771 -0.3989 -0.6311
18714TIP3   OH277632   3.623   4.242  10.403  0.4560 -0.0685  0.1348
18714TIP3    H177633   3.551   4.292  10.365  0.8256 -0.6960 -1.4657
18714TIP3    H277634   3.613   4.154  10.366  1.9006 -0.2229  0.0800
18715TIP3   OH277635   4.899   3.895  15.217 -0.0760 -0.1015 -0.3775
18715TIP3    H177636   4.825   3.883  15.275 -0.0080 -1.2534 -0.4985
18715TIP3    H277637   4.961   3.948  15.267 -0.4359 -0.2308  0.2150
18716TIP3   OH277638   4.976   6.074   4.423 -0.5252  0.5317 -1.0260
18716TIP3    H177639   4.881   6.088   4.428 -0.3449  1.4834  0.2231
18716TIP3    H277640   5.013   6.162   4.431  0.5086  0.0200  0.1111
18717TIP3   OH277641   4.049   4.735   0.632 -0.2025 -0.1060 -0.0392
18717TIP3    H177642   4.127   4.681   0.620  0.0156 -0.0904  1.2184
18717TIP3    H277643   4.078   4.806   0.689 -1.5109 -1.0374  1.9033
18718TIP3   OH277644   0.320   5.458  16.859 -0.5431  0.1533 -0.2089
18718TIP3    H177645   0.391   5.405  16.896  0.4246  0.0534 -2.0956
18718TIP3    H277646   0.242   5.404  16.871 -0.2485  0.0015  1.3414
18719TIP3   OH277647   2.311   1.163  14.099 -0.1029 -0.1540  0.0243
18719TIP3    H177648   2.266   1.247  14.099  0.9985  0.4959 -1.4346
18719TIP3    H277649   2.300   1.129  14.187 -0.9786  1.2999  0.5067
18720TIP3   OH277650   6.808   2.590   5.990  0.9617 -1.0130 -0.2995
18720TIP3    H177651   6.861   2.662   6.025  1.2786 -0.2719 -2.1865
18720TIP3    H277652   6.733   2.584   6.049  1.7239 -0.1739  0.7779
18721TIP3   OH277653   1.408   5.896   4.830  0.2066  0.3952  0.1239
18721TIP3    H177654   1.424   5.962   4.897  0.9394  0.6572 -0.2972
18721TIP3    H277655   1.351   5.939   4.766 -1.2621 -0.1478  1.0130
18722TIP3   OH277656   2.525   3.003   0.854  0.4460 -0.6583  0.7139
18722TIP3    H177657   2.473   3.035   0.927  0.5418  0.8211  0.1569
18722TIP3    H277658   2.544   2.912   0.877 -0.0610 -0.4159  2.2217
18723TIP3   OH277659   5.891   5.831  14.313 -0.2148 -0.0996 -0.6995
18723TIP3    H177660   5.880   5.739  14.339  1.2658 -0.5305 -1.5116
18723TIP3    H277661   5.893   5.878  14.397 -1.1254 -0.7650 -0.2757
18724TIP3   OH277662   1.801   1.797   3.380 -0.1857 -0.0559  0.3373
18724TIP3    H177663   1.897   1.795   3.375 -0.2164 -0.3599 -0.2228
18724TIP3    H277664   1.778   1.718   3.429 -0.1464  0.0554  0.5353
18725TIP3   OH277665   4.399   1.864   5.809  0.4310  0.1112  0.0502
18725TIP3    H177666   4.415   1.772   5.789 -2.6606 -0.3733 -0.7909
18725TIP3    H277667   4.443   1.912   5.739  0.1068 -0.8969 -0.8697
18726TIP3   OH277668   4.205   5.412   0.811 -0.8181 -0.2849  0.4012
18726TIP3    H177669   4.219   5.497   0.853 -1.8411  0.2510 -0.2747
18726TIP3    H277670   4.270   5.408   0.741 -0.3606 -0.3353  0.8290
18727TIP3   OH277671   4.347   1.686   1.078  0.8390  0.0791 -0.5295
18727TIP3    H177672   4.262   1.729   1.086  0.4990 -0.2403 -2.0548
18727TIP3    H277673   4.373   1.701   0.987  1.2865 -1.8323 -0.7591
18728TIP3   OH277674   1.876   2.772   1.793  0.0550  0.7992  0.0695
18728TIP3    H177675   1.892   2.851   1.742  0.0285  1.5027  1.1125
18728TIP3    H277676   1.952   2.764   1.850  0.3735 -0.3127 -0.4736
18729TIP3   OH277677   6.850   5.280  13.395 -0.9280 -0.4131  0.2335
18729TIP3    H177678   6.791   5.211  13.427 -1.5768  0.4170  0.8750
18729TIP3    H277679   6.795   5.332  13.335 -0.2896 -0.7541 -0.6727
18730TIP3   OH277680   6.752   1.398   3.871  0.5532 -0.1484  0.3854
18730TIP3    H177681   6.789   1.329   3.927  0.0044 -2.2248 -1.6584
18730TIP3    H277682   6.671   1.424   3.915  0.8363 -0.7029  1.2728
18731TIP3   OH277683   0.707   4.267   3.718  0.2108  0.0867  0.1306
18731TIP3    H177684   0.730   4.217   3.796 -2.8932  1.0324  1.7965
18731TIP3    H277685   0.749   4.352   3.730 -0.0218  0.1307  0.6574
18732TIP3   OH277686   2.410   2.078   4.107  0.1938 -0.2922 -0.1939
18732TIP3    H177687   2.354   2.059   4.032 -1.0861  1.0002  0.3896
18732TIP3    H277688   2.354   2.126   4.167  1.9920  1.2176  0.3564
18733TIP3   OH277689   2.291   6.663   5.078 -0.1022 -0.4880 -0.1221
18733TIP3    H177690   2.204   6.642   5.110  0.1459  0.0923  1.0004
18733TIP3    H277691   2.298   6.758   5.088  0.0329 -0.2790 -1.8632
18734TIP3   OH277692   2.178   5.271   2.262 -0.3731  0.2347 -0.2104
18734TIP3    H177693   2.177   5.271   2.358  0.8541  1.2962 -0.1766
18734TIP3    H277694   2.086   5.275   2.237 -0.7471 -0.7781  0.9023
18735TIP3   OH277695   3.464   6.851  11.355  0.3167  0.4715  0.7194
18735TIP3    H177696   3.375   6.883  11.343  1.2007  1.9551 -3.2023
18735TIP3    H277697   3.455   6.756  11.364 -1.6166  0.3313 -1.8061
18736TIP3   OH277698   4.865   2.958   2.694  0.5712 -0.1346  0.0274
18736TIP3    H177699   4.774   2.931   2.682  0.7954 -0.1332 -1.9524
18736TIP3    H277700   4.916   2.883   2.667  1.1684  0.5805 -0.8791
18737TIP3   OH277701   1.695   5.425  11.235 -0.3610  0.3372  0.0029
18737TIP3    H177702   1.644   5.438  11.155 -0.5088  1.7700  0.2970
18737TIP3    H277703   1.738   5.509  11.249  1.3095 -0.5318  0.3123
18738TIP3   OH277704   5.227   6.439   1.070 -0.4541 -0.1607 -0.0334
18738TIP3    H177705   5.286   6.405   1.003  0.3262 -0.1972  0.6511
18738TIP3    H277706   5.200   6.361   1.119 -0.6673 -0.0870 -0.0351
18739TIP3   OH277707   3.665   5.676  16.799 -0.3190 -0.3296  0.4052
18739TIP3    H177708   3.703   5.629  16.873 -0.5123  1.2811  1.5866
18739TIP3    H277709   3.685   5.621  16.723 -0.1790 -2.0728  1.6398
18740TIP3   OH277710   4.114   0.923   1.324 -0.4725 -0.1099 -0.2201
18740TIP3    H177711   4.208   0.912   1.339 -0.3522  0.2095 -0.7235
18740TIP3    H277712   4.081   0.833   1.316 -0.5306 -0.3062  1.7475
18741TIP3   OH277713   2.981   4.346   2.241  0.2480  0.5011  0.4144
18741TIP3    H177714   2.890   4.362   2.217  0.6613  2.8399  0.1203
18741TIP3    H277715   3.031   4.400   2.179  1.7348  0.5023  1.5673
18742TIP3   OH277716   0.974   5.819  14.801  0.4148  0.4479 -0.1270
18742TIP3    H177717   0.887   5.820  14.761  0.7186  1.5272 -0.7916
18742TIP3    H277718   1.029   5.775  14.737  0.4242  0.0163  0.1722
18743TIP3   OH277719   3.859   1.109   4.159 -1.0940  0.4162  0.4818
18743TIP3    H177720   3.792   1.045   4.182 -2.7897  0.9685 -2.4837
18743TIP3    H277721   3.942   1.061   4.169 -1.9020 -0.6467  3.0367
18744TIP3   OH277722   3.275   5.045   4.580  0.2386  0.1779 -0.7259
18744TIP3    H177723   3.339   5.115   4.591 -1.3125  1.6229 -0.5800
18744TIP3    H277724   3.228   5.042   4.663  0.7679 -1.5860 -0.4458
18745TIP3   OH277725   2.005   6.570   5.164  0.4084  0.5641  0.2517
18745TIP3    H177726   1.930   6.588   5.107  0.6414 -0.4523 -0.4039
18745TIP3    H277727   1.989   6.482   5.198  0.1728  1.2279  1.9498
18746TIP3   OH277728   6.127   3.730  11.510 -0.3184  0.3645  0.1104
18746TIP3    H177729   6.197   3.676  11.545 -1.0780 -1.3265 -0.8242
18746TIP3    H277730   6.087   3.771  11.586  1.3815  1.0293  0.6911
18747TIP3   OH277731   0.201   2.213   2.604  0.1019  0.3495  0.3949
18747TIP3    H177732   0.279   2.165   2.633 -0.3863 -0.2313  0.7631
18747TIP3    H277733   0.216   2.229   2.511  0.8966  0.7021  0.5743
18748TIP3   OH277734   5.586   0.068   2.283  0.3772 -0.3068  0.0099
18748TIP3    H177735   5.647   0.109   2.222 -0.7102  0.1186 -0.8275
18748TIP3    H277736   5.527   0.138   2.310 -0.7642 -1.0444 -0.4918
18749TIP3   OH277737   3.720   4.297   2.824 -0.0725 -0.0204  0.2289
18749TIP3    H177738   3.814   4.284   2.811 -0.4867 -0.5523 -3.0337
18749TIP3    H277739   3.683   4.208   2.819 -0.8442  0.2990  0.2090
18750TIP3   OH277740   2.097   3.906   0.064  0.3230  0.4734  0.2783
18750TIP3    H177741   2.149   3.971   0.112  0.4811  1.0874 -0.6916
18750TIP3    H277742   2.160   3.863   0.006 -0.1011  0.6605 -0.3247
18751TIP3   OH277743   0.601   3.428   6.095  0.2327 -0.0726  0.2410
18751TIP3    H177744   0.517   3.441   6.140  0.4188 -1.8741  1.1595
18751TIP3    H277745   0.667   3.451   6.160  0.4780  0.0057 -0.0341
18752TIP3   OH277746   2.093   6.255  15.465  0.0470 -0.1797  0.8087
18752TIP3    H177747   2.108   6.269  15.372 -0.2653 -0.0796  0.7720
18752TIP3    H277748   2.012   6.303  15.484  0.2136 -0.0347  1.1712
18753TIP3   OH277749   5.407   3.921   4.699  0.0860  0.3952  0.0925
18753TIP3    H177750   5.458   3.981   4.754 -1.5169  0.2529  1.7910
18753TIP3    H277751   5.375   3.976   4.627  1.9946  0.6297 -0.6549
18754TIP3   OH277752   5.282   2.950   5.670  0.3386 -0.7521  0.2158
18754TIP3    H177753   5.351   2.928   5.607  0.6671  0.4556  0.1357
18754TIP3    H277754   5.213   2.989   5.617  0.1585 -0.7190  0.4771
18755TIP3   OH277755   5.599   1.144   2.454 -0.1731  0.7091  0.2346
18755TIP3    H177756   5.652   1.072   2.420 -1.0291 -0.1914  0.7251
18755TIP3    H277757   5.641   1.223   2.421 -0.5561 -0.0659 -2.3421
18756TIP3   OH277758   1.362   6.385  13.781  0.2159  0.5704  0.5599
18756TIP3    H177759   1.389   6.415  13.694 -1.6512  0.2135 -0.1895
18756TIP3    H277760   1.318   6.461  13.820  0.0280  0.3834  0.7183
18757TIP3   OH277761   2.637   4.378  10.921 -0.4296  0.0406  0.1216
18757TIP3    H177762   2.549   4.396  10.887 -0.3563 -0.0505 -0.1199
18757TIP3    H277763   2.696   4.417  10.856 -0.2946  0.5425  0.5339
18758TIP3   OH277764   3.073   3.080  14.083  0.1457  0.6749  0.2320
18758TIP3    H177765   3.153   3.105  14.038  0.1951 -2.2533 -1.5237
18758TIP3    H277766   3.102   3.025  14.156 -0.2294  0.4755  0.2321
18759TIP3   OH277767   1.719   6.284  17.039  0.2478  0.0805  0.3354
18759TIP3    H177768   1.747   6.203  16.996  1.2623 -0.0706  1.2432
18759TIP3    H277769   1.686   6.339  16.967  2.3932  0.0424 -0.7563
18760TIP3   OH277770   2.040   1.632   3.410 -0.1309  0.5960 -0.4299
18760TIP3    H177771   2.116   1.643   3.353 -0.5044  1.6295 -0.7586
18760TIP3    H277772   2.038   1.538   3.430 -0.5787  0.0020 -2.9363
18761TIP3   OH277773   4.986   5.387   3.155 -0.4201 -0.0704  0.4873
18761TIP3    H177774   4.925   5.403   3.227  0.7255  1.0027  1.2696
18761TIP3    H277775   5.036   5.469   3.147  0.9158 -0.8999 -0.1042
18762TIP3   OH277776   4.681   3.792  12.706 -0.2651  0.3411  0.3030
18762TIP3    H177777   4.600   3.808  12.753 -0.0233  3.5172 -0.1279
18762TIP3    H277778   4.750   3.802  12.772 -0.1168 -0.6775  0.3246
18763TIP3   OH277779   0.181   1.805  13.620 -0.0810  0.1266  0.3577
18763TIP3    H177780   0.161   1.739  13.687  1.4753 -0.6861  0.0756
18763TIP3    H277781   0.252   1.856  13.657  0.6047 -0.1478 -0.5379
18764TIP3   OH277782   2.739   2.761   1.811 -0.8966 -0.5589  0.1904
18764TIP3    H177783   2.671   2.816   1.772 -0.8319 -0.1639  0.6234
18764TIP3    H277784   2.726   2.769   1.905  0.3323  0.2940  0.3095
18765TIP3   OH277785   0.758   2.364   1.611  0.2228 -0.2067  0.2220
18765TIP3    H177786   0.849   2.356   1.639 -0.4496 -2.8499  2.0275
18765TIP3    H277787   0.762   2.354   1.516  1.9070  1.4128  0.0569
18766TIP3   OH277788   2.183   5.215   2.541 -0.3234  0.6846 -0.1476
18766TIP3    H177789   2.266   5.248   2.577 -0.0997  2.2658 -1.9725
18766TIP3    H277790   2.117   5.275   2.576 -0.4548  0.5592 -0.1811
18767TIP3   OH277791   1.583   5.233   5.358 -0.1304  0.0082 -0.2285
18767TIP3    H177792   1.588   5.327   5.340 -0.5886  0.1496  0.3468
18767TIP3    H277793   1.556   5.227   5.450 -1.6197 -0.6765 -0.6701
18768TIP3   OH277794   4.598   3.666   4.484  0.3608 -0.3744 -0.8958
18768TIP3    H177795   4.623   3.718   4.408  0.9528  0.7825  0.0735
18768TIP3    H277796   4.680   3.651   4.531 -0.2928  0.8629  0.6994
18769TIP3   OH277797   6.424   6.710  12.019 -0.0695  0.5513 -0.0293
18769TIP3    H177798   6.483   6.665  11.959  0.9186  0.1865  1.1711
18769TIP3    H277799   6.392   6.641  12.078 -2.4357  0.5664 -1.1879
18770TIP3   OH277800   4.356   3.645  14.725 -0.2861 -0.5948  0.2012
18770TIP3    H177801   4.279   3.690  14.760  0.1764  0.8114 -0.5070
18770TIP3    H277802   4.385   3.589  14.797 -2.3487 -1.7039  0.2542
18771TIP3   OH277803   0.594   4.751   0.899 -0.5302  0.0918  0.6165
18771TIP3    H177804   0.642   4.726   0.820  0.1925  1.6125  0.5461
18771TIP3    H277805   0.637   4.702   0.970  0.4763  0.6464  0.4049
18772TIP3   OH277806   1.467   3.361   5.075  0.2151  0.1054  0.1210
18772TIP3    H177807   1.417   3.421   5.130  2.7187  0.3898  2.3163
18772TIP3    H277808   1.509   3.301   5.137  1.1697 -1.2199 -1.6988
18773TIP3   OH277809   3.747   2.203   0.879 -0.3590 -0.2344 -0.1024
18773TIP3    H177810   3.766   2.128   0.934  1.4865 -0.0786 -0.4421
18773TIP3    H277811   3.756   2.171   0.789  1.2367  0.5046 -0.2551
18774TIP3   OH277812   4.864   2.004  13.767  0.2287  0.0735  0.3407
18774TIP3    H177813   4.887   1.978  13.678  0.8389  1.2015  0.1477
18774TIP3    H277814   4.782   1.959  13.785  0.5281 -0.8354 -0.4728
18775TIP3   OH277815   3.462   6.259  13.513  0.2091  0.0080 -0.2376
18775TIP3    H177816   3.382   6.215  13.486  0.7433 -0.6569 -0.7810
18775TIP3    H277817   3.532   6.198  13.489  1.0500  1.5164 -1.8664
18776TIP3   OH277818   0.394   1.923  15.776  0.7632 -0.0565  0.4701
18776TIP3    H177819   0.443   1.910  15.857  1.1168  0.9899  0.4286
18776TIP3    H277820   0.338   1.998  15.794  1.1282  0.4297 -0.3865
18777TIP3   OH277821   1.685   2.307   5.538 -0.3987  0.0290  0.2478
18777TIP3    H177822   1.662   2.285   5.448  0.1607  1.1510 -0.1928
18777TIP3    H277823   1.617   2.266   5.591 -1.3413  0.2401 -0.7528
18778TIP3   OH277824   1.830   0.042   0.360 -0.3963 -0.8661 -0.3843
18778TIP3    H177825   1.803  -0.019   0.292  2.3716 -1.2563 -1.2528
18778TIP3    H277826   1.925   0.052   0.348 -0.5886  3.4480 -0.2001
18779TIP3   OH277827   4.662   6.668   1.880  0.5253  0.3936  0.6880
18779TIP3    H177828   4.580   6.672   1.830  1.4581  0.7991 -0.8790
18779TIP3    H277829   4.640   6.617   1.958 -1.3056  0.8282  0.4943
18780TIP3   OH277830   4.468   4.585  13.357  0.1645 -0.3015 -0.4426
18780TIP3    H177831   4.538   4.578  13.423  0.6159  0.2796 -0.8496
18780TIP3    H277832   4.501   4.649  13.293 -1.2499  0.9170 -0.0171
18781TIP3   OH277833   3.433   3.221   4.610 -0.4539  0.4094 -0.0632
18781TIP3    H177834   3.340   3.238   4.618 -1.0359 -2.2239 -0.3778
18781TIP3    H277835   3.475   3.291   4.660 -2.4653  2.5695 -1.2122
18782TIP3   OH277836   6.619   2.744   0.721  0.2148 -0.0157  0.7479
18782TIP3    H177837   6.602   2.726   0.628  2.4467 -0.1706  0.3101
18782TIP3    H277838   6.540   2.789   0.751 -0.5617  0.0746 -1.2293
18783TIP3   OH277839   6.768   0.814   3.734 -0.3033 -0.1852 -0.3225
18783TIP3    H177840   6.734   0.833   3.646  0.0770 -0.7800 -0.6070
18783TIP3    H277841   6.808   0.896   3.762  0.5340 -0.2716 -1.1685
18784TIP3   OH277842   4.768   5.620  14.881  0.2401 -0.7083  0.5531
18784TIP3    H177843   4.700   5.553  14.870 -1.0210  0.9583 -3.9050
18784TIP3    H277844   4.722   5.695  14.917 -0.5551  0.4784 -2.6264
18785TIP3   OH277845   6.310   4.536  14.156  0.5876 -0.3275  0.4596
18785TIP3    H177846   6.312   4.441  14.173  0.0217 -0.0978  1.9904
18785TIP3    H277847   6.308   4.543  14.061  0.6783 -1.8577  0.3120
18786TIP3   OH277848   4.225   3.113  15.435  0.2844 -0.3383 -0.2018
18786TIP3    H177849   4.150   3.163  15.466  1.0230  0.3888  0.4836
18786TIP3    H277850   4.212   3.025  15.470  1.0742  0.4427  2.2689
18787TIP3   OH277851   1.374   0.806   1.604  0.4046  0.4907  0.0001
18787TIP3    H177852   1.318   0.730   1.621 -0.0123  1.2590  2.4083
18787TIP3    H277853   1.341   0.842   1.522 -0.0738 -1.2862 -0.6422
18788TIP3   OH277854   1.503   5.504  13.085 -0.2265  0.2758  0.4584
18788TIP3    H177855   1.472   5.415  13.069  1.4564 -0.0580 -1.3229
18788TIP3    H277856   1.436   5.560  13.044 -1.9772 -0.0327  2.7420
18789TIP3   OH277857   6.412   3.159   0.297  0.2435 -0.5492 -0.3622
18789TIP3    H177858   6.386   3.099   0.227  1.2366  0.7348 -1.9127
18789TIP3    H277859   6.365   3.240   0.279  0.7201 -0.1103  0.2924
18790TIP3   OH277860   6.111   5.623  13.550  0.0457 -0.1671  0.8259
18790TIP3    H177861   6.063   5.658  13.474  1.2324  1.3589  0.7274
18790TIP3    H277862   6.117   5.697  13.610  2.1315 -0.3265  0.8770
18791TIP3   OH277863   6.683   5.949  12.199 -0.5034  0.7258  0.4601
18791TIP3    H177864   6.709   5.984  12.113 -2.2131  0.0135 -0.3889
18791TIP3    H277865   6.670   5.855  12.184 -0.2347  0.4799  1.6641
18792TIP3   OH277866   6.567   3.924   0.112  0.2405  0.2017  0.0739
18792TIP3    H177867   6.531   3.870   0.182 -0.6427 -1.9117 -1.8803
18792TIP3    H277868   6.491   3.946   0.058  1.1959 -0.3022 -1.5342
18793TIP3   OH277869   4.969   6.370  13.429  0.4636 -0.7933 -0.4151
18793TIP3    H177870   4.923   6.377  13.513  0.2808 -2.4031 -0.3473
18793TIP3    H277871   4.919   6.426  13.370  1.1251  1.1123  0.7284
18794TIP3   OH277872   4.838   3.618   0.941 -0.2499  0.3767 -0.6186
18794TIP3    H177873   4.857   3.541   0.887 -1.5845 -0.1455 -0.3706
18794TIP3    H277874   4.815   3.686   0.878  0.9415  0.5914 -0.8402
18795TIP3   OH277875   6.352   5.483   3.554  0.3548 -0.4585  0.1145
18795TIP3    H177876   6.282   5.478   3.489  0.3695 -0.8120  0.1226
18795TIP3    H277877   6.368   5.577   3.565 -1.2566 -0.2705  1.3254
18796TIP3   OH277878   3.032   5.707  11.109 -0.4388  0.0397  0.3036
18796TIP3    H177879   3.064   5.793  11.083  1.4811 -0.9455 -0.8247
18796TIP3    H277880   3.019   5.713  11.203  4.0039  0.4007  1.1083
18797TIP3   OH277881   2.822   2.051  15.817 -0.3028 -0.2312  0.5276
18797TIP3    H177882   2.826   2.134  15.865  0.9229  1.0837 -1.6789
18797TIP3    H277883   2.897   2.001  15.849  0.5738  0.6796 -0.0540
18798TIP3   OH277884   2.748   0.718   5.746  0.8447  0.3064 -0.1630
18798TIP3    H177885   2.815   0.781   5.721  1.2427 -0.0680 -0.0486
18798TIP3    H277886   2.746   0.654   5.675 -0.5083  1.1744 -0.9404
18799TIP3   OH277887   0.850   5.734   4.637  0.1315  0.2890 -0.4949
18799TIP3    H177888   0.913   5.689   4.693 -0.0080  0.1818 -0.4227
18799TIP3    H277889   0.861   5.694   4.551 -1.0670 -0.9827 -0.0916
18800TIP3   OH277890   4.049   3.531  13.729 -0.1607 -0.1389 -0.5601
18800TIP3    H177891   4.103   3.458  13.700 -0.3899  0.5321 -2.8083
18800TIP3    H277892   3.987   3.492  13.791  1.0300 -1.4350 -0.1390
18801TIP3   OH277893   6.328   0.883   3.088 -0.4452 -0.0556  0.3214
18801TIP3    H177894   6.311   0.945   3.017  3.2220  2.7492  1.5794
18801TIP3    H277895   6.295   0.926   3.166  0.9479 -0.2632  1.0529
18802TIP3   OH277896   1.719   2.381   4.246  0.8486 -0.5766 -0.1762
18802TIP3    H177897   1.730   2.326   4.323 -0.5660 -0.4207  0.1638
18802TIP3    H277898   1.696   2.320   4.175 -1.4829 -0.4191  0.3691
18803TIP3   OH277899   0.376   0.235  10.687 -0.0403 -0.1048  0.1344
18803TIP3    H177900   0.413   0.182  10.616 -0.3764 -1.3667  0.8656
18803TIP3    H277901   0.395   0.185  10.766 -0.8933  0.5906  0.7959
18804TIP3   OH277902   0.579   0.328   5.467  0.1568  0.3050 -0.1010
18804TIP3    H177903   0.538   0.391   5.526  0.9024  1.5796 -0.8914
18804TIP3    H277904   0.627   0.269   5.525 -0.8929  0.1825  0.6785
18805TIP3   OH277905   1.220   6.352  12.259 -0.0539 -0.0969 -1.1375
18805TIP3    H177906   1.164   6.283  12.295 -0.5610  1.3570  1.0810
18805TIP3    H277907   1.178   6.376  12.176 -1.1084 -0.9528 -0.8783
18806TIP3   OH277908   0.716   4.092   2.100 -0.1882 -0.1105  0.1507
18806TIP3    H177909   0.769   4.052   2.170  1.7550  0.4917 -0.9304
18806TIP3    H277910   0.758   4.063   2.019 -0.3275  1.9748 -0.7041
18807TIP3   OH277911   4.130   3.207   2.700  0.6665 -0.6994 -0.3070
18807TIP3    H177912   4.118   3.114   2.716 -1.4187 -0.4026  0.0139
18807TIP3    H277913   4.090   3.250   2.775  1.4393  0.4753 -0.5411
18808TIP3   OH277914   0.604   5.854   1.787  0.2961 -0.0741  0.4272
18808TIP3    H177915   0.531   5.864   1.848  0.1525 -0.3777  0.3070
18808TIP3    H277916   0.604   5.935   1.735 -0.7418 -0.6081 -0.4192
18809TIP3   OH277917   3.015   4.266  12.730 -0.2594 -0.1651 -0.0512
18809TIP3    H177918   2.982   4.253  12.641 -0.7967 -0.6280  0.2060
18809TIP3    H277919   3.043   4.180  12.758  0.3597  0.0715  0.0571
18810TIP3   OH277920   3.478   6.707   2.136 -0.5494  0.2123 -0.5877
18810TIP3    H177921   3.555   6.713   2.192 -0.9884  2.7931 -0.1307
18810TIP3    H277922   3.509   6.732   2.049 -0.7503  0.7778 -0.5029
18811TIP3   OH277923   4.603   2.467  12.678  0.1926  0.1936 -0.0028
18811TIP3    H177924   4.670   2.532  12.703  1.8246 -1.0861 -0.8347
18811TIP3    H277925   4.603   2.469  12.582 -1.2518  0.4115 -0.0179
18812TIP3   OH277926   3.419   3.797  14.906  0.3892  0.1435  0.0151
18812TIP3    H177927   3.508   3.819  14.931  0.9563  2.5748 -3.4388
18812TIP3    H277928   3.373   3.881  14.905 -0.6162 -0.3495 -2.6170
18813TIP3   OH277929   3.285   3.069  10.979 -0.0113 -0.2845  0.3849
18813TIP3    H177930   3.252   2.987  11.017 -0.4551 -0.9380 -1.3345
18813TIP3    H277931   3.281   3.055  10.885  2.0269  0.8977  0.0686
18814TIP3   OH277932   2.154   1.999   3.501  0.0485 -0.1080 -0.4866
18814TIP3    H177933   2.209   2.064   3.545 -0.6914  1.6612 -2.0786
18814TIP3    H277934   2.126   1.940   3.572  1.0133  1.0847  0.9410
18815TIP3   OH277935   6.567   1.701  13.570  0.5374 -0.8742  0.7988
18815TIP3    H177936   6.492   1.643  13.558 -0.3506  0.3098  0.5556
18815TIP3    H277937   6.624   1.683  13.495 -0.0249 -0.9860  0.3964
18816TIP3   OH277938   2.706   0.382   4.218  0.4901  0.6362 -0.4940
18816TIP3    H177939   2.723   0.438   4.142  1.1907  2.0931  0.6829
18816TIP3    H277940   2.793   0.351   4.244  0.0860 -1.4721 -1.3969
18817TIP3   OH277941   6.094   4.858   6.608  0.2873  0.8170 -0.1048
18817TIP3    H177942   6.182   4.851   6.646 -0.5326 -0.4040  1.6973
18817TIP3    H277943   6.077   4.772   6.570 -0.5225  0.7049  0.4886
18818TIP3   OH277944   2.914   2.139   2.968  0.0285  0.1485  0.0476
18818TIP3    H177945   2.897   2.140   2.874  0.0365 -1.7628 -0.0033
18818TIP3    H277946   2.842   2.088   3.005  0.8142 -0.3750  0.9052
18819TIP3   OH277947   3.543   0.875  13.486 -0.6151 -0.1314  0.7660
18819TIP3    H177948   3.617   0.936  13.494 -1.6125  1.5229 -1.5059
18819TIP3    H277949   3.477   0.909  13.546 -0.3385 -0.2929  1.1595
18820TIP3   OH277950   6.329   3.645   4.160 -0.6516  0.7047 -0.8209
18820TIP3    H177951   6.415   3.616   4.192 -1.2833 -0.4973 -0.1716
18820TIP3    H277952   6.320   3.734   4.195  0.1538  0.7002 -0.5624
18821TIP3   OH277953   3.572   2.608  13.184  0.4406  0.5222 -0.1497
18821TIP3    H177954   3.611   2.580  13.101 -0.5504  0.2082 -0.5187
18821TIP3    H277955   3.531   2.692  13.165 -1.1649 -0.2893 -0.4066
18822TIP3   OH277956   1.424   6.163  13.447  0.2623 -0.7661  0.1547
18822TIP3    H177957   1.504   6.170  13.499 -0.3899  1.1190  0.9866
18822TIP3    H277958   1.432   6.231  13.380 -1.2841  0.5169  1.2063
18823TIP3   OH277959   0.446   5.622  10.773  0.8269 -0.5108  0.7958
18823TIP3    H177960   0.414   5.712  10.779 -0.3344 -0.9709  1.9503
18823TIP3    H277961   0.503   5.622  10.696  0.7434  1.1697  0.6966
18824TIP3   OH277962   5.173   1.316   6.742 -0.4734 -0.8014  0.0429
18824TIP3    H177963   5.206   1.237   6.783 -1.2508 -1.9971 -1.5009
18824TIP3    H277964   5.124   1.285   6.666 -0.2195  1.1955 -1.0259
18825TIP3   OH277965   0.966   4.095  16.818 -0.6180  0.3615 -0.2255
18825TIP3    H177966   1.016   4.135  16.746  0.4586 -1.0061 -0.2700
18825TIP3    H277967   1.018   4.113  16.896 -1.3607  1.1106  0.1117
18826TIP3   OH277968   6.553   3.720  10.902 -0.3798  0.1857  0.1959
18826TIP3    H177969   6.562   3.780  10.827 -0.6739 -0.8635 -0.7047
18826TIP3    H277970   6.500   3.648  10.868  1.6634 -1.5976  0.6223
18827TIP3   OH277971   1.015   0.165  11.068  0.3894  0.0170  0.6971
18827TIP3    H177972   1.054   0.119  11.143 -1.5522 -1.4163  0.8900
18827TIP3    H277973   0.999   0.096  11.003 -0.5151  0.7839  0.0789
18828TIP3   OH277974   4.884   5.813   4.067  0.1370 -0.0368 -0.5959
18828TIP3    H177975   4.827   5.817   3.989 -0.1183  2.3046 -0.3572
18828TIP3    H277976   4.823   5.799   4.140  0.0788  0.4061 -0.5563
18829TIP3   OH277977   4.221   5.474  12.140 -0.0046  0.3540  0.4043
18829TIP3    H177978   4.171   5.428  12.073  1.9218 -0.2053 -0.7380
18829TIP3    H277979   4.193   5.435  12.223 -0.4496 -0.8760 -0.3005
18830TIP3   OH277980   1.936   4.510   0.965  0.1065 -0.5416 -0.2788
18830TIP3    H177981   1.920   4.583   1.024 -0.8213  0.1121 -1.2867
18830TIP3    H277982   1.964   4.438   1.021  1.2238  0.6348  0.7145
18831TIP3   OH277983   3.745   2.918   1.068 -0.0797 -0.4648  0.0407
18831TIP3    H177984   3.691   2.946   0.993  0.0897 -0.4713 -0.0850
18831TIP3    H277985   3.686   2.924   1.143  0.1023  0.7591  0.1000
18832TIP3   OH277986   5.704   3.163  13.612 -0.6384 -0.0070 -0.3852
18832TIP3    H177987   5.621   3.120  13.631 -0.9526  0.3426 -0.9486
18832TIP3    H277988   5.730   3.203  13.695 -2.3747  2.1751 -0.7937
18833TIP3   OH277989   6.002   4.987   0.163  0.0451  0.0004  0.9453
18833TIP3    H177990   6.054   4.920   0.206  1.2760 -0.2821 -0.8831
18833TIP3    H277991   6.034   5.069   0.200 -0.0100 -0.3123  1.6897
18834TIP3   OH277992   2.109   1.101  14.666  0.0205 -0.0359  0.0992
18834TIP3    H177993   2.157   1.178  14.638 -0.3281 -0.1402 -0.8209
18834TIP3    H277994   2.061   1.129  14.744 -0.9265  0.9912 -0.8284
18835TIP3   OH277995   1.754   3.094  14.637 -0.2291  0.0002  0.0818
18835TIP3    H177996   1.702   3.155  14.584  0.3067 -0.7613 -1.3623
18835TIP3    H277997   1.829   3.072  14.582  0.6668 -0.3722  1.3985
18836TIP3   OH277998   5.869   1.799   6.632  0.0518  0.4401  0.0225
18836TIP3    H177999   5.915   1.716   6.636  1.4821  0.7936 -4.0620
18836TIP3    H278000   5.796   1.783   6.572  0.5594  2.1189 -1.1320
18837TIP3   OH278001   4.351   0.234  11.716  0.3811 -0.4383 -0.1301
18837TIP3    H178002   4.333   0.328  11.713 -1.3324 -0.7154  0.4501
18837TIP3    H278003   4.394   0.221  11.800  2.8363  0.1171 -1.1984
18838TIP3   OH278004   6.123   1.433  14.725 -0.1900  0.1330  0.3120
18838TIP3    H178005   6.082   1.409  14.808 -0.3140  1.1827  0.5604
18838TIP3    H278006   6.196   1.490  14.749 -1.4188  2.0769 -0.3893
18839TIP3   OH278007   6.562   3.581  16.013  0.1142  0.6043  0.0264
18839TIP3    H178008   6.489   3.642  15.998 -0.4671 -0.1840 -0.4084
18839TIP3    H278009   6.593   3.603  16.101 -0.5927  1.0070  0.1890
18840TIP3   OH278010   5.910   4.853  14.238 -0.2497 -0.0923 -0.4681
18840TIP3    H178011   5.825   4.846  14.281 -0.1822 -0.5138 -0.3962
18840TIP3    H278012   5.927   4.765  14.204  0.3308 -0.1122 -0.1436
18841TIP3   OH278013   1.244   4.984   4.518  0.2770  0.0281 -0.7029
18841TIP3    H178014   1.326   5.034   4.519  0.3595 -0.0794 -1.4529
18841TIP3    H278015   1.268   4.898   4.553  0.2759  0.2858 -0.0397
18842TIP3   OH278016   3.385   3.123   3.212  0.2446 -0.4996  0.5959
18842TIP3    H178017   3.415   3.143   3.123 -0.8156  0.1780  0.3712
18842TIP3    H278018   3.406   3.202   3.262 -0.1470 -0.4506  0.6877
18843TIP3   OH278019   4.500   2.796  12.127  0.1569  0.2931  0.0063
18843TIP3    H178020   4.555   2.722  12.101 -1.0700  0.2316 -2.7401
18843TIP3    H278021   4.420   2.756  12.161  0.0902  0.3635 -0.0670
18844TIP3   OH278022   3.324   0.231   3.262  0.5317 -0.3685 -0.0106
18844TIP3    H178023   3.359   0.243   3.174 -0.4634 -0.8766 -0.5009
18844TIP3    H278024   3.238   0.273   3.260  1.4921  1.8665  1.5045
18845TIP3   OH278025   4.222   1.111  14.220 -0.8531 -0.9362  0.0025
18845TIP3    H178026   4.163   1.100  14.294 -1.8094 -0.0932 -0.6001
18845TIP3    H278027   4.303   1.147  14.258 -1.8171  0.8372  0.4954
18846TIP3   OH278028   0.092   1.162   0.245 -0.1760 -0.2199 -0.0821
18846TIP3    H178029   0.029   1.157   0.173 -1.7882 -0.7577  1.3145
18846TIP3    H278030   0.074   1.246   0.287  0.2519 -0.2383  0.1455
18847TIP3   OH278031   2.903   6.170  13.269  0.3857  0.3986  0.1659
18847TIP3    H178032   2.829   6.132  13.222  0.2588  2.3624 -1.3675
18847TIP3    H278033   2.883   6.155  13.362 -2.3460  1.5094 -0.1479
18848TIP3   OH278034   5.910   5.845  12.256 -0.2914  0.5431  0.0078
18848TIP3    H178035   5.815   5.837  12.252 -0.0615 -4.3646 -1.6733
18848TIP3    H278036   5.929   5.865  12.348 -2.8526  1.3577  0.4373
18849TIP3   OH278037   4.122   0.507  13.197 -0.0763  0.3563  0.3943
18849TIP3    H178038   4.041   0.476  13.238  0.1585  0.0689  0.6510
18849TIP3    H278039   4.164   0.427  13.166 -0.9735  0.6752 -1.8114
18850TIP3   OH278040   0.079   2.821  13.252 -0.1533 -0.1692  0.0240
18850TIP3    H178041   0.126   2.737  13.247  1.6716  0.8707 -3.1582
18850TIP3    H278042   0.145   2.883  13.285  0.8892  1.2203 -4.0562
18851TIP3   OH278043   6.335   0.574  13.326 -0.2020  0.1496  0.1059
18851TIP3    H178044   6.284   0.532  13.256 -1.2305 -2.5367  2.2673
18851TIP3    H278045   6.281   0.649  13.353 -2.5880 -1.8674  1.4557
18852TIP3   OH278046   4.885   6.548   4.808  0.2136 -0.4325  0.0793
18852TIP3    H178047   4.916   6.547   4.898  0.9871  0.2865 -0.1587
18852TIP3    H278048   4.833   6.628   4.801 -0.1357 -0.6637 -0.0272
18853TIP3   OH278049   0.804   3.484  13.444  0.3290  0.0623 -0.3737
18853TIP3    H178050   0.763   3.412  13.493  0.7665 -0.6552 -1.0393
18853TIP3    H278051   0.731   3.526  13.399  0.2106 -0.7717 -0.9906
18854TIP3   OH278052   4.588   4.005   1.704 -0.2546  0.2282 -0.4021
18854TIP3    H178053   4.518   4.022   1.641 -0.1718  0.5472 -0.4094
18854TIP3    H278054   4.639   3.934   1.664 -1.4421 -1.0720  0.2994
18855TIP3   OH278055   0.512   1.394  16.688  0.4724 -0.5019 -0.2067
18855TIP3    H178056   0.474   1.351  16.611  1.0281 -0.5195 -0.4733
18855TIP3    H278057   0.439   1.398  16.750 -0.0899 -0.1345 -0.8719
18856TIP3   OH278058   4.911   2.567   4.939 -0.1600 -0.5080 -0.0557
18856TIP3    H178059   4.924   2.651   4.984  1.2684 -0.1713 -1.0055
18856TIP3    H278060   4.818   2.549   4.948 -0.2719  0.5415  1.2724
18857TIP3   OH278061   0.838   3.958   6.586  0.5867 -0.2963 -0.4485
18857TIP3    H178062   0.782   4.035   6.589  0.5584 -0.3106 -0.5800
18857TIP3    H278063   0.923   3.991   6.555  0.3373 -0.4498 -1.3242
18858TIP3   OH278064   2.042   6.421  13.039  0.9461  0.0285 -0.3571
18858TIP3    H178065   2.014   6.336  13.005  2.2554 -0.1957 -0.9653
18858TIP3    H278066   2.064   6.405  13.131  0.9685 -0.2423 -0.4090
18859TIP3   OH278067   5.335   2.826   1.430  0.1558 -0.3456  1.0292
18859TIP3    H178068   5.273   2.893   1.459 -0.8819 -0.6924 -0.2920
18859TIP3    H278069   5.285   2.770   1.370  2.5797  1.7081 -3.4485
18860TIP3   OH278070   1.722   0.757  16.447  0.4912 -0.1985  0.0098
18860TIP3    H178071   1.649   0.734  16.391  0.8832 -1.4335 -0.0234
18860TIP3    H278072   1.683   0.809  16.518 -0.3771 -0.6427 -0.1302
18861TIP3   OH278073   6.815   2.714  15.045 -0.8454 -0.2591  0.3464
18861TIP3    H178074   6.824   2.657  14.968 -2.1605 -0.2931  0.1901
18861TIP3    H278075   6.810   2.802  15.009 -2.0295 -0.3166  0.3206
18862TIP3   OH278076   4.235   0.799  11.798 -0.0267 -0.4307 -0.0513
18862TIP3    H178077   4.258   0.757  11.882 -0.4901  0.7865  0.7069
18862TIP3    H278078   4.139   0.803  11.799  0.0300  1.5017  0.3508
18863TIP3   OH278079   2.241   4.787  12.385 -0.6675 -0.3023 -1.0187
18863TIP3    H178080   2.234   4.763  12.477  0.1688 -2.0984 -1.3722
18863TIP3    H278081   2.257   4.881  12.386  1.4122 -0.5850  0.8087
18864TIP3   OH278082   2.236   6.009   4.996 -0.8165  0.2553 -0.3613
18864TIP3    H178083   2.237   6.041   4.906 -2.6205 -0.3933 -0.6647
18864TIP3    H278084   2.250   6.087   5.050  2.7334  0.3302 -1.1623
18865TIP3   OH278085   2.750   2.723  12.879  0.2455 -0.2481  0.1428
18865TIP3    H178086   2.780   2.812  12.861 -0.2184 -0.5204 -2.3509
18865TIP3    H278087   2.657   2.733  12.899 -0.0480 -0.2205 -1.1390
18866TIP3   OH278088   3.943   1.792  16.852  0.3708 -0.0407  0.0430
18866TIP3    H178089   3.936   1.863  16.788  1.8194 -0.5089 -0.6828
18866TIP3    H278090   4.027   1.750  16.832  0.4673 -0.7258  1.7206
18867TIP3   OH278091   5.983   4.996   6.397  0.1752  0.2583 -0.1065
18867TIP3    H178092   6.027   4.963   6.475  0.0435 -0.4882 -0.3428
18867TIP3    H278093   5.946   4.918   6.356  0.4755  0.6133 -1.0630
18868TIP3   OH278094   2.839   6.436   0.637  0.1666  0.2839  0.0594
18868TIP3    H178095   2.933   6.437   0.653  0.4564 -0.2562 -1.4485
18868TIP3    H278096   2.831   6.410   0.546 -1.5338 -1.9493  0.7643
18869TIP3   OH278097   3.545   1.754   6.290  0.7991 -0.0967  0.4865
18869TIP3    H178098   3.489   1.687   6.330  2.1625 -2.2223 -0.9719
18869TIP3    H278099   3.485   1.804   6.235  0.2931 -2.9872 -1.8920
18870TIP3   OH278100   6.079   0.143   2.471 -0.6104 -0.3639  0.0331
18870TIP3    H178101   5.986   0.165   2.473  0.1146  3.7536 -0.9605
18870TIP3    H278102   6.101   0.141   2.378  0.5936  0.6768  0.2659
18871TIP3   OH278103   2.501   6.475   0.350 -0.1386  0.6633 -0.4861
18871TIP3    H178104   2.550   6.535   0.294  1.1226 -0.2955 -0.4494
18871TIP3    H278105   2.503   6.516   0.437  0.3278  0.8039 -0.5588
18872TIP3   OH278106   0.937   4.658   5.887  0.0526 -0.3653  0.5900
18872TIP3    H178107   0.982   4.736   5.855 -1.1825  0.2582  0.3026
18872TIP3    H278108   0.856   4.691   5.924 -0.4638 -1.5116  0.5211
18873TIP3   OH278109   0.747   6.787  10.687 -0.1214 -0.0007  0.5093
18873TIP3    H178110   0.728   6.809  10.778  2.2759 -1.5808  1.4849
18873TIP3    H278111   0.818   6.847  10.662  0.1086 -0.4343  0.1045
18874TIP3   OH278112   5.762   4.584  11.809  0.2679  0.4205 -0.1703
18874TIP3    H178113   5.681   4.532  11.806 -1.8728  3.4925 -0.7939
18874TIP3    H278114   5.801   4.573  11.722  0.1301 -0.5166 -0.1204
18875TIP3   OH278115   0.127   5.523  13.011  0.3387 -0.8105  0.4538
18875TIP3    H178116   0.035   5.542  13.028 -0.2714 -2.0551 -1.1351
18875TIP3    H278117   0.149   5.577  12.935  1.2352  0.2384  1.4386
18876TIP3   OH278118   0.179   2.280   1.613 -0.2685 -0.0186 -0.4805
18876TIP3    H178119   0.136   2.353   1.569  0.5168  0.1126 -1.0657
18876TIP3    H278120   0.221   2.320   1.690 -0.3280  0.0460 -0.4815
18877TIP3   OH278121   0.082   3.813   2.562 -0.3787  0.1123 -0.0241
18877TIP3    H178122   0.065   3.805   2.468  1.5497  0.1554 -0.4083
18877TIP3    H278123   0.090   3.908   2.577 -1.1108  0.1335  0.2857
18878TIP3   OH278124   2.851   6.297  14.572 -0.1733  0.7000  0.3243
18878TIP3    H178125   2.808   6.379  14.596  0.4916  1.2917 -0.4408
18878TIP3    H278126   2.779   6.235  14.557 -0.6805  1.1613  0.8378
18879TIP3   OH278127   2.126   3.583  14.364  0.8113  0.5627 -0.2985
18879TIP3    H178128   2.136   3.517  14.433 -1.4501  0.5805  0.1029
18879TIP3    H278129   2.151   3.665  14.406  0.4715  0.4275  0.1761
18880TIP3   OH278130   5.109   3.163   0.328 -0.3902  0.5880  0.4305
18880TIP3    H178131   5.198   3.137   0.303  0.7331  1.4399  3.1830
18880TIP3    H278132   5.121   3.233   0.392 -3.1043  1.4544  0.1252
18881TIP3   OH278133   6.696   4.265   0.503 -1.2703  0.7119 -0.1284
18881TIP3    H178134   6.629   4.259   0.572  0.1383 -1.5504  1.1567
18881TIP3    H278135   6.672   4.196   0.441 -0.8528  0.7445 -0.3270
18882TIP3   OH278136   3.904   0.352  16.360  0.3936 -0.1997 -0.0686
18882TIP3    H178137   3.904   0.258  16.374 -0.0334 -0.1624  0.2256
18882TIP3    H278138   3.994   0.379  16.379  0.1304 -0.3213  1.5536
18883TIP3   OH278139   5.284   3.011  12.686  0.4808  0.5860 -0.2604
18883TIP3    H178140   5.312   2.940  12.745 -1.0024  0.4783  0.3766
18883TIP3    H278141   5.251   2.965  12.609 -2.7614  0.2856  1.0977
18884TIP3   OH278142   6.397   0.312  13.374 -0.5986  0.4015 -0.6474
18884TIP3    H178143   6.303   0.308  13.393 -0.6253  0.0550 -0.8375
18884TIP3    H278144   6.408   0.391  13.321 -0.7350  0.6080 -0.3716
18885TIP3   OH278145   2.920   3.257  16.799  0.3989  0.2340 -0.6281
18885TIP3    H178146   2.902   3.215  16.715  0.1713  0.6679 -0.8024
18885TIP3    H278147   2.838   3.248  16.848  0.1375  1.0201 -0.9073
18886TIP3   OH278148   3.225   2.802   5.347  0.1876  0.2669  0.0446
18886TIP3    H178149   3.159   2.871   5.346  0.5001  0.5695  0.3273
18886TIP3    H278150   3.253   2.796   5.438  0.2493 -0.1500  0.0010
18887TIP3   OH278151   1.426   3.087   3.416 -0.4764 -0.2404  0.2656
18887TIP3    H178152   1.515   3.120   3.421 -0.0659 -1.2851  0.0509
18887TIP3    H278153   1.424   3.014   3.477 -0.4674 -1.7807 -1.4819
18888TIP3   OH278154   1.744   2.993   3.561  0.0847 -0.0374 -0.7789
18888TIP3    H178155   1.719   3.049   3.634  0.9744 -2.0336  1.1933
18888TIP3    H278156   1.719   2.905   3.590 -0.4657 -0.8070 -3.3609
18889TIP3   OH278157   3.673   2.805   5.310  0.0391 -0.0619  0.6503
18889TIP3    H178158   3.691   2.892   5.276  2.8407 -0.3323  1.2074
18889TIP3    H278159   3.623   2.820   5.390 -2.5586  0.7686 -0.9995
18890TIP3   OH278160   0.564   6.414   1.296 -0.3963  0.1671  0.0410
18890TIP3    H178161   0.572   6.450   1.208 -1.7907 -1.3587 -0.7835
18890TIP3    H278162   0.654   6.402   1.326  0.1728 -1.0147 -1.9555
18891TIP3   OH278163   2.721   4.539   4.493  0.3001  0.0950 -0.5247
18891TIP3    H178164   2.774   4.473   4.447  1.2622  1.5630 -1.6112
18891TIP3    H278165   2.670   4.581   4.423  1.8289  2.4169 -0.3348
18892TIP3   OH278166   4.827   6.531  13.265 -0.1594  0.3185 -0.4434
18892TIP3    H178167   4.773   6.581  13.326 -0.1753 -0.7902  0.4982
18892TIP3    H278168   4.893   6.592  13.235 -0.4921  1.0449  0.2649
18893TIP3   OH278169   1.331   2.260   2.427  0.1259  0.2050 -0.0352
18893TIP3    H178170   1.324   2.249   2.521 -0.2254  2.2140  0.1976
18893TIP3    H278171   1.242   2.278   2.397  0.2067 -0.5507 -0.7955
18894TIP3   OH278172   2.756   1.821   0.889  0.0839  0.4408 -0.1071
18894TIP3    H178173   2.843   1.834   0.852  0.2399 -0.3022 -0.0065
18894TIP3    H278174   2.739   1.901   0.939  1.1490  0.1625  0.7396
18895TIP3   OH278175   4.570   1.783   2.968 -0.2364  0.0755  0.4750
18895TIP3    H178176   4.624   1.708   2.993  0.1608  0.3446  0.4233
18895TIP3    H278177   4.611   1.858   3.011  0.9912  0.7003 -1.6598
18896TIP3   OH278178   0.494   4.044  10.792  0.2150  0.1144 -0.0603
18896TIP3    H178179   0.533   4.017  10.876 -0.4054 -1.7357 -0.3302
18896TIP3    H278180   0.444   3.968  10.763 -0.5752  1.1501 -1.5412
18897TIP3   OH278181   5.792   4.288  15.544 -0.1502  0.2889  0.2891
18897TIP3    H178182   5.791   4.273  15.449 -0.5575  1.5203  0.0790
18897TIP3    H278183   5.704   4.319  15.564 -0.4091 -0.9893  1.2681
18898TIP3   OH278184   6.815   2.670   0.048 -0.3470  0.9163 -0.0095
18898TIP3    H178185   6.853   2.750   0.010  0.1332  0.4905 -0.4431
18898TIP3    H278186   6.749   2.643  -0.016  1.6857 -0.8018 -1.5227
18899TIP3   OH278187   2.260   2.855   1.039  0.3400 -0.3576 -0.2378
18899TIP3    H178188   2.185   2.825   1.091 -0.3483 -0.7165 -1.3817
18899TIP3    H278189   2.220   2.900   0.965  1.2392 -0.9830 -1.1254
18900TIP3   OH278190   2.112   1.900  16.579  0.4544 -0.6516  0.4419
18900TIP3    H178191   2.174   1.828  16.594  1.2124 -0.0454  0.2587
18900TIP3    H278192   2.159   1.960  16.520  0.3033  0.5955  1.5633
18901TIP3   OH278193   2.105   3.801   0.575 -0.2755  0.4479  0.6786
18901TIP3    H178194   2.154   3.727   0.539 -1.1467  1.0583 -1.9972
18901TIP3    H278195   2.172   3.864   0.601  0.4633 -1.0390  2.6037
18902TIP3   OH278196   0.290   5.944   5.593 -0.3062 -0.4768  0.5033
18902TIP3    H178197   0.361   5.941   5.657 -0.1118 -1.8229  0.2427
18902TIP3    H278198   0.212   5.918   5.642 -0.6061  0.7761  0.7329
18903TIP3   OH278199   2.690   1.322   0.808  0.6213 -0.0047 -0.3243
18903TIP3    H178200   2.754   1.255   0.834 -0.0722 -0.4940  0.1369
18903TIP3    H278201   2.696   1.389   0.876 -1.1021 -1.2234  1.1028
18904TIP3   OH278202   3.360   5.704  14.698 -0.0633 -0.9486 -0.3265
18904TIP3    H178203   3.295   5.699  14.628  0.6769 -1.4919 -0.9926
18904TIP3    H278204   3.379   5.613  14.720  0.3932 -0.7923 -0.0689
18905TIP3   OH278205   2.942   1.356  14.224  0.0280 -0.2178 -0.2622
18905TIP3    H178206   3.029   1.395  14.238 -0.0917  0.9066 -2.2820
18905TIP3    H278207   2.895   1.372  14.306  1.4454 -0.0980  0.5633
18906TIP3   OH278208   6.466   5.221   5.768  0.6464 -0.1515 -0.7332
18906TIP3    H178209   6.381   5.241   5.730  1.6619 -0.1176 -3.1457
18906TIP3    H278210   6.452   5.140   5.817 -1.1794  0.8965  0.6297
18907TIP3   OH278211   5.550   2.412   2.227  0.0241  0.3128 -0.0247
18907TIP3    H178212   5.576   2.491   2.275  1.2946 -0.9002  1.3906
18907TIP3    H278213   5.632   2.378   2.191 -0.5415 -0.2488 -0.8052
18908TIP3   OH278214   1.779   5.483  12.989  0.7278  0.3535 -0.0528
18908TIP3    H178215   1.746   5.571  12.971 -0.0716 -0.0537 -0.6356
18908TIP3    H278216   1.715   5.446  13.051  1.9266  0.7335  1.4949
18909TIP3   OH278217   2.013   0.331  16.480  0.2077 -0.2340 -0.8941
18909TIP3    H178218   2.008   0.427  16.485  0.7400 -0.2449 -0.0225
18909TIP3    H278219   1.951   0.301  16.546  1.1036 -0.4677 -0.1340
18910TIP3   OH278220   3.882   3.311   2.039 -0.2299 -0.0043  0.5425
18910TIP3    H178221   3.971   3.276   2.040 -0.9050 -1.8389  0.7730
18910TIP3    H278222   3.831   3.248   2.091 -1.5513  1.3173  0.9117
18911TIP3   OH278223   0.597   2.322   3.073  0.5964  0.5923 -0.1397
18911TIP3    H178224   0.625   2.287   2.988 -0.9728  0.8719 -0.8103
18911TIP3    H278225   0.602   2.247   3.132 -0.7178 -0.2948 -1.0880
18912TIP3   OH278226   2.456   6.675  12.211 -0.4625 -0.9846 -0.1398
18912TIP3    H178227   2.440   6.745  12.148  0.6996 -0.5570  0.0022
18912TIP3    H278228   2.544   6.643  12.189 -0.9248 -2.3106 -0.1186
18913TIP3   OH278229   5.087   3.229  10.686 -0.2987 -0.7003 -0.3524
18913TIP3    H178230   5.077   3.324  10.693  0.5842 -0.6436  0.3457
18913TIP3    H278231   5.053   3.196  10.769 -0.1522 -0.9516 -0.3920
18914TIP3   OH278232   5.624   4.358   2.927  0.0949  0.2088 -0.4181
18914TIP3    H178233   5.565   4.305   2.873 -0.4649 -0.0597  0.4434
18914TIP3    H278234   5.696   4.381   2.868 -0.8140  0.4561 -1.4656
18915TIP3   OH278235   1.861   3.853  16.210  0.2223 -0.1041  0.0328
18915TIP3    H178236   1.799   3.896  16.151  1.9759  1.9756 -0.4097
18915TIP3    H278237   1.887   3.774  16.162  1.6136  1.5312 -2.1222
18916TIP3   OH278238   5.439   3.281   2.624 -0.0361  0.5627  0.8631
18916TIP3    H178239   5.357   3.236   2.646 -0.5511  1.3296  0.5713
18916TIP3    H278240   5.411   3.364   2.585  0.8751  0.1662 -0.7018
18917TIP3   OH278241   1.303   4.129  14.349 -0.2147  0.3929 -0.1792
18917TIP3    H178242   1.259   4.126  14.264 -1.0404 -1.3950  0.2633
18917TIP3    H278243   1.360   4.052  14.349 -1.7179 -0.7797  1.6303
18918TIP3   OH278244   3.987   6.369   2.767 -0.0736  0.5385 -0.7877
18918TIP3    H178245   3.899   6.406   2.768  0.1962  1.2660 -1.8254
18918TIP3    H278246   3.979   6.285   2.812 -0.8707  1.4947  0.9524
18919TIP3   OH278247   1.840   3.897  13.660 -0.2938 -0.6814  0.2648
18919TIP3    H178248   1.906   3.888  13.592 -1.1082  0.5472 -0.7499
18919TIP3    H278249   1.758   3.873  13.616 -0.7714 -0.3279  0.9508
18920TIP3   OH278250   3.728   3.331  13.399 -0.0253  0.0901  0.4178
18920TIP3    H178251   3.794   3.391  13.435 -0.2354  0.6075 -0.0462
18920TIP3    H278252   3.753   3.320  13.308 -0.4244  0.0726  0.3086
18921TIP3   OH278253   3.036   2.407  16.294  0.2145  0.2624  0.5828
18921TIP3    H178254   3.079   2.478  16.247 -0.2365  1.1045  1.4326
18921TIP3    H278255   2.959   2.447  16.334 -0.2166 -0.7699  0.8207
18922TIP3   OH278256   1.271   2.808  12.722  0.0210  0.0637  0.0363
18922TIP3    H178257   1.350   2.767  12.757 -0.0513  0.8633  1.2026
18922TIP3    H278258   1.239   2.747  12.655  0.1138 -1.5866  1.4379
18923TIP3   OH278259   5.245   5.995   5.078 -0.0136  0.0773  0.1751
18923TIP3    H178260   5.202   5.966   5.158  1.1604  2.3698  1.7675
18923TIP3    H278261   5.173   6.020   5.020 -0.8786 -0.2268  1.0908
18924TIP3   OH278262   4.616   4.880   2.360 -0.3615 -0.2245 -0.1855
18924TIP3    H178263   4.538   4.827   2.377  0.6070 -1.7864 -0.4693
18924TIP3    H278264   4.688   4.829   2.396  0.5954  1.0097 -0.2863
18925TIP3   OH278265   3.250   3.446   0.779  0.2193  0.1652  0.5770
18925TIP3    H178266   3.205   3.441   0.862  0.9798 -0.7337  0.9568
18925TIP3    H278267   3.186   3.417   0.714 -0.1123  0.0493  0.9593
18926TIP3   OH278268   3.777   3.145  13.864 -0.0110 -0.1274  0.1629
18926TIP3    H178269   3.825   3.135  13.946 -0.3168  1.8968  0.6536
18926TIP3    H278270   3.792   3.063  13.816 -0.4621 -1.7039  2.5524
18927TIP3   OH278271   1.314   2.869   2.134  0.5795 -0.0428  0.5155
18927TIP3    H178272   1.313   2.964   2.128  0.9811  0.0806  1.9876
18927TIP3    H278273   1.284   2.850   2.223 -0.9906 -1.3683 -0.2391
18928TIP3   OH278274   1.631   1.041  14.000  1.2265 -0.5501 -0.4771
18928TIP3    H178275   1.637   1.093  14.081  2.1771 -2.6727  0.8971
18928TIP3    H278276   1.564   1.086  13.948 -0.0899  0.3953  1.8730
18929TIP3   OH278277   1.009   2.480  14.466 -0.0980 -0.2029 -0.1771
18929TIP3    H178278   1.044   2.555  14.418 -1.3417  1.1104  0.8894
18929TIP3    H278279   0.987   2.514  14.553 -2.7509 -1.2031 -0.3400
18930TIP3   OH278280   0.341   3.840  10.687  0.1680 -0.4680  0.0585
18930TIP3    H178281   0.371   3.749  10.685 -1.2368 -0.9885  1.1605
18930TIP3    H278282   0.260   3.839  10.636  0.4992  0.3284 -0.5023
18931TIP3   OH278283   5.759   6.051  16.019  0.3491  0.6265  0.4017
18931TIP3    H178284   5.741   5.966  16.060 -1.5998  0.5993 -0.4249
18931TIP3    H278285   5.760   6.113  16.092  0.0048  0.1602  0.8095
18932TIP3   OH278286   2.281   3.272   2.303 -0.0256  0.1014 -0.3714
18932TIP3    H178287   2.311   3.357   2.335  3.7215 -0.7874 -1.1624
18932TIP3    H278288   2.274   3.283   2.208 -1.2557 -0.0784 -0.3273
18933TIP3   OH278289   1.481   4.347  13.984 -0.0699 -0.1142  0.3830
18933TIP3    H178290   1.387   4.328  13.989 -0.1854 -1.0183 -2.8094
18933TIP3    H278291   1.523   4.263  14.000  0.1510  0.0679  0.7593
18934TIP3   OH278292   5.219   1.033  13.141  1.0960  0.1472 -0.5076
18934TIP3    H178293   5.172   0.973  13.199  2.4685 -0.7807 -0.3111
18934TIP3    H278294   5.181   1.118  13.159  0.9251 -0.2510  1.1737
18935TIP3   OH278295   2.324   5.441   0.783 -0.1195  0.5410 -0.2200
18935TIP3    H178296   2.399   5.438   0.724  0.4272  2.1071  0.3401
18935TIP3    H278297   2.267   5.370   0.754  0.0191  1.3823 -2.7604
18936TIP3   OH278298   5.997   2.537  13.360  0.4714 -0.4214 -0.4014
18936TIP3    H178299   6.060   2.477  13.321  0.7501  1.0600 -2.3573
18936TIP3    H278300   6.050   2.596  13.414  0.3387 -1.1111  0.5165
18937TIP3   OH278301   0.741   0.152  15.196 -0.5127  0.4855  0.0313
18937TIP3    H178302   0.669   0.212  15.178 -1.1464 -0.7925 -1.9628
18937TIP3    H278303   0.731   0.082  15.132  1.3187 -0.7881  1.0448
18938TIP3   OH278304   5.102   4.375  16.749 -0.0819  0.1584 -0.1975
18938TIP3    H178305   5.197   4.384  16.749 -0.0893  0.5169  1.1525
18938TIP3    H278306   5.084   4.308  16.683  1.1318 -0.1476 -0.2394
18939TIP3   OH278307   6.292   1.505   2.155 -0.0996  1.1603  0.3945
18939TIP3    H178308   6.365   1.504   2.093 -0.9264  0.8860 -0.6060
18939TIP3    H278309   6.329   1.469   2.236  0.2014 -1.7632 -0.9139
18940TIP3   OH278310   0.638   4.350   0.249 -0.1666  0.1572 -0.1394
18940TIP3    H178311   0.627   4.255   0.246  0.4781  0.0927 -0.6132
18940TIP3    H278312   0.552   4.384   0.274 -0.7531 -0.4712 -1.2551
18941TIP3   OH278313   2.043   3.260   2.420 -0.8177 -0.7410 -0.0242
18941TIP3    H178314   2.082   3.240   2.505 -1.4218 -1.1661  0.1542
18941TIP3    H278315   2.118   3.275   2.363 -0.3968 -1.0230  0.4433
18942TIP3   OH278316   1.152   2.060  15.661 -0.0382 -0.2769 -0.3430
18942TIP3    H178317   1.062   2.060  15.627  0.2507  0.6553 -1.1591
18942TIP3    H278318   1.193   1.986  15.615 -0.2406 -0.3712 -0.3777
18943TIP3   OH278319   3.245   1.967   3.521  0.2170 -0.1095 -0.0993
18943TIP3    H178320   3.269   1.961   3.614  0.1480  0.5935 -0.0310
18943TIP3    H278321   3.155   1.936   3.518  0.1967 -0.0732  0.0851
18944TIP3   OH278322   4.430   3.609   0.628  0.1901  0.2579 -0.7395
18944TIP3    H178323   4.425   3.607   0.533 -3.6337  1.8533 -0.7633
18944TIP3    H278324   4.401   3.522   0.656  0.1065  0.1914 -1.0329
18945TIP3   OH278325   3.453   0.777   2.933 -0.2491  0.0464 -0.0228
18945TIP3    H178326   3.498   0.755   2.851  0.4329 -0.1091  0.3837
18945TIP3    H278327   3.375   0.825   2.905  0.9023  1.6248 -0.7021
18946TIP3   OH278328   2.937   6.678  15.095 -0.3383  0.0146  0.5660
18946TIP3    H178329   2.972   6.673  15.007 -0.7273 -0.6332  0.4379
18946TIP3    H278330   2.884   6.758  15.096 -1.9441 -0.9759 -0.4053
18947TIP3   OH278331   4.731   6.715   0.806 -0.0797  0.4716 -0.7601
18947TIP3    H178332   4.694   6.735   0.892  0.8641  3.2604 -0.9043
18947TIP3    H278333   4.778   6.633   0.818 -0.2533  0.6278  1.2886
18948TIP3   OH278334   4.324   0.743  15.937  0.6554 -0.3670  0.8233
18948TIP3    H178335   4.281   0.783  15.861  0.6583 -0.6340  0.6808
18948TIP3    H278336   4.294   0.652  15.937  0.3705 -0.2774  1.3519
18949TIP3   OH278337   1.715   2.130   4.973 -0.6357  0.6387  0.4573
18949TIP3    H178338   1.649   2.181   4.928 -0.3063  0.6326 -0.0371
18949TIP3    H278339   1.678   2.042   4.980 -0.5482  0.5594 -0.0936
18950TIP3   OH278340   6.520   0.860  14.286  0.7506  0.2031  0.3662
18950TIP3    H178341   6.500   0.845  14.193 -2.6807 -0.4888  1.0947
18950TIP3    H278342   6.523   0.955  14.294  0.8140  0.2739 -0.3949
18951TIP3   OH278343   1.041   3.443  17.117 -0.0804  0.5533  0.0677
18951TIP3    H178344   1.105   3.498  17.162  0.3993 -0.1527  0.2768
18951TIP3    H278345   1.087   3.413  17.039  0.3884 -1.1154  0.9359
18952TIP3   OH278346   2.083   5.944  16.595  0.1203  0.3205  0.5229
18952TIP3    H178347   2.066   5.890  16.671  0.0413  0.5918  0.7003
18952TIP3    H278348   2.175   5.970  16.604  0.8616 -1.6262 -0.7345
18953TIP3   OH278349   1.562   1.359  11.032  0.1436 -0.1995 -0.6394
18953TIP3    H178350   1.499   1.348  10.960  0.3179 -0.7344 -0.7195
18953TIP3    H278351   1.519   1.319  11.107  0.6437 -1.1633 -0.8483
18954TIP3   OH278352   2.132   5.514  15.103  0.6870 -0.2283  0.0412
18954TIP3    H178353   2.222   5.535  15.082  0.4581 -0.5474 -1.3568
18954TIP3    H278354   2.114   5.432  15.057 -1.3349  1.5751 -2.7533
18955TIP3   OH278355   5.676   2.298   4.899  0.1474 -0.5136  0.9121
18955TIP3    H178356   5.696   2.218   4.850 -0.2353  0.2755 -0.6180
18955TIP3    H278357   5.584   2.316   4.879  0.1933  0.2349  1.3509
18956TIP3   OH278358   6.590   6.552  11.867  0.0667  0.0673  0.0342
18956TIP3    H178359   6.627   6.488  11.928 -0.8632 -1.2088 -0.6716
18956TIP3    H278360   6.555   6.498  11.795 -0.1147  1.4326 -0.9290
18957TIP3   OH278361   6.693   3.946   1.307  0.1436  0.2863 -0.2887
18957TIP3    H178362   6.779   3.935   1.349  0.0563  0.9777  0.0815
18957TIP3    H278363   6.711   3.941   1.213  0.6635  0.9055 -0.2264
18958TIP3   OH278364   4.589   4.401  11.205 -0.1215  0.3840  0.1377
18958TIP3    H178365   4.622   4.482  11.166 -2.3993  0.9025 -0.8467
18958TIP3    H278366   4.547   4.356  11.132  0.5277 -1.4078  0.8305
18959TIP3   OH278367   0.277   0.474   5.592 -0.1611  0.0429  0.2277
18959TIP3    H178368   0.234   0.545   5.640 -3.1695 -1.0484 -0.6616
18959TIP3    H278369   0.325   0.518   5.522  0.3732  1.3241  1.3421
18960TIP3   OH278370   6.727   2.001  14.265 -0.1694  0.4487  0.6477
18960TIP3    H178371   6.702   1.977  14.176  1.0043 -0.3808  0.5108
18960TIP3    H278372   6.644   2.014  14.311 -0.8601 -1.3909  0.0224
18961TIP3   OH278373   1.812   4.908   2.075  0.3812 -0.2219 -0.3734
18961TIP3    H178374   1.765   4.954   2.145  1.2329 -1.4298  1.0572
18961TIP3    H278375   1.802   4.964   1.998  0.7898  2.0156  1.1142
18962TIP3   OH278376   4.624   6.468  10.394  0.7990  0.1847  0.1191
18962TIP3    H178377   4.701   6.510  10.432  0.8395  0.6659 -0.4807
18962TIP3    H278378   4.571   6.540  10.361 -0.5611 -0.0377  1.6790
18963TIP3   OH278379   0.774   0.127   5.311 -0.9068 -0.2349  0.2878
18963TIP3    H178380   0.815   0.211   5.289 -2.0362  0.5664  1.0790
18963TIP3    H278381   0.714   0.111   5.239 -0.8777 -0.2236  0.2612
18964TIP3   OH278382   6.137   1.829  12.542 -0.0695 -0.2728  0.0383
18964TIP3    H178383   6.220   1.813  12.587 -0.7487 -0.4717  1.2683
18964TIP3    H278384   6.071   1.823  12.611 -1.1319 -0.3286 -0.9569
18965TIP3   OH278385   5.890   0.220   5.009 -0.4291 -0.6195 -0.4048
18965TIP3    H178386   5.850   0.160   4.946 -0.6547  0.5423 -1.3930
18965TIP3    H278387   5.978   0.184   5.024 -0.5247 -1.1291 -1.0654
18966TIP3   OH278388   2.931   2.842   5.930  0.2634 -0.0145  0.5487
18966TIP3    H178389   2.897   2.798   5.851  1.4195 -1.1343  0.6337
18966TIP3    H278390   3.024   2.858   5.910  0.4997 -0.0499  1.5641
18967TIP3   OH278391   6.089   2.615  12.049  0.0395  0.1809 -0.5642
18967TIP3    H178392   6.006   2.655  12.073  0.4755  0.5246  0.4423
18967TIP3    H278393   6.104   2.642  11.958 -0.0550  1.6626 -0.1682
18968TIP3   OH278394   1.435   2.861   4.629  0.0556  0.0439 -0.2130
18968TIP3    H178395   1.404   2.831   4.543  0.9118  0.1424 -0.5663
18968TIP3    H278396   1.356   2.861   4.684 -0.0449 -2.7953 -0.1992
18969TIP3   OH278397   0.774   1.353  12.418  0.3136  0.7492  0.7748
18969TIP3    H178398   0.739   1.282  12.365 -2.6084  0.5582  2.7236
18969TIP3    H278399   0.743   1.433  12.376 -3.0635  0.5789  2.6280
18970TIP3   OH278400   1.499   4.361  15.666 -0.1519 -0.0939 -0.6776
18970TIP3    H178401   1.421   4.351  15.719 -0.6667  1.7483 -0.9954
18970TIP3    H278402   1.571   4.368  15.729 -0.4788 -0.0817 -0.3044
18971TIP3   OH278403   5.694   6.103  12.430 -0.1254 -0.0873 -0.1948
18971TIP3    H178404   5.679   6.011  12.449  2.3249 -0.8191 -1.3036
18971TIP3    H278405   5.786   6.118  12.453  0.0297  1.6001 -1.6275
18972TIP3   OH278406   2.587   0.392   4.720  0.0944 -0.1019 -0.3768
18972TIP3    H178407   2.634   0.400   4.637 -1.5069  0.3919 -1.2739
18972TIP3    H278408   2.517   0.330   4.702 -0.6333  0.4716  0.4190
18973TIP3   OH278409   4.199   3.592   5.418 -0.4659 -0.3039  0.0194
18973TIP3    H178410   4.270   3.651   5.442  0.7267 -1.5417 -0.3495
18973TIP3    H278411   4.220   3.563   5.330 -2.6018  0.9659 -0.9893
18974TIP3   OH278412   2.665   0.087  16.775  0.2806 -0.4250  0.4316
18974TIP3    H178413   2.679   0.156  16.840 -0.3866  0.4715 -0.3633
18974TIP3    H278414   2.587   0.041  16.804 -0.2749  0.2587  0.0324
18975TIP3   OH278415   5.446   5.475  11.748  0.5326  0.7775 -0.3369
18975TIP3    H178416   5.401   5.451  11.667  0.7188  1.4949 -0.6570
18975TIP3    H278417   5.480   5.392  11.782  2.1182  0.6942 -1.9809
18976TIP3   OH278418   3.658   0.508  15.617 -0.1466 -0.3615  0.2218
18976TIP3    H178419   3.633   0.595  15.586  1.6489 -0.2525 -1.0918
18976TIP3    H278420   3.686   0.522  15.707  2.9873  1.1044 -0.8175
18977TIP3   OH278421   1.174   0.862  13.563  0.3015 -0.5292 -0.3677
18977TIP3    H178422   1.173   0.900  13.475  1.0344 -0.3082 -0.2821
18977TIP3    H278423   1.172   0.937  13.622  1.8125 -0.6042 -0.2000
18978TIP3   OH278424   1.008   0.299  16.722  0.1614 -0.1423  0.1292
18978TIP3    H178425   1.048   0.330  16.641  0.6216 -0.0107  0.4062
18978TIP3    H278426   0.920   0.338  16.722  1.0167  1.9150  0.8912
18979TIP3   OH278427   4.734   3.961   5.936 -0.0363 -0.0254 -0.4491
18979TIP3    H178428   4.716   3.899   6.006  1.1682  0.4986  0.3731
18979TIP3    H278429   4.827   3.948   5.915  0.2757  1.5307 -0.1779
18980TIP3   OH278430   6.149   6.052   5.161  0.6224  0.2782 -0.0202
18980TIP3    H178431   6.204   5.979   5.189 -0.7446 -1.1621 -0.9774
18980TIP3    H278432   6.196   6.091   5.088  0.8290 -0.3462 -0.2222
18981TIP3   OH278433   6.297   2.825  13.337 -0.0846  0.4800  0.5996
18981TIP3    H178434   6.216   2.781  13.362  0.0903 -0.6370 -0.6499
18981TIP3    H278435   6.365   2.759  13.348  0.5409  1.1556  0.8767
18982TIP3   OH278436   1.921   3.480   0.698  0.4588  0.4530 -0.4827
18982TIP3    H178437   1.965   3.534   0.764 -1.4493  0.3087  1.0117
18982TIP3    H278438   1.894   3.401   0.746  0.2770 -0.3231 -1.8124
18983TIP3   OH278439   0.329   4.942  13.744  0.0204  0.6143  0.3417
18983TIP3    H178440   0.235   4.960  13.734 -0.4697 -0.9261  1.7329
18983TIP3    H278441   0.358   4.918  13.656 -1.1848 -0.1431  0.1266
18984TIP3   OH278442   4.487   1.308  13.116 -0.1321 -0.0615  0.4555
18984TIP3    H178443   4.436   1.386  13.095  0.9238  0.1915 -1.4290
18984TIP3    H278444   4.432   1.235  13.087  0.7335  0.2341 -2.2798
18985TIP3   OH278445   5.305   2.192  16.976 -0.0815  0.4380  0.8024
18985TIP3    H178446   5.224   2.240  16.958 -0.3713 -0.1722  0.4712
18985TIP3    H278447   5.366   2.223  16.909 -0.5160 -0.2521  0.0777
18986TIP3   OH278448   3.407   6.222  12.975 -0.5695 -0.4909  0.5659
18986TIP3    H178449   3.361   6.218  13.059 -0.9602  0.1017  0.3836
18986TIP3    H278450   3.476   6.287  12.988 -0.2469 -0.8435  0.6150
18987TIP3   OH278451   2.282   6.274  16.511 -0.3429 -0.0023 -0.6335
18987TIP3    H178452   2.328   6.191  16.502  0.6028  0.4524 -0.0782
18987TIP3    H278453   2.303   6.304  16.599 -0.7210  0.7987 -0.8077
18988TIP3   OH278454   3.335   3.271  11.945  0.0381 -0.7065  0.2338
18988TIP3    H178455   3.289   3.202  11.897  1.2848 -1.6151  0.2910
18988TIP3    H278456   3.285   3.350  11.927  0.4690 -0.9882 -2.6309
18989TIP3   OH278457   2.168   3.834   1.777 -0.0357 -0.6914 -0.6612
18989TIP3    H178458   2.138   3.759   1.830  1.1673 -0.5507  0.2653
18989TIP3    H278459   2.251   3.805   1.740  1.6424  0.9606  1.5965
18990TIP3   OH278460   3.105   0.119   0.648 -0.1277 -0.0313 -0.1720
18990TIP3    H178461   3.047   0.159   0.713 -0.7825 -0.7653 -0.2903
18990TIP3    H278462   3.060   0.133   0.564  1.2003  1.8395 -0.6488
18991TIP3   OH278463   2.559   3.335  13.286  0.5404 -0.4872  0.7073
18991TIP3    H178464   2.623   3.379  13.342 -0.8619  0.2023  1.8039
18991TIP3    H278465   2.535   3.256  13.335  1.6351 -1.5417 -0.3906
18992TIP3   OH278466   6.700   6.041  14.889 -0.4551 -0.6144  0.8451
18992TIP3    H178467   6.765   5.975  14.915 -1.7201 -1.1525  2.9011
18992TIP3    H278468   6.649   5.998  14.820  0.6789 -0.5798 -0.0394
18993TIP3   OH278469   2.639   1.931  13.088 -0.0859  0.2812  0.1463
18993TIP3    H178470   2.680   2.009  13.126 -2.1591  0.3839  2.4989
18993TIP3    H278471   2.663   1.861  13.149 -1.0316 -0.1906 -0.0121
18994TIP3   OH278472   3.296   1.238  12.813 -0.5533  1.0380 -0.0084
18994TIP3    H178473   3.247   1.156  12.824 -0.9557  1.3975  1.0040
18994TIP3    H278474   3.288   1.257  12.720 -0.3356 -0.1431 -0.2924
18995TIP3   OH278475   4.968   0.538  12.578 -0.5102 -0.0399 -0.8735
18995TIP3    H178476   4.932   0.458  12.617 -0.8576  0.3739 -0.3303
18995TIP3    H278477   4.892   0.596  12.569 -0.1087  0.5906 -0.3470
18996TIP3   OH278478   3.287   3.074  12.453  0.1582  0.2645 -0.4044
18996TIP3    H178479   3.351   3.134  12.415 -0.5850  0.2544 -1.7131
18996TIP3    H278480   3.316   3.063  12.544  1.5594  0.8638 -0.7524
18997TIP3   OH278481   4.806   3.978   4.019  0.0551 -0.0518 -0.0604
18997TIP3    H178482   4.760   3.895   4.007 -1.2816  0.9413 -2.7610
18997TIP3    H278483   4.866   3.983   3.945  0.4398  1.2038  0.3073
18998TIP3   OH278484   3.801   2.212  16.872 -0.3410  0.3887 -0.2060
18998TIP3    H178485   3.727   2.195  16.813  0.1077  0.8065 -0.8962
18998TIP3    H278486   3.878   2.180  16.825 -0.1771 -1.0207  0.9429
18999TIP3   OH278487   3.588   2.605  11.094 -0.2724 -0.1366 -1.1101
18999TIP3    H178488   3.557   2.681  11.143  0.2716 -0.1727 -0.7038
18999TIP3    H278489   3.518   2.587  11.032 -0.0589  1.2220 -1.8015
19000TIP3   OH278490   4.340   0.829   1.670  0.1406  0.0203  0.1445
19000TIP3    H178491   4.340   0.883   1.591  0.4895 -0.8086 -0.4393
19000TIP3    H278492   4.428   0.839   1.706 -0.1973  0.8605  0.7682
19001TIP3   OH278493   6.234   2.183  16.235  0.2697 -0.7340 -0.0692
19001TIP3    H178494   6.154   2.150  16.277 -0.4223  1.0066  0.0899
19001TIP3    H278495   6.218   2.172  16.142 -0.2005 -0.3519 -0.0424
19002TIP3   OH278496   4.062   0.076  15.938  0.2542  0.7507  0.2469
19002TIP3    H178497   4.059   0.170  15.918 -1.9012  0.4475 -1.1863
19002TIP3    H278498   4.048   0.071  16.032 -1.2716  1.8462  0.1281
19003TIP3   OH278499   2.487   0.453  11.155 -0.7652  0.6459 -0.1658
19003TIP3    H178500   2.494   0.428  11.062  0.7782  0.6935 -0.0781
19003TIP3    H278501   2.477   0.369  11.201 -0.6217  0.5587 -0.2923
19004TIP3   OH278502   2.901   6.232   5.123 -0.3924  0.3067 -0.8324
19004TIP3    H178503   2.915   6.233   5.029 -4.1159  0.1774 -1.5376
19004TIP3    H278504   2.870   6.320   5.144 -0.5000  0.0554  0.1127
19005TIP3   OH278505   1.872   3.053  16.582  0.2585 -0.6287  0.1478
19005TIP3    H178506   1.824   3.134  16.598  1.0373 -0.3230  1.0126
19005TIP3    H278507   1.835   3.019  16.500  0.7369  1.2237 -0.8993
19006TIP3   OH278508   5.612   1.322  11.430 -0.4133  0.2133 -0.5228
19006TIP3    H178509   5.642   1.400  11.477 -1.3984 -0.2858  1.0254
19006TIP3    H278510   5.657   1.325  11.346  1.0818  1.4021  0.2832
19007TIP3   OH278511   0.510   0.055  15.589 -0.5345  0.1318 -0.0098
19007TIP3    H178512   0.590   0.104  15.570 -0.3818  0.0860  0.4875
19007TIP3    H278513   0.534  -0.002  15.663 -0.6972 -0.7230 -0.6036
19008TIP3   OH278514   5.673   3.089  15.837  0.3404 -0.5388  0.2806
19008TIP3    H178515   5.598   3.042  15.874  0.0250 -0.5798 -0.3960
19008TIP3    H278516   5.644   3.180  15.832  0.1947 -0.6099 -0.3111
19009TIP3   OH278517   2.044   2.733  16.873 -0.1915  0.7050  0.3446
19009TIP3    H178518   2.053   2.640  16.850 -1.0621  0.4402  1.0085
19009TIP3    H278519   2.102   2.744  16.948 -0.8128  0.4425  0.8809
19010TIP3   OH278520   4.423   4.539   1.728  0.1782 -0.2647  0.2505
19010TIP3    H178521   4.458   4.602   1.791  0.0891  1.5494 -1.4367
19010TIP3    H278522   4.332   4.527   1.754  0.7212 -1.3393  1.8084
19011TIP3   OH278523   6.668   3.534  13.459 -0.1180 -0.5674 -0.7761
19011TIP3    H178524   6.628   3.474  13.522  1.7564  0.1673  1.2651
19011TIP3    H278525   6.609   3.610  13.458 -0.0731 -0.5003  0.3040
19012TIP3   OH278526   6.263   6.306   4.180 -0.0365 -0.4608 -0.3818
19012TIP3    H178527   6.201   6.237   4.205  2.1804 -1.8772  1.6480
19012TIP3    H278528   6.300   6.275   4.097 -1.2412 -0.1168 -1.0726
19013TIP3   OH278529   1.612   1.097   3.633 -0.6085  0.2820  0.4595
19013TIP3    H178530   1.531   1.123   3.678 -0.7933  0.8760 -0.2008
19013TIP3    H278531   1.588   1.098   3.540  0.1465  0.4121  0.2657
19014TIP3   OH278532   5.641   1.378   3.098  0.6807 -0.5829  0.4516
19014TIP3    H178533   5.590   1.387   3.178 -0.3897  0.6670 -0.3408
19014TIP3    H278534   5.628   1.460   3.051  1.8803 -1.0001 -0.6703
19015TIP3   OH278535   2.748   5.147   5.819  0.0159 -0.5374  0.4559
19015TIP3    H178536   2.783   5.205   5.751  1.3127 -0.2519  1.3380
19015TIP3    H278537   2.653   5.159   5.813  0.2295  1.7227  0.6284
19016TIP3   OH278538   2.961   6.517   5.500  0.0385  0.3638  0.0405
19016TIP3    H178539   2.986   6.438   5.452 -0.6166  0.4294 -0.4125
19016TIP3    H278540   2.926   6.485   5.583 -0.8872  0.1333 -0.4274
19017TIP3   OH278541   2.404   5.910  16.835  0.6936 -0.2598 -0.3349
19017TIP3    H178542   2.485   5.866  16.861  0.0274 -2.3519 -1.4964
19017TIP3    H278543   2.335   5.851  16.864 -0.1765 -1.4139 -4.1301
19018TIP3   OH278544   4.127   5.969  15.355 -0.1473  0.2101 -0.7659
19018TIP3    H178545   4.223   5.974  15.359 -0.1774  1.0714 -0.8528
19018TIP3    H278546   4.098   6.009  15.437 -0.4291 -0.5003 -0.5127
19019TIP3   OH278547   6.753   4.245   2.334 -0.1372  0.4720  0.1804
19019TIP3    H178548   6.845   4.218   2.335 -0.2617 -0.2252 -2.2002
19019TIP3    H278549   6.705   4.168   2.364 -0.0887 -0.0563 -1.0420
19020TIP3   OH278550   2.273   1.257   2.843 -0.8450  0.3848 -0.0282
19020TIP3    H178551   2.258   1.328   2.906  0.0778 -0.3611  1.0782
19020TIP3    H278552   2.188   1.213   2.835 -1.0596  0.7055  0.4281
19021TIP3   OH278553   1.999   3.362   2.861 -0.1919 -0.1255 -0.4228
19021TIP3    H178554   1.971   3.445   2.900  1.3342  0.9157 -1.4182
19021TIP3    H278555   2.051   3.320   2.930 -1.1863 -0.4110  0.1783
19022TIP3   OH278556   5.782   0.051  16.614 -0.1922  0.3199  0.1029
19022TIP3    H178557   5.846  -0.005  16.657  0.1195  0.2361 -0.4653
19022TIP3    H278558   5.820   0.138  16.618 -0.5438  0.4505  0.7279
19023TIP3   OH278559   6.576   1.088  16.059  0.1578  0.2969 -0.6994
19023TIP3    H178560   6.541   1.043  15.981 -0.1569 -0.3041 -0.2214
19023TIP3    H278561   6.605   1.173  16.026 -2.2264  1.0465 -1.0319
19024TIP3   OH278562   0.326   5.980  11.416 -0.0891  0.2419  0.4790
19024TIP3    H178563   0.343   5.886  11.424 -1.2839 -0.1045 -0.6810
19024TIP3    H278564   0.267   6.001  11.488 -1.1094 -0.2591 -0.1909
19025TIP3   OH278565   5.297   2.189   0.454  0.1057 -0.6411 -0.7698
19025TIP3    H178566   5.225   2.153   0.505  0.2797  0.4203  0.2796
19025TIP3    H278567   5.368   2.127   0.465 -0.8648 -2.1468 -2.5145
19026TIP3   OH278568   6.771   2.948  15.191  0.5849 -0.3654 -0.2797
19026TIP3    H178569   6.783   2.947  15.286 -2.0675  0.1146  0.1173
19026TIP3    H278570   6.756   2.856  15.168 -3.3407 -0.0852  0.5462
19027TIP3   OH278571   4.307   0.809  16.809 -0.4543 -0.6586  0.1850
19027TIP3    H178572   4.264   0.797  16.894  0.2052  0.6535  0.7281
19027TIP3    H278573   4.247   0.769  16.746 -1.7335 -0.2174  1.0923
19028TIP3   OH278574   0.592   4.143   5.644  0.0565 -0.2203  0.2082
19028TIP3    H178575   0.598   4.192   5.562  1.1929 -1.2689 -0.3542
19028TIP3    H278576   0.507   4.099   5.640 -0.1535  0.2061 -0.1211
19029TIP3   OH278577   3.182   0.658   3.426  0.1197  0.3788  0.8720
19029TIP3    H178578   3.206   0.689   3.513 -1.4023  0.3168  1.3358
19029TIP3    H278579   3.187   0.736   3.371 -0.5144  0.7692  1.3591
19030TIP3   OH278580   5.883   0.257   5.700 -0.2571  0.2057 -0.6976
19030TIP3    H178581   5.877   0.349   5.727  0.6711  0.3658 -0.9979
19030TIP3    H278582   5.972   0.231   5.722 -0.6974 -0.8167 -0.0505
19031TIP3   OH278583   0.212   4.366  15.549  0.7096  0.1213  0.2513
19031TIP3    H178584   0.174   4.360  15.637  1.3698  0.2253  0.5502
19031TIP3    H278585   0.256   4.281  15.537  1.3252  0.4210  0.3577
19032TIP3   OH278586   1.645   3.808  11.417  0.1820 -0.8058 -1.0236
19032TIP3    H178587   1.596   3.782  11.495  0.6752  0.8296 -0.1343
19032TIP3    H278588   1.581   3.850  11.360  0.3323  0.4950 -0.2658
19033TIP3   OH278589   3.373   6.469   3.632 -0.1865  0.6725  0.1194
19033TIP3    H178590   3.445   6.423   3.588 -1.7614 -0.3291 -1.5453
19033TIP3    H278591   3.390   6.562   3.614 -1.1394  0.3174 -3.4961
19034TIP3   OH278592   2.051   6.249   0.046 -0.8353 -0.6447 -1.0970
19034TIP3    H178593   1.962   6.235   0.078 -0.8173  1.3148 -0.0831
19034TIP3    H278594   2.107   6.212   0.115 -0.8413  1.3474  0.0327
19035TIP3   OH278595   1.908   4.223   4.464 -0.0720  0.3788 -0.0162
19035TIP3    H178596   1.974   4.183   4.520  1.8829  0.2504 -2.2604
19035TIP3    H278597   1.905   4.167   4.386 -1.8016  1.1921 -0.5808
19036TIP3   OH278598   2.116   3.356  14.042  0.5148 -0.1157  0.1862
19036TIP3    H178599   2.124   3.446  14.012  0.3182  0.6472  2.3047
19036TIP3    H278600   2.077   3.310  13.968  1.0798  1.4122 -1.1136
19037TIP3   OH278601   5.457   1.164   2.712  0.0665 -0.3102 -0.0528
19037TIP3    H178602   5.473   1.247   2.667 -0.9770 -0.3964 -0.6174
19037TIP3    H278603   5.545   1.129   2.730  0.5165  0.2694 -1.0293
19038TIP3   OH278604   3.248   1.756  10.427 -0.2902  0.0049  0.3037
19038TIP3    H178605   3.306   1.754  10.351 -1.6044 -0.0900 -0.7328
19038TIP3    H278606   3.208   1.669  10.429 -0.2879  0.0128  1.1059
19039TIP3   OH278607   6.104   1.549  16.677  0.6157  0.4304 -0.0534
19039TIP3    H178608   6.142   1.629  16.642  0.0112  1.5269  1.6538
19039TIP3    H278609   6.013   1.572  16.696  0.3553 -0.7409  0.2037
19040TIP3   OH278610   6.730   2.793   4.229 -0.1578 -0.2791  0.0604
19040TIP3    H178611   6.724   2.709   4.274  0.7235 -0.5442 -0.2861
19040TIP3    H278612   6.801   2.839   4.274 -0.5829  0.2477  0.1966
19041TIP3   OH278613   1.001   1.451  11.926  0.1050  0.4336  0.7620
19041TIP3    H178614   1.046   1.370  11.903 -1.2488 -0.4383  1.0851
19041TIP3    H278615   0.926   1.423  11.978 -0.5119  1.8756  0.6955
19042TIP3   OH278616   0.740   2.239  17.115  0.6522  0.1095  0.2310
19042TIP3    H178617   0.817   2.282  17.153  1.1918  1.6699 -2.3613
19042TIP3    H278618   0.737   2.153  17.158  1.5078  1.4122  3.2247
19043TIP3   OH278619   1.847   6.228  12.664  0.4988  0.4458  0.6790
19043TIP3    H178620   1.901   6.305  12.644 -0.0057  0.6206 -0.0773
19043TIP3    H278621   1.907   6.167  12.707  2.2355 -0.6363 -2.8137
19044TIP3   OH278622   1.360   1.301   1.537 -0.5860  0.1709  0.3968
19044TIP3    H178623   1.292   1.281   1.472 -0.4472  0.6380  0.1038
19044TIP3    H278624   1.318   1.284   1.621 -2.1461  3.3588  0.4207
19045TIP3   OH278625   3.439   1.525  14.913  0.2325  0.3136  0.3070
19045TIP3    H178626   3.527   1.559  14.896 -0.1603  1.6884  0.8927
19045TIP3    H278627   3.400   1.515  14.826  1.9622 -3.3670 -0.2701
19046TIP3   OH278628   0.385   1.851  12.277 -0.2514  0.4154  0.0974
19046TIP3    H178629   0.382   1.846  12.373 -0.6699 -0.8026  0.0375
19046TIP3    H278630   0.438   1.776  12.251 -0.3971  0.5676 -0.6476
19047TIP3   OH278631   3.108   4.817   1.080  0.2042 -0.3737  0.3751
19047TIP3    H178632   3.092   4.750   1.013 -1.2305 -0.3693  0.6853
19047TIP3    H278633   3.140   4.893   1.030  2.0237 -1.3064  0.0422
19048TIP3   OH278634   5.905   4.392  16.557  0.1459 -0.1358 -0.2767
19048TIP3    H178635   5.870   4.435  16.635  1.2588  0.3462 -0.0249
19048TIP3    H278636   5.985   4.441  16.536 -0.1572 -0.2112 -1.7540
19049TIP3   OH278637   0.882   4.643   3.551  0.6698  0.1910  0.2279
19049TIP3    H178638   0.884   4.627   3.645  0.4927 -0.1225  0.1782
19049TIP3    H278639   0.922   4.730   3.541  0.0336  0.5462  0.6604
19050TIP3   OH278640   0.720   4.954   0.451  0.0190 -0.3277 -0.2542
19050TIP3    H178641   0.656   4.915   0.510 -1.4146  0.0007 -1.5422
19050TIP3    H278642   0.675   4.962   0.367  1.7319 -0.0376 -1.2098
19051TIP3   OH278643   4.569   5.734  11.739  0.1051  0.3189  0.2283
19051TIP3    H178644   4.532   5.651  11.709  0.2445  0.2894  0.1385
19051TIP3    H278645   4.653   5.711  11.778 -0.9665  0.0901  2.5375
19052TIP3   OH278646   4.488   6.411  14.192  0.1245 -0.2776 -0.4040
19052TIP3    H178647   4.397   6.439  14.194  0.7253  2.1570 -2.1031
19052TIP3    H278648   4.535   6.477  14.243  1.1333 -0.5254 -0.9712
19053TIP3   OH278649   0.686   3.865  13.431  0.0955  0.1066  0.6790
19053TIP3    H178650   0.738   3.861  13.511  0.1401  1.5039  0.7469
19053TIP3    H278651   0.698   3.955  13.400 -1.9629  0.3472  0.4905
19054TIP3   OH278652   0.542   0.843   4.479 -0.3467 -0.1028 -0.0887
19054TIP3    H178653   0.474   0.776   4.488 -1.9571  1.4486 -0.2128
19054TIP3    H278654   0.547   0.859   4.385  1.2009 -1.1461 -0.2235
19055TIP3   OH278655   4.409   6.095  10.834  0.9196  0.4044  0.1534
19055TIP3    H178656   4.459   6.015  10.820 -1.6914 -1.2302 -0.6175
19055TIP3    H278657   4.431   6.152  10.760  1.9109 -0.0904  0.0625
19056TIP3   OH278658   2.396   3.242  11.350  0.7203 -0.2429  0.3957
19056TIP3    H178659   2.329   3.237  11.417  0.3515  0.1500  0.0593
19056TIP3    H278660   2.407   3.335  11.333  0.2191 -0.3667 -0.6780
19057TIP3   OH278661   0.821   1.594  13.064  0.0089  0.4018 -0.4984
19057TIP3    H178662   0.772   1.537  13.006  0.3188  0.8356 -1.2053
19057TIP3    H278663   0.882   1.641  13.006  0.6569  0.4969  0.2367
19058TIP3   OH278664   4.302   5.459   2.244  0.0409 -0.0418 -0.5386
19058TIP3    H178665   4.248   5.379   2.248  0.6096 -0.4055  0.1669
19058TIP3    H278666   4.295   5.488   2.153  0.1174 -1.1099 -0.9038
19059TIP3   OH278667   4.557   3.146   4.885 -0.9159 -0.0302 -0.1605
19059TIP3    H178668   4.558   3.184   4.797 -0.6818 -1.5408 -0.8408
19059TIP3    H278669   4.541   3.052   4.871  1.3861 -0.7184  1.2257
19060TIP3   OH278670   2.566   1.422   6.567  0.4062  0.1768  0.3757
19060TIP3    H178671   2.476   1.440   6.538  0.6138  3.0035  1.1330
19060TIP3    H278672   2.559   1.342   6.619 -1.6127  0.1275  0.1140
19061TIP3   OH278673   0.983   4.023  13.003  0.4058  0.1918  0.2585
19061TIP3    H178674   0.973   3.929  12.992  0.9442  0.2476 -0.7756
19061TIP3    H278675   0.946   4.061  12.924  0.6239  0.8249  0.4556
19062TIP3   OH278676   1.073   5.552  12.839 -0.3546  0.2887 -0.4718
19062TIP3    H178677   1.087   5.469  12.793 -1.9665  1.1075 -2.6321
19062TIP3    H278678   1.012   5.530  12.909 -0.2312 -0.4635 -0.5913
19063TIP3   OH278679   4.166   0.033   3.495  0.5885 -0.0399  0.2734
19063TIP3    H178680   4.181  -0.059   3.472 -1.5771 -1.0929  2.4832
19063TIP3    H278681   4.240   0.056   3.550  1.0151 -0.5435 -0.0725
19064TIP3   OH278682   3.945   5.747   2.550  0.0049 -0.0923 -0.2629
19064TIP3    H178683   3.940   5.788   2.636  0.7532 -0.3505 -0.0912
19064TIP3    H278684   3.983   5.815   2.493 -0.5753  0.1107 -0.4203
19065TIP3   OH278685   1.889   4.761   2.729 -0.2183  0.2211 -0.0396
19065TIP3    H178686   1.811   4.817   2.721  1.5571  2.6856 -1.4711
19065TIP3    H278687   1.860   4.688   2.784 -3.2199  1.5687  0.3855
19066TIP3   OH278688   0.701   5.097   6.547 -0.6219 -0.0683 -0.8834
19066TIP3    H178689   0.764   5.165   6.523 -0.6115  0.0508 -0.5162
19066TIP3    H278690   0.756   5.022   6.570 -0.6321 -0.1829 -1.2328
19067TIP3   OH278691   3.863   5.165  16.403 -0.5165  0.3629 -0.5649
19067TIP3    H178692   3.873   5.182  16.496 -2.3456  0.7417 -0.3910
19067TIP3    H278693   3.878   5.250  16.362 -2.4518  0.8787 -0.3252
19068TIP3   OH278694   5.197   0.175   4.258 -0.9417  0.1166  0.2401
19068TIP3    H178695   5.214   0.152   4.349  0.8223  1.1902  0.2295
19068TIP3    H278696   5.113   0.221   4.259 -1.6876 -1.2154  1.0724
19069TIP3   OH278697   4.960   0.975  13.628 -0.5569 -0.0699  0.1766
19069TIP3    H178698   4.999   0.947  13.546  2.1922 -2.9377  2.2046
19069TIP3    H278699   5.031   1.017  13.676 -1.5441 -0.1737  1.8167
19070TIP3   OH278700   1.159   0.010   1.324 -0.3505 -0.1375  0.0624
19070TIP3    H178701   1.223   0.077   1.301 -0.5432  0.4214  1.1038
19070TIP3    H278702   1.122  -0.018   1.240  1.9619 -1.2124 -0.6565
19071TIP3   OH278703   0.183   6.670   5.330  0.4964  0.3509  0.3960
19071TIP3    H178704   0.194   6.764   5.342  2.3124  0.1991  0.2449
19071TIP3    H278705   0.120   6.662   5.258  0.0482  1.4255  0.6513
19072TIP3   OH278706   1.363   1.053  11.809  0.3629  0.1512 -0.6658
19072TIP3    H178707   1.428   1.111  11.770  1.3231  0.5170  1.3385
19072TIP3    H278708   1.309   1.025  11.735 -0.1246  3.4997 -1.7907
19073TIP3   OH278709   6.713   1.860   2.123 -0.1067  0.3917  0.1504
19073TIP3    H178710   6.769   1.928   2.161  1.7167 -0.6151 -0.6367
19073TIP3    H278711   6.729   1.865   2.029 -2.2122  0.7780 -0.2598
19074TIP3   OH278712   1.941   0.782  14.464 -0.7943  0.4193  0.1789
19074TIP3    H178713   1.936   0.875  14.443 -1.8213 -0.0383 -1.7630
19074TIP3    H278714   1.961   0.739  14.381 -0.9980 -1.1596  0.9103
19075TIP3   OH278715   6.650   2.546  12.724  0.7049 -0.4429  0.6488
19075TIP3    H178716   6.704   2.569  12.799  1.2484 -1.8764  0.7251
19075TIP3    H278717   6.692   2.590  12.650  0.6112  0.3457  1.0529
19076TIP3   OH278718   2.160   4.846   5.369 -0.4661 -0.0124  0.4003
19076TIP3    H178719   2.228   4.805   5.423 -1.5796  1.0636  2.7518
19076TIP3    H278720   2.092   4.779   5.362 -0.1026 -0.3356 -0.1598
19077TIP3   OH278721   2.909   3.140   6.870 -0.9509 -0.3676  0.3176
19077TIP3    H178722   2.930   3.113   6.959  0.2004 -0.9126 -0.1080
19077TIP3    H278723   2.863   3.065   6.832  0.3454 -0.9390 -0.1753
19078TIP3   OH278724   3.147   6.588   2.651 -0.2052  0.6588  0.0158
19078TIP3    H178725   3.057   6.575   2.621 -0.2581  1.6248 -0.3048
19078TIP3    H278726   3.141   6.656   2.718 -0.0635 -1.3929  2.2237
19079TIP3   OH278727   2.892   0.151   4.478  0.5697 -0.1649  0.0827
19079TIP3    H178728   2.881   0.243   4.455  0.1885 -0.1094  0.4938
19079TIP3    H278729   2.819   0.107   4.435  0.5652 -0.2341  0.1620
19080TIP3   OH278730   4.983   3.012  12.651 -0.4705  0.9063 -0.2599
19080TIP3    H178731   5.028   2.927  12.659 -1.5209  0.5091  2.4920
19080TIP3    H278732   4.928   3.017  12.729 -1.4297  3.5867 -1.0179
19081TIP3   OH278733   1.634   2.011   3.953  0.3930 -0.2748  0.5136
19081TIP3    H178734   1.652   1.957   3.876  0.7346 -2.1432  1.8429
19081TIP3    H278735   1.659   1.957   4.027 -0.9047  1.0614  2.0190
19082TIP3   OH278736   0.484   6.037   2.785 -0.0130  0.1240  0.1564
19082TIP3    H178737   0.514   6.126   2.805  0.2868 -0.3872  2.2030
19082TIP3    H278738   0.513   6.022   2.695  1.3732  1.5281  0.3155
19083TIP3   OH278739   4.167   2.865   2.556 -0.8442 -0.3010 -0.1226
19083TIP3    H178740   4.097   2.921   2.522  0.6076  0.6848 -1.6310
19083TIP3    H278741   4.182   2.801   2.487  1.1098  0.7864 -0.7680
19084TIP3   OH278742   3.872   0.760   1.048 -0.0868 -0.6300  0.1397
19084TIP3    H178743   3.947   0.818   1.039 -1.3633  1.2274  0.8613
19084TIP3    H278744   3.908   0.680   1.085  1.6124  0.0015 -0.0654
19085TIP3   OH278745   4.962   4.418   4.816 -0.4130  0.2046 -0.6237
19085TIP3    H178746   4.905   4.485   4.855 -2.3410 -1.4090 -0.4897
19085TIP3    H278747   4.960   4.346   4.878  2.5622  0.3840 -0.2077
19086TIP3   OH278748   1.097   2.790   5.264 -0.1801  0.3968  0.0916
19086TIP3    H178749   1.113   2.811   5.356  2.9290 -1.1578  0.0283
19086TIP3    H278750   1.075   2.874   5.224 -0.3447  1.3197  2.0166
19087TIP3   OH278751   1.346   6.720  13.718 -0.0847  0.1189 -0.1561
19087TIP3    H178752   1.348   6.662  13.794  0.6273  0.7015  0.2698
19087TIP3    H278753   1.254   6.747  13.712 -0.1645 -0.0057  0.4337
19088TIP3   OH278754   1.679   3.447   0.387 -0.2346  0.2180 -0.4104
19088TIP3    H178755   1.772   3.424   0.392  0.4044  2.5716  0.0054
19088TIP3    H278756   1.667   3.513   0.455 -1.8596  1.0383 -1.4249
19089TIP3   OH278757   1.822   6.382   3.792 -0.0524  0.0721 -0.7452
19089TIP3    H178758   1.833   6.452   3.727 -0.4503  1.4839  0.6554
19089TIP3    H278759   1.912   6.358   3.816  0.1344  1.7563  0.4281
19090TIP3   OH278760   6.070   1.629  13.041 -0.1308 -0.5408 -0.2246
19090TIP3    H178761   5.987   1.663  13.009  0.6132  1.2623 -0.3541
19090TIP3    H278762   6.057   1.618  13.135 -0.2433  0.7025 -0.0739
19091TIP3   OH278763   4.696   1.057  10.907 -0.2157 -0.1460  0.2420
19091TIP3    H178764   4.727   0.967  10.913 -1.3336 -0.5519  0.1142
19091TIP3    H278765   4.677   1.070  10.814 -0.8955 -0.0740  0.3868
19092TIP3   OH278766   4.530   0.012   1.536 -0.0811  0.5878 -0.0345
19092TIP3    H178767   4.613  -0.003   1.581  0.6992  1.7979 -0.9795
19092TIP3    H278768   4.511  -0.071   1.492 -0.0013 -0.0783  1.1651
19093TIP3   OH278769   6.741   4.589  10.965 -0.1524 -0.8121  0.2768
19093TIP3    H178770   6.794   4.619  10.891 -0.5161 -0.0546  0.3129
19093TIP3    H278771   6.804   4.570  11.034  0.0748  0.4265  0.4417
19094TIP3   OH278772   5.726   4.744   0.400 -0.5504  0.5089 -0.3123
19094TIP3    H178773   5.747   4.777   0.313  0.1134  2.0260  0.3959
19094TIP3    H278774   5.638   4.707   0.391 -0.3933  0.4193 -1.6732
19095TIP3   OH278775   0.095   0.384  16.130 -0.8086 -0.0480 -0.3018
19095TIP3    H178776   0.058   0.351  16.212  0.3480 -0.2301  0.1729
19095TIP3    H278777   0.190   0.371  16.140 -0.3656  2.5867 -0.4566
19096TIP3   OH278778   6.561   4.785  16.269  0.2190  0.3743  0.6689
19096TIP3    H178779   6.485   4.790  16.212  0.9052  1.5293 -0.1801
19096TIP3    H278780   6.528   4.749  16.351 -1.3494  1.4696  0.5345
19097TIP3   OH278781   4.188   6.216  14.393  0.5435 -0.3541  0.3250
19097TIP3    H178782   4.188   6.284  14.460  0.7695  1.1373 -1.1327
19097TIP3    H278783   4.118   6.156  14.419  0.6801  0.1448  1.9110
19098TIP3   OH278784   2.795   4.996   2.338 -0.2679  0.5176  0.0123
19098TIP3    H178785   2.865   5.033   2.283 -0.3822  1.3492  0.4103
19098TIP3    H278786   2.830   4.911   2.367  0.2920  0.6143 -0.3563
19099TIP3   OH278787   3.025   0.799  12.988  0.1209 -0.3211 -0.0083
19099TIP3    H178788   2.983   0.733  12.933  2.3633 -1.1805 -0.8132
19099TIP3    H278789   2.954   0.835  13.041 -1.6096 -1.5628 -1.3640
19100TIP3   OH278790   2.981   5.605  11.982  0.0286 -0.7311  0.2278
19100TIP3    H178791   3.050   5.565  11.928 -1.0796 -0.9666 -1.0681
19100TIP3    H278792   2.910   5.541  11.980 -0.8449  0.2234  0.1830
19101TIP3   OH278793   1.782   0.172  14.509  0.5374  0.1963 -0.5490
19101TIP3    H178794   1.815   0.245  14.562 -2.3222  1.2887 -0.1400
19101TIP3    H278795   1.753   0.212  14.428  0.4656 -0.7552 -1.0113
19102TIP3   OH278796   5.649   0.358  16.602 -0.2891  0.1063 -0.1265
19102TIP3    H178797   5.574   0.330  16.550  0.1322  0.8445 -1.1510
19102TIP3    H278798   5.637   0.313  16.686  0.1059 -2.8159 -1.4937
19103TIP3   OH278799   1.996   5.631  14.866 -0.1052 -0.0398  0.5294
19103TIP3    H178800   2.073   5.576  14.854  1.5352  1.9152  1.6873
19103TIP3    H278801   1.960   5.604  14.951 -1.6826 -1.9804 -0.6497
19104TIP3   OH278802   2.829   4.453   1.171  0.3875 -0.1710  0.2937
19104TIP3    H178803   2.827   4.511   1.247 -0.8893 -0.4598  0.5001
19104TIP3    H278804   2.745   4.467   1.128  1.3991  0.6003 -1.5607
19105TIP3   OH278805   1.885   2.038  13.018 -0.1683 -0.3650 -0.1016
19105TIP3    H178806   1.876   1.957  13.069  1.1031  0.1903  1.0787
19105TIP3    H278807   1.904   2.105  13.084 -1.2215  0.9146 -1.0578
19106TIP3   OH278808   6.379   0.842  12.827  0.4705  0.4220  0.3858
19106TIP3    H178809   6.395   0.927  12.868 -2.7601  1.0083  0.6650
19106TIP3    H278810   6.398   0.856  12.735 -0.4440  1.6276  0.3529
19107TIP3   OH278811   1.073   3.484  15.177 -0.7410  0.1973 -0.2222
19107TIP3    H178812   1.070   3.560  15.119  0.9405  0.9197  0.5616
19107TIP3    H278813   1.091   3.410  15.119 -0.6625  0.6699 -0.8133
19108TIP3   OH278814   2.773   3.504   1.849  0.2387  0.3020 -0.5293
19108TIP3    H178815   2.750   3.458   1.768 -1.8654  0.8819 -0.3240
19108TIP3    H278816   2.844   3.563   1.823 -0.9050  1.0342 -2.1808
19109TIP3   OH278817   1.906   5.880   0.084 -0.0011  0.5615  0.2473
19109TIP3    H178818   1.970   5.890   0.014 -3.1807 -0.0035 -3.0090
19109TIP3    H278819   1.930   5.948   0.148  3.0851  1.0693 -1.2623
19110TIP3   OH278820   3.006   2.398   3.948 -0.1959 -0.0920 -0.0462
19110TIP3    H178821   3.075   2.436   3.893 -1.2623 -1.6933 -2.6687
19110TIP3    H278822   2.965   2.332   3.893 -3.8648  0.7561  1.3806
19111TIP3   OH278823   1.780   4.135  15.160 -0.0931 -0.2567 -0.1733
19111TIP3    H178824   1.696   4.104  15.194 -1.3599  2.6038 -0.4507
19111TIP3    H278825   1.834   4.146  15.239 -0.7903  0.1567  0.2548
19112TIP3   OH278826   3.822   5.755  15.620  0.3177  0.2927  0.7125
19112TIP3    H178827   3.871   5.794  15.548  1.5214  1.2157  1.9714
19112TIP3    H278828   3.840   5.661  15.614 -0.5080  0.2121 -0.8257
19113TIP3   OH278829   4.082   3.805   3.098 -0.2790  0.3025 -0.3176
19113TIP3    H178830   4.042   3.855   3.169 -0.6348 -0.3807 -0.0266
19113TIP3    H278831   4.144   3.866   3.057  0.2584  0.5730  0.8597
19114TIP3   OH278832   5.078   1.872   1.696 -0.0696 -0.0342  0.4436
19114TIP3    H178833   5.146   1.842   1.757  0.9996  0.1456 -0.6350
19114TIP3    H278834   5.076   1.967   1.706 -0.5447 -0.0778  0.8420
19115TIP3   OH278835   4.543   3.342  13.841 -0.1117 -0.0303  0.2065
19115TIP3    H178836   4.558   3.278  13.772  2.1282  2.0202 -1.3885
19115TIP3    H278837   4.625   3.345  13.890 -0.4679  0.9622  0.7954
19116TIP3   OH278838   2.461   0.981  11.640  0.6654 -0.0456 -0.4396
19116TIP3    H178839   2.501   0.910  11.589  0.4323  0.6486 -1.6323
19116TIP3    H278840   2.377   0.998  11.596  1.1501  1.6210 -0.8095
19117TIP3   OH278841   6.548   0.052  15.448  0.0442 -0.2367  0.1003
19117TIP3    H178842   6.607  -0.007  15.495 -0.3880 -0.0981  0.8238
19117TIP3    H278843   6.589   0.138  15.454 -0.5571 -0.0152  1.1872
19118TIP3   OH278844   0.792   4.900   0.078 -0.4294  0.3182  0.7179
19118TIP3    H178845   0.812   4.850   0.158  0.7119  0.0633  0.2963
19118TIP3    H278846   0.875   4.902   0.030 -0.3549  2.8963  0.8409
19119TIP3   OH278847   5.361   3.151   0.900 -0.3416 -0.4035 -0.1532
19119TIP3    H178848   5.368   3.067   0.856 -0.8746 -0.7571  0.4148
19119TIP3    H278849   5.269   3.176   0.889 -0.3804 -0.2903  0.3811
19120TIP3   OH278850   4.882   2.548   4.561 -0.1723 -0.1952  0.0726
19120TIP3    H178851   4.790   2.560   4.584 -0.6228  0.0479 -1.7100
19120TIP3    H278852   4.918   2.637   4.561 -0.2907 -0.1453 -0.5875
19121TIP3   OH278853   5.171   0.195  11.644  0.3210 -0.3379 -0.5290
19121TIP3    H178854   5.188   0.122  11.585  0.5205 -0.2629 -0.5660
19121TIP3    H278855   5.258   0.230  11.664  0.3773 -1.1705  0.8539
19122TIP3   OH278856   5.645   5.311   4.784  0.6558  0.0390 -0.5485
19122TIP3    H178857   5.686   5.265   4.858 -0.6246 -0.7283 -0.2753
19122TIP3    H278858   5.685   5.398   4.785  1.7367 -0.4322  0.1276
19123TIP3   OH278859   5.165   6.381  15.758  0.4525  0.5254  0.1137
19123TIP3    H178860   5.252   6.347  15.739 -0.5089 -0.2905 -3.8270
19123TIP3    H278861   5.179   6.472  15.783  2.3895  0.9817 -2.3253
19124TIP3   OH278862   6.150   1.611  15.531 -0.2079 -0.2402 -0.5570
19124TIP3    H178863   6.152   1.705  15.511 -0.5361 -0.2593 -0.6729
19124TIP3    H278864   6.174   1.606  15.624 -0.2406 -0.0407 -0.5379
19125TIP3   OH278865   0.116   1.209  14.372  0.1763 -0.0684 -0.4234
19125TIP3    H178866   0.085   1.128  14.331  0.9076  0.3216 -1.8166
19125TIP3    H278867   0.063   1.278  14.332  0.3015  0.2395 -0.0585
19126TIP3   OH278868   6.134   6.030   3.334 -0.5514  0.1385 -0.0079
19126TIP3    H178869   6.069   5.981   3.285 -0.0650 -3.0000  2.2236
19126TIP3    H278870   6.210   6.034   3.276 -1.1126 -0.4156 -0.8043
19127TIP3   OH278871   4.088   3.950  15.938 -1.0055  0.4342 -0.7984
19127TIP3    H178872   4.167   3.986  15.898 -1.8088  1.2137 -1.7337
19127TIP3    H278873   4.037   4.026  15.966 -0.7604 -0.0720  1.2161
19128TIP3   OH278874   0.868   0.581  14.485  0.2972  0.1961 -0.6411
19128TIP3    H178875   0.920   0.589  14.405 -0.0684  1.1016 -0.8088
19128TIP3    H278876   0.863   0.671  14.518  0.5910 -0.1884  0.5035
19129TIP3   OH278877   1.124   6.424  12.000 -0.2764 -0.4087  0.0232
19129TIP3    H178878   1.156   6.357  11.940  0.4185 -1.3984  1.4464
19129TIP3    H278879   1.158   6.506  11.963 -2.2753 -0.5862 -2.5104
19130TIP3   OH278880   0.383   5.868   1.489  0.4081 -0.5497 -0.0666
19130TIP3    H178881   0.292   5.840   1.501  0.3692 -0.3070  0.1988
19130TIP3    H278882   0.406   5.911   1.571  1.2742 -2.0083  0.4954
19131TIP3   OH278883   1.165   2.820  13.158  0.4418 -0.6129 -0.3517
19131TIP3    H178884   1.093   2.884  13.160  1.1136  0.1518 -0.0517
19131TIP3    H278885   1.234   2.861  13.210  1.6801 -0.6455 -1.9202
19132TIP3   OH278886   5.832   5.915   5.537 -0.7011 -0.2439 -0.4322
19132TIP3    H178887   5.853   5.899   5.629 -2.1276  1.8308  0.3087
19132TIP3    H278888   5.901   5.975   5.507 -0.2165 -0.9463 -0.7568
19133TIP3   OH278889   4.564   0.363  13.782 -0.3495 -0.0746  0.1009
19133TIP3    H178890   4.501   0.433  13.798 -1.5604 -1.3219  1.0787
19133TIP3    H278891   4.618   0.396  13.711 -0.5222  2.0639  0.8716
19134TIP3   OH278892   2.875   3.117  16.160 -0.6918 -0.1373  0.0497
19134TIP3    H178893   2.862   3.069  16.078 -0.6277 -1.2388  0.6651
19134TIP3    H278894   2.968   3.106  16.180 -0.5316  0.8047 -0.1270
19135TIP3   OH278895   4.683   5.285   1.603 -0.1412  0.1486  0.0629
19135TIP3    H178896   4.687   5.378   1.623  1.7248  0.2079 -0.3758
19135TIP3    H278897   4.686   5.281   1.507  2.7595 -0.3696  0.0910
19136TIP3   OH278898   2.422   1.181  14.606 -0.4073 -0.1325  0.1209
19136TIP3    H178899   2.422   1.259  14.551 -0.1088 -0.0191  0.2751
19136TIP3    H278900   2.399   1.109  14.547  1.6953 -0.2891 -0.5895
19137TIP3   OH278901   0.435   0.538  10.531 -0.1626  0.3190 -0.1436
19137TIP3    H178902   0.511   0.506  10.580 -0.2853  0.7424  0.3316
19137TIP3    H278903   0.436   0.487  10.450 -2.5915 -3.8497  2.1254
19138TIP3   OH278904   0.587   2.074  16.031  0.1226 -0.7733 -0.0993
19138TIP3    H178905   0.673   2.067  15.989  0.0972 -0.1925 -0.2527
19138TIP3    H278906   0.605   2.065  16.124  0.3915 -0.3669 -0.1093
19139TIP3   OH278907   0.174   4.943  15.943  0.1897 -0.5172  0.9838
19139TIP3    H178908   0.253   4.892  15.922  0.8164  0.3852  1.0961
19139TIP3    H278909   0.161   4.998  15.865  0.5133  0.3599  1.5384
19140TIP3   OH278910   6.380   6.452   4.961  0.4310 -0.2512  0.2597
19140TIP3    H178911   6.327   6.483   4.887 -1.1744 -3.4703 -0.1063
19140TIP3    H278912   6.469   6.445   4.925 -0.3417 -1.9186 -1.5266
19141TIP3   OH278913   6.603   2.632  15.749 -0.4411 -0.8733 -0.0940
19141TIP3    H178914   6.599   2.715  15.798  2.5173 -0.7010  0.0599
19141TIP3    H278915   6.666   2.649  15.679 -0.0893 -2.8749 -0.3105
19142TIP3   OH278916   6.238   2.151  13.030 -0.0937 -0.0895  0.6583
19142TIP3    H178917   6.265   2.067  13.066 -0.5273 -0.7574 -0.5278
19142TIP3    H278918   6.143   2.146  13.024 -0.0054 -0.3915 -1.3857
19143TIP3   OH278919   2.900   1.917   2.798 -0.2774 -0.1926  0.4295
19143TIP3    H178920   2.958   1.914   2.874 -1.1174  0.8310  1.1396
19143TIP3    H278921   2.960   1.930   2.724  0.4814 -0.1705  1.0294
19144TIP3   OH278922   4.290   6.040  16.391 -0.0271 -0.5608  0.1491
19144TIP3    H178923   4.370   6.044  16.444  0.4287  3.1603 -0.5697
19144TIP3    H278924   4.315   6.076  16.307 -2.1475 -0.8168 -0.6500
19145TIP3   OH278925   5.770   2.857  13.428  0.6160 -0.0367 -0.3794
19145TIP3    H178926   5.827   2.813  13.364  2.6857  0.3486  1.0973
19145TIP3    H278927   5.817   2.936  13.451 -0.2441  0.0120  1.3563
19146TIP3   OH278928   2.736   4.017   4.285  0.3884  0.1208  0.0511
19146TIP3    H178929   2.812   3.966   4.311 -0.0163 -0.7026 -0.3316
19146TIP3    H278930   2.733   4.010   4.190 -2.1723 -2.9358  0.1944
19147TIP3   OH278931   2.299   4.919   2.903 -0.1973  0.5242  0.2474
19147TIP3    H178932   2.223   4.883   2.857 -2.3428  0.1854  3.6924
19147TIP3    H278933   2.267   5.001   2.941  2.3723  2.3509 -1.1941
19148TIP3   OH278934   5.066   1.792   2.910 -0.3766  0.4938 -0.5152
19148TIP3    H178935   4.994   1.742   2.871 -1.9269  1.3367  1.1240
19148TIP3    H278936   5.128   1.725   2.938 -0.9280 -0.3123 -1.1452
19149TIP3   OH278937   5.066   3.544   1.330 -0.0726 -0.3531 -0.0688
19149TIP3    H178938   5.058   3.463   1.279 -1.6589 -0.0780 -0.3129
19149TIP3    H278939   5.041   3.613   1.269  2.6787  0.5663 -0.3288
19150TIP3   OH278940   0.032   5.672  16.450 -0.1776  0.2044  0.3162
19150TIP3    H178941   0.070   5.699  16.366  0.3820  0.3621  0.6114
19150TIP3    H278942  -0.062   5.670  16.434  0.0389 -3.3113 -1.3664
19151TIP3   OH278943   0.463   4.478  16.750  0.6306  0.1052  0.3103
19151TIP3    H178944   0.376   4.510  16.723 -0.2483 -0.5959  2.1833
19151TIP3    H278945   0.522   4.551  16.730 -0.4636  0.8187 -0.4540
19152TIP3   OH278946   2.576   2.239  13.917 -0.1147 -0.6729 -0.1545
19152TIP3    H178947   2.533   2.181  13.854 -0.2943  0.1980 -0.8691
19152TIP3    H278948   2.507   2.263  13.979 -1.0161  1.4790 -1.8403
19153TIP3   OH278949   3.996   1.277  14.935  0.3648  0.6392  0.1316
19153TIP3    H178950   4.029   1.357  14.976  1.8080 -0.5041  1.3393
19153TIP3    H278951   4.031   1.206  14.989  0.0690 -0.8686 -1.5492
19154TIP3   OH278952   3.698   2.416   3.664  0.1971 -0.4258  0.1566
19154TIP3    H178953   3.710   2.509   3.685  1.5869 -0.0347 -2.0351
19154TIP3    H278954   3.781   2.375   3.690  1.5456 -0.1119 -3.1431
19155TIP3   OH278955   6.049   2.327   3.382  0.6543  0.7582  0.1755
19155TIP3    H178956   6.023   2.263   3.316  0.7133  0.2903  0.6029
19155TIP3    H278957   5.967   2.354   3.424  0.7568 -0.1016  0.9595
19156TIP3   OH278958   5.585   0.817  14.491  0.5119  0.1913 -0.1872
19156TIP3    H178959   5.669   0.835  14.449 -0.3336 -0.6649 -2.4007
19156TIP3    H278960   5.588   0.724  14.513 -0.2593 -0.1259 -1.3426
19157TIP3   OH278961   2.260   4.787  15.761  0.0554  0.6141 -0.4851
19157TIP3    H178962   2.313   4.726  15.710  1.0749  2.5310 -1.8660
19157TIP3    H278963   2.185   4.736  15.790  0.9592 -1.3154 -1.3834
19158TIP3   OH278964   5.448   1.099  11.499 -0.0495  0.0017 -0.3390
19158TIP3    H178965   5.486   1.187  11.504  1.5582 -0.7330  1.2997
19158TIP3    H278966   5.409   1.095  11.411  0.0092  2.2631 -0.5300
19159TIP3   OH278967   4.010   4.374   3.543 -0.1211 -0.6947 -0.1534
19159TIP3    H178968   4.098   4.341   3.527  0.4290  0.7785 -0.3526
19159TIP3    H278969   4.013   4.408   3.632  0.8443  3.1087 -1.4479
19160TIP3   OH278970   3.387   6.265  15.355  0.1220  0.0548  0.5811
19160TIP3    H178971   3.330   6.340  15.338 -2.1041 -1.8690 -1.0979
19160TIP3    H278972   3.336   6.208  15.412  0.5547 -1.4725 -0.5054
19161TIP3   OH278973   4.731   6.023   2.424 -1.0447  0.3476 -0.0844
19161TIP3    H178974   4.789   6.045   2.497  0.3496 -0.6718 -0.8265
19161TIP3    H278975   4.700   5.935   2.445 -0.4722 -0.0332 -0.8000
19162TIP3   OH278976   4.832   6.491   0.867  0.2043  0.3595  0.2479
19162TIP3    H178977   4.803   6.449   0.948 -0.1133 -0.3259 -0.2119
19162TIP3    H278978   4.813   6.427   0.799  0.0497  1.1124 -0.4276
19163TIP3   OH278979   2.585   2.418   0.321  0.1708 -0.5246 -0.0294
19163TIP3    H178980   2.618   2.331   0.301 -1.6212 -1.0714 -0.8845
19163TIP3    H278981   2.533   2.406   0.401  0.5245 -0.0646  0.2770
19164TIP3   OH278982   3.604   6.600   5.084  0.5674  0.0038 -0.3993
19164TIP3    H178983   3.559   6.517   5.063  0.3920  0.8140 -3.7945
19164TIP3    H278984   3.682   6.600   5.028  1.1848  1.6573  0.3928
19165TIP3   OH278985   0.711   3.823   5.468  0.0424  0.3815 -0.5466
19165TIP3    H178986   0.709   3.785   5.381 -0.6115 -0.5277 -0.1520
19165TIP3    H278987   0.745   3.753   5.524  1.1084  1.1773 -0.1742
19166TIP3   OH278988   0.924   5.743  16.923  0.4083 -0.1996 -1.3864
19166TIP3    H178989   0.890   5.832  16.938  0.0808 -0.6732  1.1908
19166TIP3    H278990   0.846   5.687  16.930  1.0238 -0.9144 -0.0874
19167TIP3   OH278991   0.742   6.545   2.268  0.1945  0.4201 -0.5767
19167TIP3    H178992   0.776   6.498   2.344  0.9829 -0.0476 -1.1940
19167TIP3    H278993   0.752   6.483   2.195  1.4440  1.5892 -1.4518
19168TIP3   OH278994   4.346   0.509  15.233 -0.2057  0.1623  0.3650
19168TIP3    H178995   4.341   0.562  15.313  0.9788  0.0627  0.5219
19168TIP3    H278996   4.334   0.572  15.162  2.9845  1.0528  0.4644
19169TIP3   OH278997   2.513   5.844   3.036  0.9509  0.0692  0.3086
19169TIP3    H178998   2.560   5.924   3.057  1.4086 -0.5293  1.6784
19169TIP3    H278999   2.574   5.773   3.060 -0.2452 -0.7027  1.2093
19170TIP3   OH279000   2.196   2.829   3.878  0.2236  0.3833  0.0743
19170TIP3    H179001   2.230   2.744   3.850 -0.2868  0.0182  0.5281
19170TIP3    H279002   2.196   2.824   3.973  3.2780  2.1451  0.2606
19171TIP3   OH279003   2.851   3.863  11.542 -0.1286 -0.1953 -0.1554
19171TIP3    H179004   2.930   3.879  11.491 -0.8761 -0.1100 -1.3207
19171TIP3    H279005   2.792   3.817  11.482 -1.6615  1.3542  0.0657
19172TIP3   OH279006   6.216   5.942  14.368  0.2109 -0.2793  0.7442
19172TIP3    H179007   6.234   6.017  14.311  1.1554 -1.5432 -0.6921
19172TIP3    H279008   6.137   5.968  14.416 -0.3607  1.0442 -0.7871
19173TIP3   OH279009   1.320   1.414  16.768  0.2625  1.0360 -0.9085
19173TIP3    H179010   1.388   1.463  16.814 -0.6037 -0.2922  2.0070
19173TIP3    H279011   1.246   1.474  16.764  0.3823  1.2055 -0.6513
19174TIP3   OH279012   6.493   1.036   3.715  0.7846  0.2122 -0.8437
19174TIP3    H179013   6.421   0.975   3.734 -0.3589  1.0384 -2.3064
19174TIP3    H279014   6.533   1.052   3.801 -0.6415 -0.4250 -0.0056
19175TIP3   OH279015   1.228   4.410  11.044  0.9782  0.0588 -1.1286
19175TIP3    H179016   1.206   4.417  10.951  0.0920 -0.8395 -1.0145
19175TIP3    H279017   1.240   4.316  11.058  0.2382  0.0952 -0.1580
19176TIP3   OH279018   3.286   2.777   2.383  0.8593  0.1299 -0.1074
19176TIP3    H179019   3.196   2.763   2.355  0.9204 -1.5463  0.4409
19176TIP3    H279020   3.289   2.741   2.472  2.3487 -0.9149 -0.5511
19177TIP3   OH279021   1.109   3.442  11.270  0.3328  0.2770 -0.4207
19177TIP3    H179022   1.045   3.409  11.334 -0.7922  1.1618 -1.0406
19177TIP3    H279023   1.098   3.383  11.195  0.6375  0.0997 -0.3261
19178TIP3   OH279024   1.457   6.697   2.681  0.6856  0.3378 -0.1584
19178TIP3    H179025   1.545   6.709   2.646 -0.0808  2.5420 -1.5284
19178TIP3    H279026   1.465   6.719   2.773  1.8032 -0.8551  0.0679
19179TIP3   OH279027   3.063   5.394   0.046 -0.7009  0.5550  0.0886
19179TIP3    H179028   3.110   5.468   0.084  0.5207  0.5003 -1.2243
19179TIP3    H279029   3.087   5.396  -0.047 -2.7010  0.0417 -0.4963
19180TIP3   OH279030   2.909   2.876   5.560  0.3244 -0.3494  0.3759
19180TIP3    H179031   2.978   2.934   5.528 -2.0511  3.3129  1.2009
19180TIP3    H279032   2.846   2.872   5.488 -1.4072  1.6105  1.6410
19181TIP3   OH279033   1.014   1.378  15.659 -0.5952 -0.2131 -0.0252
19181TIP3    H179034   1.065   1.322  15.600  1.2613  1.3569 -0.0072
19181TIP3    H279035   0.924   1.372  15.627 -0.0657 -1.4310 -1.3721
19182TIP3   OH279036   3.849   5.000  11.738 -0.2590 -0.2314 -0.0989
19182TIP3    H179037   3.898   5.077  11.710  1.1293 -0.5778  1.2568
19182TIP3    H279038   3.903   4.960  11.807 -2.2242 -0.9010  1.1482
19183TIP3   OH279039   4.477   1.014  15.067 -0.1148  0.1169  0.0722
19183TIP3    H179040   4.523   1.098  15.064  0.8121 -0.3883 -0.3205
19183TIP3    H279041   4.415   1.018  14.994  0.1772  0.3170 -0.1675
19184TIP3   OH279042   4.431   4.565  12.461  0.0267  0.0564  0.9233
19184TIP3    H179043   4.356   4.565  12.521 -0.2252 -0.9069  0.6270
19184TIP3    H279044   4.499   4.614  12.508 -0.8748  1.2262  1.0577
19185TIP3   OH279045   3.632   4.011   0.578 -0.0722  0.0970 -0.4045
19185TIP3    H179046   3.669   4.058   0.653  0.3403 -0.9463  0.0590
19185TIP3    H279047   3.554   4.062   0.555  1.0368  1.7354 -0.7466
19186TIP3   OH279048   4.543   2.272  14.904 -0.3265  0.2010  0.1616
19186TIP3    H179049   4.593   2.332  14.850  0.7464 -0.4808  0.3736
19186TIP3    H279050   4.477   2.327  14.946 -1.0368  0.7811 -1.6326
19187TIP3   OH279051   6.383   5.346  15.958  0.0673  0.2056  0.1324
19187TIP3    H179052   6.453   5.362  15.895  1.0371 -1.7702  0.6556
19187TIP3    H279053   6.363   5.433  15.993 -0.5083  1.4040 -2.8031
19188TIP3   OH279054   3.284   6.454  14.917 -0.5725 -0.2305  0.2741
19188TIP3    H179055   3.360   6.428  14.969 -0.8802 -0.4331  0.6264
19188TIP3    H279056   3.270   6.546  14.938  1.3887  0.7075 -2.0404
19189TIP3   OH279057   4.019   5.164  14.957  0.1970 -0.2040  0.3288
19189TIP3    H179058   4.057   5.249  14.936  1.2463 -0.8932 -0.6727
19189TIP3    H279059   3.925   5.180  14.961  0.2070  0.6403 -1.8059
19190TIP3   OH279060   0.179   0.342  15.711  0.2715  0.5623  0.5085
19190TIP3    H179061   0.226   0.291  15.776  0.2485  2.4340  2.1029
19190TIP3    H279062   0.088   0.343  15.741  0.1930  1.1567  0.2835
19191TIP3   OH279063   5.902   0.447   3.861  0.2638 -0.6652 -0.2474
19191TIP3    H179064   5.969   0.515   3.852  0.7080 -1.0598 -0.0060
19191TIP3    H279065   5.856   0.447   3.777  1.5003 -1.3495 -0.9606
19192TIP3   OH279066   5.380   5.476   1.954  0.4511  0.3329  0.0378
19192TIP3    H179067   5.332   5.536   2.012 -0.1060  1.1611 -1.2215
19192TIP3    H279068   5.471   5.503   1.961  0.1950  1.4341 -0.5793
19193TIP3   OH279069   1.436   1.386  13.698  0.3858  0.6790 -0.7314
19193TIP3    H179070   1.363   1.436  13.660 -0.4663 -0.1242 -0.1732
19193TIP3    H279071   1.490   1.363  13.623 -0.0053  1.1591 -1.1715
19194TIP3   OH279072   3.685   0.183   2.383 -0.0815 -0.0891  0.0483
19194TIP3    H179073   3.677   0.120   2.454 -0.7026 -0.3815 -0.2755
19194TIP3    H279074   3.629   0.257   2.410 -0.1081 -0.0866 -0.0125
19195TIP3   OH279075   4.652   2.316  16.063  0.2414 -0.4517 -0.1886
19195TIP3    H179076   4.710   2.243  16.039  0.2745 -0.9772  1.3553
19195TIP3    H279077   4.565   2.277  16.065  0.1162 -0.1799 -0.4605
19196TIP3   OH279078   6.106   0.723   1.826  0.3172  0.0608 -0.6518
19196TIP3    H179079   6.193   0.763   1.829 -0.0373  0.8455 -0.4690
19196TIP3    H279080   6.052   0.788   1.780  0.1198 -1.0051 -2.0025
19197TIP3   OH279081   3.970   5.726  13.831 -0.2272  0.1596  0.3500
19197TIP3    H179082   4.016   5.808  13.844 -0.4761  0.6286 -1.4771
19197TIP3    H279083   3.926   5.736  13.747  0.0545 -1.9880 -0.1086
19198TIP3   OH279084   3.670   4.594   4.699  0.4209 -0.1661  0.0637
19198TIP3    H179085   3.697   4.568   4.787 -0.0422 -0.6948  0.0561
19198TIP3    H279086   3.630   4.516   4.662 -0.7511  0.4720 -0.0691
19199TIP3   OH279087   1.957   3.225  10.871 -0.5236 -0.5326  0.9158
19199TIP3    H179088   1.871   3.242  10.834 -0.3932 -0.8532  0.4657
19199TIP3    H279089   2.011   3.298  10.842 -0.5039 -0.6187  0.7328
19200TIP3   OH279090   3.037   4.743   0.786  0.0551  0.0287 -0.0526
19200TIP3    H179091   2.959   4.688   0.773 -0.7796  1.5379 -2.2142
19200TIP3    H279092   3.110   4.688   0.760 -0.6606 -0.4119 -1.2177
19201TIP3   OH279093   3.820   0.485  13.030 -0.0708  0.1408 -0.0173
19201TIP3    H179094   3.743   0.537  13.006  0.2973  0.2708 -0.9665
19201TIP3    H279095   3.870   0.541  13.088 -0.8763 -0.0897  0.9247
19202TIP3   OH279096   6.271   5.532  15.226 -0.1295 -0.3580 -0.4614
19202TIP3    H179097   6.236   5.521  15.314  0.1258  0.1007 -0.2979
19202TIP3    H279098   6.364   5.552  15.239  0.1506 -1.3049 -0.8756
19203TIP3   OH279099   5.949   5.421   1.282  0.1680  0.0261  0.1383
19203TIP3    H179100   6.006   5.497   1.273  0.8279 -0.5505 -0.6093
19203TIP3    H279101   5.989   5.353   1.228 -1.2133 -0.4027 -0.4047
19204TIP3   OH279102   6.116   6.294   0.889  0.2493 -0.0883  0.0724
19204TIP3    H179103   6.052   6.283   0.960  0.8027 -0.0266  0.5909
19204TIP3    H279104   6.074   6.256   0.813  0.2445 -1.5735  0.7812
19205TIP3   OH279105   3.153   4.260   0.522 -0.8192 -0.2856 -0.3892
19205TIP3    H179106   3.126   4.184   0.471 -0.3305 -0.7497  0.0314
19205TIP3    H279107   3.081   4.275   0.583 -0.6642 -0.7761 -0.0793
19206TIP3   OH279108   5.625   5.557  14.528 -0.8528 -0.2344 -0.3726
19206TIP3    H179109   5.582   5.633  14.487 -0.6855 -0.8478 -1.7685
19206TIP3    H279110   5.571   5.537  14.605 -0.8153  1.3638  0.0878
19207TIP3   OH279111   2.149   3.926  12.444  0.4583 -0.0258  0.3961
19207TIP3    H179112   2.201   3.980  12.385  1.6063 -0.5027  0.9367
19207TIP3    H279113   2.174   3.955  12.531 -0.2666 -0.1975  0.6672
19208TIP3   OH279114   5.043   2.091   4.275 -0.3983 -0.6939  0.6821
19208TIP3    H179115   5.055   2.146   4.352  1.0569  0.7155 -0.4695
19208TIP3    H279116   5.113   2.026   4.281  0.3427  0.0217  0.1012
19209TIP3   OH279117   6.833   6.130  16.147  0.0066 -0.4174 -0.6109
19209TIP3    H179118   6.839   6.225  16.156  0.2681 -0.5242  0.5401
19209TIP3    H279119   6.744   6.114  16.117  0.1037  0.2127 -1.2701
19210TIP3   OH279120   1.244   5.679   0.365 -0.0611  0.0068  0.3197
19210TIP3    H179121   1.149   5.682   0.369 -0.0236  1.1255  0.7985
19210TIP3    H279122   1.264   5.615   0.297 -1.1510 -0.1876  0.1735
19211TIP3   OH279123   3.988   3.816   6.391  0.1376 -0.2679  0.6196
19211TIP3    H179124   3.970   3.880   6.460  0.0119 -0.4697  0.7740
19211TIP3    H279125   3.905   3.809   6.343 -0.6959 -2.2902  2.2186
19212TIP3   OH279126   0.443   1.642  15.568 -0.7736 -0.0815  0.1150
19212TIP3    H179127   0.466   1.623  15.658 -0.7092  0.3276  0.1853
19212TIP3    H279128   0.523   1.676  15.528 -0.9758  0.3676  0.0845
19213TIP3   OH279129   1.513   0.161  13.750 -0.2093 -0.2449  0.4187
19213TIP3    H179130   1.582   0.205  13.701 -0.3613  0.9882  1.2758
19213TIP3    H279131   1.463   0.113  13.683  0.2570  0.4949 -0.4780
19214TIP3   OH279132   4.315   5.678   0.516  0.2324 -0.2562 -0.1175
19214TIP3    H179133   4.227   5.677   0.552 -0.4152  0.0066 -1.6188
19214TIP3    H279134   4.325   5.766   0.479  1.1480 -0.2578  0.0917
19215TIP3   OH279135   2.051   5.397  14.184 -0.4330  0.7922 -0.0754
19215TIP3    H179136   2.035   5.379  14.277  0.0460  0.9139  0.0378
19215TIP3    H279137   2.018   5.486  14.171 -0.9919  0.5748 -0.1531
19216TIP3   OH279138   2.200   0.559   3.775 -0.5006 -0.0125  0.6177
19216TIP3    H179139   2.291   0.533   3.787 -0.0579  1.2979  0.3331
19216TIP3    H279140   2.150   0.477   3.779  0.6282 -0.6920  1.2882
19217TIP3   OH279141   3.118   0.702   0.840  0.5561 -0.7007  0.6111
19217TIP3    H179142   3.172   0.781   0.847 -0.4438  0.4036 -2.4512
19217TIP3    H279143   3.029   0.735   0.831  0.1247 -2.1454 -0.8728
19218TIP3   OH279144   0.410   1.081   0.680 -0.1451  0.2628  0.6625
19218TIP3    H179145   0.443   1.134   0.753 -1.2387  0.9018  0.7073
19218TIP3    H279146   0.323   1.116   0.662  0.0494  0.0177 -0.8664
19219TIP3   OH279147   2.160   5.583   5.357 -0.0117 -0.5565 -0.5528
19219TIP3    H179148   2.076   5.606   5.398 -0.3198 -0.9915 -0.9165
19219TIP3    H279149   2.168   5.489   5.373  0.8820 -0.3476  0.3143
19220TIP3   OH279150   3.425   6.602  13.959  0.3658  0.0386 -0.3111
19220TIP3    H179151   3.354   6.664  13.976  1.4084  1.2109 -0.0672
19220TIP3    H279152   3.386   6.537  13.901 -0.9548  0.5543 -0.0523
19221TIP3   OH279153   1.278   1.138  16.767 -0.1679  0.2219  0.4760
19221TIP3    H179154   1.282   1.127  16.672  0.0168  1.4774  0.3341
19221TIP3    H279155   1.290   1.231  16.782 -2.1575  0.3552  1.6227
19222TIP3   OH279156   1.553   5.308   2.224  0.1581 -0.4754  0.0462
19222TIP3    H179157   1.520   5.218   2.227 -0.7188 -0.2018 -0.8206
19222TIP3    H279158   1.478   5.362   2.250  0.3389  0.0720 -0.5482
19223TIP3   OH279159   1.582   4.004  11.909  0.2098  0.0321  0.4319
19223TIP3    H179160   1.606   4.004  12.002 -1.9099 -0.0070  1.0226
19223TIP3    H279161   1.489   4.027  11.908  0.3534  0.7182 -1.7467
19224TIP3   OH279162   1.463   4.883  12.790 -0.3714  0.0206  0.2396
19224TIP3    H179163   1.472   4.803  12.841  0.5310  0.8602  1.4619
19224TIP3    H279164   1.547   4.929  12.802 -0.7714  1.0261 -0.6349
19225TIP3   OH279165   5.824   0.342   0.547 -0.2280  0.0624  0.0592
19225TIP3    H179166   5.827   0.325   0.453  0.4076 -0.3820  0.1528
19225TIP3    H279167   5.816   0.255   0.586 -1.8207  0.3325  0.3734
19226TIP3   OH279168   3.758   1.929   5.553 -0.1293  0.6140 -0.3573
19226TIP3    H179169   3.674   1.887   5.571  0.3613 -0.1058  0.3331
19226TIP3    H279170   3.819   1.888   5.615  0.7806  0.9479 -1.0093
19227TIP3   OH279171   1.212   0.701  15.435  0.1024 -0.4420  0.5773
19227TIP3    H179172   1.171   0.661  15.358  1.8712 -0.3844 -0.4551
19227TIP3    H279173   1.267   0.631  15.471  1.8876  0.4737 -0.2294
19228TIP3   OH279174   6.831   6.814   4.227 -0.3829  0.2065 -0.6078
19228TIP3    H179175   6.769   6.855   4.288  0.4633  0.8462 -0.1412
19228TIP3    H279176   6.823   6.720   4.243 -0.4361  0.3471  0.2444
19229TIP3   OH279177   4.014   3.370   1.777 -0.7846  0.6132  0.2579
19229TIP3    H179178   3.926   3.340   1.753 -1.7977  1.6513  2.4426
19229TIP3    H279179   4.054   3.294   1.819 -1.6299  0.8835  1.6055
19230TIP3   OH279180   0.851   4.119   5.016 -0.0421  0.2043  0.4631
19230TIP3    H179181   0.779   4.081   5.067  0.2221  2.1668  2.4712
19230TIP3    H279182   0.928   4.072   5.047 -0.2421 -0.8809 -0.6119
19231TIP3   OH279183   0.926   6.554  14.014 -0.1351 -0.4042  0.7561
19231TIP3    H179184   0.876   6.576  13.935  1.0971 -0.1921  0.0029
19231TIP3    H279185   0.908   6.462  14.030 -0.2965 -0.4829  0.1414
19232TIP3   OH279186   3.417   4.198  11.306 -0.4179  0.5122  0.1125
19232TIP3    H179187   3.413   4.129  11.371 -0.6449 -1.0126 -1.4422
19232TIP3    H279188   3.332   4.241  11.310 -0.9039 -0.4199 -0.0556
19233TIP3   OH279189   3.000   2.461   5.278  0.0301 -1.0984  0.0835
19233TIP3    H179190   2.979   2.531   5.216 -3.2299 -2.7842 -0.9612
19233TIP3    H279191   3.089   2.435   5.256 -0.3246 -0.3175 -2.5767
19234TIP3   OH279192   1.574   4.707   1.868 -0.5494 -0.1851 -0.4274
19234TIP3    H179193   1.538   4.795   1.865 -1.7690 -0.6970 -1.5370
19234TIP3    H279194   1.545   4.672   1.952  0.0566  0.4896  0.0818
19235TIP3   OH279195   2.252   0.916   0.800 -0.0297  0.5354  0.5757
19235TIP3    H179196   2.256   0.965   0.719  0.6122  0.4651  0.5630
19235TIP3    H279197   2.343   0.898   0.823 -0.2570 -1.5533  0.0287
19236TIP3   OH279198   3.897   6.628  16.475  0.1631 -0.2071 -0.8539
19236TIP3    H179199   3.830   6.658  16.414 -1.2813 -0.0955  0.7068
19236TIP3    H279200   3.943   6.557  16.430  1.1049  1.7403 -3.1564
19237TIP3   OH279201   2.346   6.578   3.146 -0.0527 -0.0840  0.3283
19237TIP3    H179202   2.362   6.484   3.136 -0.0912 -0.1205  0.5927
19237TIP3    H279203   2.316   6.587   3.237  2.1508  0.4638  1.0632
19238TIP3   OH279204   1.201   1.768  11.134  0.0239 -0.0189 -0.4646
19238TIP3    H179205   1.229   1.741  11.047  0.6265 -0.7404 -0.0546
19238TIP3    H279206   1.173   1.688  11.177  1.3239  0.0597  0.5810
19239TIP3   OH279207   1.495   3.955   0.959  0.1633  0.4312  0.3413
19239TIP3    H179208   1.424   3.933   1.020  1.8446 -2.1933  1.5340
19239TIP3    H279209   1.463   3.925   0.874 -0.0103 -1.2982  0.9633
19240TIP3   OH279210   6.234   3.683   0.067  0.7617 -0.2731  0.5868
19240TIP3    H179211   6.172   3.627   0.114  0.2166  0.1411  0.3585
19240TIP3    H279212   6.255   3.753   0.129 -0.1994  0.4472  0.1048
19241TIP3   OH279213   1.840   4.449  12.280  0.5466  0.4524  0.1041
19241TIP3    H179214   1.879   4.394  12.212  1.6268  3.2160 -1.6920
19241TIP3    H279215   1.749   4.459  12.253  0.3231 -0.4616  0.4838
19242TIP3   OH279216   6.204   0.494   1.268  0.3168 -0.2818 -0.2400
19242TIP3    H179217   6.182   0.428   1.202  0.6905  0.3014 -0.9561
19242TIP3    H279218   6.299   0.487   1.278  0.7676  1.8112 -2.1818
19243TIP3   OH279219   2.452   4.591  12.836  0.1841 -0.4358 -0.5005
19243TIP3    H179220   2.463   4.606  12.742  1.0574  3.2362  0.0462
19243TIP3    H279221   2.362   4.618  12.854  0.3904  0.0079 -0.1199
19244TIP3   OH279222   1.033   0.889  15.797 -0.5056  0.1291  0.3742
19244TIP3    H179223   0.972   0.962  15.786  0.8951  1.0379 -2.1840
19244TIP3    H279224   1.008   0.826  15.729  0.1066 -0.4785  0.6938
19245TIP3   OH279225   6.325   3.841  11.105  0.8066 -0.3477 -0.7154
19245TIP3    H179226   6.360   3.929  11.087 -1.8208  0.7027 -1.1654
19245TIP3    H279227   6.282   3.815  11.023 -2.1276 -0.1192  0.6080
19246TIP3   OH279228   2.504   5.296  16.029 -0.2815 -0.3582  0.4652
19246TIP3    H179229   2.426   5.349  16.045  0.1419  0.3034  0.3807
19246TIP3    H279230   2.472   5.218  15.984 -0.7656  0.4250 -0.6006
19247TIP3   OH279231   6.137   6.257   5.612 -0.3126  0.1994  0.6933
19247TIP3    H179232   6.079   6.213   5.550 -0.6898  1.0222  0.4491
19247TIP3    H279233   6.087   6.260   5.694  0.5810 -1.8273  1.3895
19248TIP3   OH279234   4.185   2.716  17.016  0.3475  0.5341 -0.2503
19248TIP3    H179235   4.175   2.633  17.063  2.4375  0.6644  0.4901
19248TIP3    H279236   4.098   2.732  16.979 -1.0002 -0.3488  2.2728
19249TIP3   OH279237   3.293   2.592   5.204  0.3700  0.8610 -0.0351
19249TIP3    H179238   3.267   2.662   5.264  1.5814  0.4153  1.0509
19249TIP3    H279239   3.296   2.513   5.259 -0.8646 -0.0612 -1.2019
19250TIP3   OH279240   4.597   5.271   1.322 -0.1263  0.5044  0.5627
19250TIP3    H179241   4.596   5.365   1.336  1.3120  0.4123  1.5697
19250TIP3    H279242   4.605   5.260   1.227 -1.5567  1.3498  0.3267
19251TIP3   OH279243   2.486   4.726  12.243 -0.8334 -0.0049  0.5305
19251TIP3    H179244   2.491   4.630  12.236 -0.2549  0.0861 -0.3739
19251TIP3    H279245   2.400   4.742  12.282 -1.5606 -0.8474 -0.6549
19252TIP3   OH279246   2.639   2.358   5.538  0.1331  0.8332  0.0103
19252TIP3    H179247   2.705   2.407   5.489  1.4598  0.1086  0.9886
19252TIP3    H279248   2.658   2.378   5.630 -0.9459  0.5116  0.3218
19253TIP3   OH279249   2.740   2.281   2.313  0.2867  0.5918  0.2352
19253TIP3    H179250   2.676   2.350   2.298  0.2407  0.6951  0.9110
19253TIP3    H279251   2.701   2.226   2.381  0.9637  0.7276  0.7464
19254TIP3   OH279252   0.195   1.098   3.505 -1.0058  0.0801  0.3321
19254TIP3    H179253   0.186   1.173   3.564 -0.5845  0.5491 -0.1847
19254TIP3    H279254   0.175   1.134   3.418 -1.8566 -0.6505  0.2117
19255TIP3   OH279255   6.235   5.406  14.428  0.0995  1.0705 -0.4547
19255TIP3    H179256   6.215   5.488  14.472  1.2921  1.3018 -0.3155
19255TIP3    H279257   6.271   5.433  14.343 -0.7073  0.6580 -0.9414
19256TIP3   OH279258   2.257   5.114   3.132 -0.6670  0.1731  0.0224
19256TIP3    H179259   2.224   5.046   3.190 -1.0931  1.2603  1.1095
19256TIP3    H279260   2.350   5.120   3.151 -0.6753  0.0527  0.0961
19257TIP3   OH279261   2.570   5.707  17.014 -1.0257 -0.7597  0.6041
19257TIP3    H179262   2.632   5.752  17.072  0.0520 -3.5947  1.8469
19257TIP3    H279263   2.487   5.712  17.061 -1.9888  3.1274 -1.1050
19258TIP3   OH279264   1.940   0.645   1.592 -0.5329  0.6769 -0.3566
19258TIP3    H179265   2.034   0.634   1.608 -0.9238 -0.3928  1.3830
19258TIP3    H279266   1.935   0.720   1.532  1.3045  2.3486  1.4371
19259TIP3   OH279267   0.390   2.486   2.783  0.2637 -0.0917  0.7765
19259TIP3    H179268   0.310   2.437   2.769 -0.3136  0.9557  0.3098
19259TIP3    H279269   0.361   2.575   2.802  1.3155  0.8300 -1.5202
19260TIP3   OH279270   2.136   1.226   4.223 -0.2739  0.7614  0.5704
19260TIP3    H179271   2.163   1.179   4.144  0.2124  0.8122  0.7031
19260TIP3    H279272   2.102   1.310   4.191  0.6977  1.1328  0.4576
19261TIP3   OH279273   3.392   0.337  13.563 -0.6599 -0.8339  0.0342
19261TIP3    H179274   3.446   0.370  13.635  0.7373  0.3313 -1.4511
19261TIP3    H279275   3.435   0.255  13.537  1.4110  0.7969 -2.0736
19262TIP3   OH279276   2.330   4.819  10.524  0.0024 -0.3332 -0.2217
19262TIP3    H179277   2.400   4.858  10.472  1.0765 -0.6052  0.9673
19262TIP3    H279278   2.251   4.864  10.495  0.5787 -0.3605 -1.9461
19263TIP3   OH279279   5.835   6.746  10.672  0.1801 -0.3251 -0.4854
19263TIP3    H179280   5.909   6.803  10.650  1.6346 -2.3572 -1.1048
19263TIP3    H279281   5.761   6.782  10.623  0.5327  2.1080  0.6022
19264TIP3   OH279282   0.809   2.437  13.423 -0.0394  0.3253 -0.1627
19264TIP3    H179283   0.821   2.406  13.333  2.6671  1.1093 -0.1371
19264TIP3    H279284   0.735   2.498  13.417 -1.9168 -1.9140 -1.2104
19265TIP3   OH279285   1.576   4.946   4.102  0.4057 -0.1873 -0.4974
19265TIP3    H179286   1.616   5.033   4.099 -2.3173  1.2121  0.4270
19265TIP3    H279287   1.562   4.930   4.195  0.3339 -1.3622 -0.7031
19266TIP3   OH279288   0.400   4.404   0.340  0.1049  0.3052  0.5124
19266TIP3    H179289   0.332   4.340   0.358 -0.9617  1.0575 -0.6244
19266TIP3    H279290   0.358   4.489   0.355  0.1183  0.8621 -2.1002
19267TIP3   OH279291   4.837   0.662  14.005  0.5010 -0.0385 -0.5138
19267TIP3    H179292   4.889   0.671  13.925  4.3281  2.1957  1.9008
19267TIP3    H279293   4.770   0.730  13.999  0.1934 -0.4413 -2.0761
19268TIP3   OH279294   2.903   5.476   6.348 -0.4556 -0.3432 -0.6951
19268TIP3    H179295   2.989   5.456   6.310  0.5086  0.7550  0.7627
19268TIP3    H279296   2.911   5.566   6.378 -1.8059 -0.5393  0.3412
19269TIP3   OH279297   0.384   2.471   4.171  0.0747  0.1101 -0.3809
19269TIP3    H179298   0.306   2.520   4.197 -1.0606 -2.2409  0.9500
19269TIP3    H279299   0.354   2.414   4.101  0.3807 -1.3088  0.6079
19270TIP3   OH279300   3.903   0.575  10.437 -0.0371  0.3876  0.3716
19270TIP3    H179301   3.937   0.648  10.489  0.4716  0.1241  0.4215
19270TIP3    H279302   3.849   0.525  10.498  0.0272  0.4404  0.4722
19271TIP3   OH279303   4.126   4.324   0.750  0.2038 -0.0410 -0.2558
19271TIP3    H179304   4.173   4.347   0.670  0.7995 -2.8672 -0.8235
19271TIP3    H279305   4.055   4.267   0.721  0.7363 -1.5480  1.2397
19272TIP3   OH279306   1.851   4.166   3.633  0.1187 -0.1823 -1.2389
19272TIP3    H179307   1.913   4.138   3.701 -0.1382  0.1240 -0.8702
19272TIP3    H279308   1.774   4.194   3.682  0.3557  1.1320 -1.5915
19273TIP3   OH279309   5.606   2.675   4.693  0.2526  0.6754  0.0862
19273TIP3    H179310   5.616   2.770   4.698  0.3270  0.6590  0.2342
19273TIP3    H279311   5.581   2.659   4.602 -0.0098  0.8609  0.1242
19274TIP3   OH279312   0.401   2.732   3.999  0.3889 -0.4143 -0.1145
19274TIP3    H179313   0.412   2.644   4.036  2.7119 -0.4272 -0.6906
19274TIP3    H279314   0.316   2.761   4.031 -0.0532 -2.5328  0.7922
19275TIP3   OH279315   6.846   5.724   5.529  0.5004 -0.2913 -0.3930
19275TIP3    H179316   6.821   5.733   5.437 -0.6531 -0.8090 -0.1420
19275TIP3    H279317   6.908   5.652   5.530 -0.0493 -0.7730 -0.6698
19276TIP3   OH279318   4.242   5.040  11.401 -0.5121 -0.6501 -0.6088
19276TIP3    H179319   4.285   4.955  11.412  1.1280  0.2859  0.6637
19276TIP3    H279320   4.221   5.068  11.490 -1.2668  0.1746 -1.0307
19277TIP3   OH279321   3.605   2.380  16.181 -0.0901 -0.0914  0.4593
19277TIP3    H179322   3.570   2.445  16.241  1.0366  2.5353 -1.5239
19277TIP3    H279323   3.544   2.379  16.108  0.0376 -1.1079  0.3499
19278TIP3   OH279324   6.223   2.678   1.091  0.2446  0.0773 -0.3057
19278TIP3    H179325   6.220   2.761   1.138 -0.5034 -0.4879  0.6852
19278TIP3    H279326   6.316   2.659   1.082  0.4334  1.0951 -0.7041
19279TIP3   OH279327   6.320   3.959   1.341  0.4744 -0.1467 -1.5953
19279TIP3    H179328   6.285   4.044   1.368 -0.4992 -0.8712 -0.5345
19279TIP3    H279329   6.359   3.976   1.255 -0.0840  1.2784 -1.5885
19280TIP3   OH279330   1.394   3.929   1.792  0.1308 -0.1806 -0.2486
19280TIP3    H179331   1.457   4.001   1.787  0.4248 -0.2632  1.4883
19280TIP3    H279332   1.348   3.943   1.875 -0.8301 -1.1891 -0.5814
19281TIP3   OH279333   3.767   3.589   4.559 -1.0601  0.6159 -0.0542
19281TIP3    H179334   3.704   3.661   4.555  0.2967  1.8683 -3.6326
19281TIP3    H279335   3.836   3.620   4.618 -1.3145  1.5494 -0.2318
19282TIP3   OH279336   2.994   2.377  10.646  0.7197  0.3674 -0.1477
19282TIP3    H179337   3.015   2.283  10.642  3.3086  0.5809  3.5687
19282TIP3    H279338   3.079   2.420  10.660 -0.5482  3.1753 -0.4309
19283TIP3   OH279339   2.185   6.716   2.954  0.2875  0.4648  0.1445
19283TIP3    H179340   2.200   6.810   2.960 -1.7278  0.7326  1.9267
19283TIP3    H279341   2.261   6.677   2.998  1.1461  1.2235 -0.6174
19284TIP3   OH279342   2.279   5.431   3.320 -0.3423  0.2943 -0.2787
19284TIP3    H179343   2.283   5.440   3.225 -0.0637  0.6891 -0.2333
19284TIP3    H279344   2.335   5.501   3.353 -2.2433  1.6698  0.2218
19285TIP3   OH279345   5.160   0.930   0.761  0.1995 -0.3576 -0.3226
19285TIP3    H179346   5.164   0.963   0.671  0.1276  1.0243  0.1557
19285TIP3    H279347   5.068   0.938   0.785  0.2699 -0.4408 -0.0282
19286TIP3   OH279348   2.876   4.944   3.173  0.5846 -0.0314 -0.3371
19286TIP3    H179349   2.795   4.896   3.155 -0.9181  1.6167  1.6265
19286TIP3    H279350   2.943   4.897   3.123 -1.5194 -1.5670 -1.8843
19287TIP3   OH279351   5.616   1.374  16.106  0.2635  0.1333 -0.0427
19287TIP3    H179352   5.662   1.397  16.025  0.0407 -0.0922 -0.2344
19287TIP3    H279353   5.523   1.385  16.085  0.1650 -0.6819 -0.0578
19288TIP3   OH279354   4.588   4.679   0.890  0.3526 -0.1593 -0.2666
19288TIP3    H179355   4.586   4.645   0.801  0.9992 -1.0890  0.0572
19288TIP3    H279356   4.497   4.678   0.918  0.0641  0.7332 -1.1233
19289TIP3   OH279357   2.581   3.371  10.274 -0.0037  0.6935  0.2467
19289TIP3    H179358   2.539   3.286  10.270  0.1739  0.6275 -0.4252
19289TIP3    H279359   2.675   3.352  10.268  0.0498  0.9152  0.3738
19290TIP3   OH279360   3.380   2.513   3.411 -0.1976 -0.2227  0.3492
19290TIP3    H179361   3.377   2.575   3.483 -0.9932  1.5121 -1.0809
19290TIP3    H279362   3.446   2.549   3.351  0.9104 -1.9604  0.4414
19291TIP3   OH279363   2.169   3.936  13.965  0.2019  1.1043 -0.1630
19291TIP3    H179364   2.124   3.918  14.048  1.1133 -2.3545 -0.2722
19291TIP3    H279365   2.251   3.978  13.991 -0.1810  1.4152  0.5643
19292TIP3   OH279366   3.458   5.318  11.791  0.5329 -0.2447 -0.2227
19292TIP3    H179367   3.476   5.264  11.867  0.0701  0.1196  0.1507
19292TIP3    H279368   3.533   5.305  11.733  0.3144 -1.4790 -0.2539
19293TIP3   OH279369   0.777   3.058   5.315 -0.4096  0.1590  0.4850
19293TIP3    H179370   0.758   3.080   5.224  1.0233  2.0344  0.5765
19293TIP3    H279371   0.692   3.061   5.359 -0.8424  1.4597 -0.3874
19294TIP3   OH279372   3.289   0.367  12.395  1.0919  0.2002 -0.4250
19294TIP3    H179373   3.217   0.369  12.333  0.7315 -0.2597 -0.0243
19294TIP3    H279374   3.248   0.346  12.479  1.7194 -0.3161 -0.2383
19295TIP3   OH279375   5.455   4.905  15.047  0.2021  0.1805 -0.0705
19295TIP3    H179376   5.381   4.877  14.992 -0.1907 -0.7799  0.9148
19295TIP3    H279377   5.434   4.996  15.069 -0.2190  0.2097 -0.5503
19296TIP3   OH279378   0.386   2.329   1.350  0.8044  0.4951 -0.3086
19296TIP3    H179379   0.369   2.269   1.423 -1.1438  0.5081 -0.6808
19296TIP3    H279380   0.428   2.274   1.284  0.3696 -0.1272 -0.0875
19297TIP3   OH279381   2.016   3.672   2.203  0.1645  0.5546  0.1117
19297TIP3    H179382   2.008   3.598   2.263 -0.4867  0.4576 -0.0937
19297TIP3    H279383   1.942   3.729   2.223 -0.8236 -0.1016 -1.4430
19298TIP3   OH279384   2.742   2.088  16.683 -0.3760 -0.1705 -0.9033
19298TIP3    H179385   2.836   2.083  16.696 -0.1472 -0.4454 -2.4825
19298TIP3    H279386   2.706   2.092  16.771  1.0395 -1.3069 -0.2251
19299TIP3   OH279387   6.097   2.105   5.552 -0.0789  0.5594 -0.2979
19299TIP3    H179388   6.180   2.057   5.554  0.1114  0.6318 -3.0704
19299TIP3    H279389   6.058   2.088   5.638  2.2921 -0.3500  0.6890
19300TIP3   OH279390   2.361   3.915  11.481  0.2457  0.0938 -0.2223
19300TIP3    H179391   2.305   3.940  11.555  2.2899  1.7547  0.8826
19300TIP3    H279392   2.397   3.830  11.506 -0.8155 -0.4229 -0.3961
19301TIP3   OH279393   2.818   3.024   2.183 -0.6126 -0.2454  0.0646
19301TIP3    H179394   2.857   3.022   2.095  0.0145  1.0636  0.2872
19301TIP3    H279395   2.841   3.110   2.217 -2.7718  0.1314  0.6586
19302TIP3   OH279396   6.808   2.928  14.295  0.5148 -0.3746  0.0781
19302TIP3    H179397   6.776   2.919  14.385  0.7198  1.1356  0.3317
19302TIP3    H279398   6.884   2.869  14.291  1.1194  0.2804  1.2247
19303TIP3   OH279399   0.490   0.542  13.766  0.3399  0.5701 -0.3132
19303TIP3    H179400   0.430   0.557  13.839  1.1546 -0.1713  0.5290
19303TIP3    H279401   0.576   0.533  13.807  1.0543  1.6354 -1.4944
19304TIP3   OH279402   1.168   2.623  11.596  0.1044  0.1982 -0.2602
19304TIP3    H179403   1.217   2.701  11.621 -1.0025  1.3961 -1.6426
19304TIP3    H279404   1.110   2.606  11.670  1.6920 -0.5194  0.8696
19305TIP3   OH279405   1.672   0.097   2.331  0.4340 -0.5965  0.1651
19305TIP3    H179406   1.669   0.192   2.339  3.8757 -0.2052 -1.3607
19305TIP3    H279407   1.581   0.069   2.343 -1.2200  3.1063 -1.9362
19306TIP3   OH279408   0.611   2.971  11.079 -0.0001 -0.5428 -0.0414
19306TIP3    H179409   0.607   3.053  11.030 -1.8178 -0.9383 -0.6108
19306TIP3    H279410   0.520   2.943  11.087  0.6679 -3.2237 -1.0786
19307TIP3   OH279411   3.501   3.784  11.113  0.2469 -0.1940 -0.1387
19307TIP3    H179412   3.591   3.780  11.147  0.3420 -0.4335 -0.4080
19307TIP3    H279413   3.492   3.703  11.063 -0.2310 -0.3275  0.1585
19308TIP3   OH279414   6.836   6.411  16.130  0.0441 -0.4252  0.0660
19308TIP3    H179415   6.903   6.451  16.186 -0.3694  0.6989 -0.2072
19308TIP3    H279416   6.822   6.476  16.060  0.1381 -1.5462 -1.0256
19309TIP3   OH279417   3.129   1.955   0.199 -0.1314 -0.2331 -0.1983
19309TIP3    H179418   3.167   2.024   0.253 -0.5957  1.7733 -2.2518
19309TIP3    H279419   3.042   1.939   0.236 -0.0213  0.2982  0.2922
19310TIP3   OH279420   3.661   0.841   3.899  0.0491 -0.0504  0.0819
19310TIP3    H179421   3.619   0.869   3.980  2.1585  0.1414  1.1783
19310TIP3    H279422   3.709   0.919   3.869 -0.4677 -0.2101 -1.1958
19311TIP3   OH279423   5.149   5.374   2.236 -0.4432  0.2667 -0.1054
19311TIP3    H179424   5.098   5.372   2.317  2.2729  1.6619  1.7740
19311TIP3    H279425   5.168   5.466   2.221  1.5755 -0.1942 -0.6610
19312TIP3   OH279426   1.237   0.072  13.942  0.4387 -0.2827  0.4159
19312TIP3    H179427   1.328   0.086  13.967  0.4184 -0.1671  0.4235
19312TIP3    H279428   1.232  -0.022  13.922  0.3727 -0.4462  1.1885
19313TIP3   OH279429   5.231   2.763  13.378 -0.4202  0.1345  0.2704
19313TIP3    H179430   5.325   2.766  13.361 -0.4035  0.2698  0.3836
19313TIP3    H279431   5.194   2.726  13.298 -0.1646 -0.9926  0.6533
19314TIP3   OH279432   6.822   3.937  10.712 -0.0044  0.1266 -0.5915
19314TIP3    H179433   6.880   3.874  10.670 -0.4184 -2.3544  2.2144
19314TIP3    H279434   6.734   3.910  10.687 -0.1492  0.1457 -0.1212
19315TIP3   OH279435   5.146   1.765   0.378 -0.3879 -0.2419  0.3325
19315TIP3    H179436   5.185   1.851   0.393  0.6226 -0.6390  0.0742
19315TIP3    H279437   5.052   1.780   0.385 -0.2226  0.8562  0.4247
19316TIP3   OH279438   4.255   5.993  12.565  0.4094 -0.0401  0.1881
19316TIP3    H179439   4.349   6.009  12.558  0.1979  1.2109  0.1173
19316TIP3    H279440   4.224   6.054  12.631 -0.6638  0.9846 -1.1861
19317TIP3   OH279441   5.251   2.191   2.957  0.1538  0.3634 -0.2170
19317TIP3    H179442   5.306   2.263   2.927  0.5508 -0.2923 -1.1093
19317TIP3    H279443   5.212   2.155   2.877  3.0555 -2.9294 -0.3937
19318TIP3   OH279444   3.833   1.067   1.020  0.0386 -0.1481 -0.4268
19318TIP3    H179445   3.812   0.984   1.063 -2.1089 -0.6654 -2.3329
19318TIP3    H279446   3.928   1.066   1.011  0.1150 -2.0463  0.2278
19319TIP3   OH279447   1.315   2.443   3.459 -0.0071 -0.0744  0.1970
19319TIP3    H179448   1.359   2.405   3.535  1.2450  1.6186  0.3763
19319TIP3    H279449   1.361   2.406   3.384  0.7457  0.5437  0.3484
19320TIP3   OH279450   3.428   1.108  13.097 -0.2026 -0.2501 -0.4694
19320TIP3    H179451   3.410   1.015  13.114  1.3094 -0.4248  0.4207
19320TIP3    H279452   3.373   1.155  13.158 -0.1536 -0.6222 -0.1304
19321TIP3   OH279453   0.266   6.616   1.860  0.0636  0.3743  0.1567
19321TIP3    H179454   0.322   6.549   1.899  1.7863  1.8544  0.3567
19321TIP3    H279455   0.231   6.575   1.781  0.6549 -0.9284  0.5348
19322TIP3   OH279456   2.766   4.354  15.998  0.1662  0.0578  0.2452
19322TIP3    H179457   2.728   4.423  15.943  1.5706  1.9624  1.5338
19322TIP3    H279458   2.759   4.389  16.087  1.5358 -1.1744  0.8609
19323TIP3   OH279459   0.175   3.786  12.351  0.2662  0.1556 -0.5925
19323TIP3    H179460   0.222   3.781  12.268 -0.3058 -0.2425 -0.8971
19323TIP3    H279461   0.127   3.704  12.357 -1.9383  1.3248 -1.2388
19324TIP3   OH279462   4.620   3.306   2.816 -0.6110 -0.6749  0.0612
19324TIP3    H179463   4.603   3.253   2.894 -2.5686  0.0322  0.1817
19324TIP3    H279464   4.539   3.300   2.765  0.2102 -0.1766 -1.3550
19325TIP3   OH279465   6.465   1.526  14.357  0.5520 -0.1318 -0.0120
19325TIP3    H179466   6.526   1.515  14.284 -0.4887  0.8012 -1.0689
19325TIP3    H279467   6.434   1.616  14.349 -2.2548 -1.0392 -0.6328
19326TIP3   OH279468   4.062   5.368  11.108  0.7299 -0.1902 -0.6650
19326TIP3    H179469   4.052   5.458  11.076 -1.0228 -0.0781  0.0985
19326TIP3    H279470   4.112   5.377  11.189 -1.7385  0.4685  0.8872
19327TIP3   OH279471   6.667   3.595   4.863  0.2992  0.1882  0.5115
19327TIP3    H179472   6.585   3.588   4.913  1.3076 -0.5467  2.1507
19327TIP3    H279473   6.716   3.517   4.887  1.5479  0.6965 -0.3128
19328TIP3   OH279474   4.502   3.079   1.995  0.0817 -0.4123 -0.2219
19328TIP3    H179475   4.449   3.077   1.915 -0.0750  2.6013 -0.3215
19328TIP3    H279476   4.486   3.166   2.032 -0.0888 -1.7704  3.3004
19329TIP3   OH279477   6.583   2.100   3.214 -0.2208 -0.1158  0.2702
19329TIP3    H179478   6.489   2.089   3.195 -0.1053  0.7773 -0.9503
19329TIP3    H279479   6.585   2.144   3.299 -0.8384 -1.7543  1.1836
19330TIP3   OH279480   2.350   4.124  10.462 -0.6611 -0.0398  0.3365
19330TIP3    H179481   2.419   4.107  10.526  0.4479 -0.2730 -0.8801
19330TIP3    H279482   2.287   4.179  10.508  1.3063  1.8346  0.9219
19331TIP3   OH279483   1.247   3.472   4.566 -0.1606  0.0064 -0.0632
19331TIP3    H179484   1.301   3.541   4.527 -1.0234  1.1599  0.7149
19331TIP3    H279485   1.159   3.488   4.532 -0.2382 -1.2468 -0.5323
19332TIP3   OH279486   2.335   0.399  15.772  0.2244 -0.1075 -0.6009
19332TIP3    H179487   2.269   0.448  15.723 -0.8675 -0.1669  0.7295
19332TIP3    H279488   2.285   0.354  15.841  1.5659 -0.7656 -0.0180
19333TIP3   OH279489   4.462   6.342   4.481 -0.2788  0.1985  0.2756
19333TIP3    H179490   4.391   6.375   4.426  0.7230 -0.0386 -1.2295
19333TIP3    H279491   4.526   6.412   4.483  1.2457 -1.0310 -1.8028
19334TIP3   OH279492   2.241   3.389   0.137  0.3064  0.3645  0.2056
19334TIP3    H179493   2.211   3.401   0.047  2.0018 -0.7239 -0.5329
19334TIP3    H279494   2.185   3.319   0.171  0.2778  0.1221 -0.3211
19335TIP3   OH279495   1.172   4.527  11.785 -0.0090 -0.6201 -0.4814
19335TIP3    H179496   1.159   4.553  11.693  0.7229 -0.0511 -0.4339
19335TIP3    H279497   1.255   4.480  11.785  0.3354 -0.0154  0.0072
19336TIP3   OH279498   0.218   6.544   1.600  0.5025 -0.0674 -0.3762
19336TIP3    H179499   0.291   6.561   1.540 -0.9331 -0.9441 -2.4812
19336TIP3    H279500   0.146   6.598   1.567 -0.1068  0.0682  1.0938
19337TIP3   OH279501   2.721   2.383   4.581 -0.5403 -0.3495 -0.5937
19337TIP3    H179502   2.769   2.457   4.620  1.6744 -0.8251 -2.2478
19337TIP3    H279503   2.669   2.348   4.653  0.2733  1.2985  0.8657
19338TIP3   OH279504   4.272   5.951   2.063 -0.1292 -0.2017  0.3989
19338TIP3    H179505   4.364   5.940   2.087  0.1983  1.0894 -0.1645
19338TIP3    H279506   4.268   5.924   1.972 -0.0477  0.7949  0.0811
19339TIP3   OH279507   4.339   5.674   4.541 -0.2163 -0.3438 -0.5071
19339TIP3    H179508   4.276   5.741   4.515  0.1295  0.1128 -0.1812
19339TIP3    H279509   4.332   5.607   4.473  0.0717  0.4349 -1.3199
19340TIP3   OH279510   1.352   6.595   1.169 -0.0837 -0.1414  0.1272
19340TIP3    H179511   1.366   6.672   1.224 -1.1508 -0.7684  1.3626
19340TIP3    H279512   1.374   6.623   1.081  1.3139  1.0319  0.8156
19341TIP3   OH279513   5.428   2.669  12.527  0.1157 -0.0497 -0.3841
19341TIP3    H179514   5.489   2.596  12.540  0.9780  0.9411  1.5974
19341TIP3    H279515   5.342   2.632  12.547  0.5424 -0.5609  0.5829
19342TIP3   OH279516   4.545   1.296   4.948 -0.3966 -0.3038  0.0056
19342TIP3    H179517   4.529   1.352   4.872  0.3063  0.0162  0.0873
19342TIP3    H279518   4.460   1.290   4.992 -0.1091  2.2144  1.0325
19343TIP3   OH279519   2.030   4.121   3.829 -0.1458 -0.6380 -0.6348
19343TIP3    H179520   2.068   4.208   3.841 -2.6544  0.5656 -0.8515
19343TIP3    H279521   2.086   4.064   3.881  1.8111  1.0003 -0.7807
19344TIP3   OH279522   0.332   2.879   3.218 -0.3573 -0.1350 -0.3562
19344TIP3    H179523   0.285   2.932   3.283  0.3629 -0.7433  0.6880
19344TIP3    H279524   0.402   2.936   3.187  0.5492 -0.4976  0.9223
19345TIP3   OH279525   5.831   5.250   0.243 -0.2915  0.0995  0.3931
19345TIP3    H179526   5.857   5.185   0.308  2.7881 -0.8470 -1.5731
19345TIP3    H279527   5.775   5.201   0.182 -0.2711  0.0392  0.4228
19346TIP3   OH279528   6.376   4.787   0.933 -0.0543  0.3711  0.1102
19346TIP3    H179529   6.446   4.756   0.876 -0.6312 -1.6877  0.4282
19346TIP3    H279530   6.420   4.839   1.000  1.3336 -1.5620  0.7841
19347TIP3   OH279531   0.469   0.144  13.504 -0.6780 -0.0820  0.0426
19347TIP3    H179532   0.377   0.149  13.529 -1.2248 -0.8846 -1.6342
19347TIP3    H279533   0.501   0.234  13.506 -1.2992  0.1204  1.2991
19348TIP3   OH279534   1.040   6.764   5.230  0.0732 -0.2735  0.4898
19348TIP3    H179535   1.058   6.858   5.219 -1.0977 -0.1997 -1.2456
19348TIP3    H279536   1.105   6.734   5.294  0.9851  1.5564  0.4797
19349TIP3   OH279537   4.807   3.275   1.059  0.5101 -0.1617 -0.0744
19349TIP3    H179538   4.800   3.307   0.969 -2.1271  0.5927  0.2971
19349TIP3    H279539   4.733   3.215   1.068  0.0580  0.6250  1.8927
19350TIP3   OH279540   2.328   5.660  14.397  0.2727  0.1479  0.4530
19350TIP3    H179541   2.337   5.578  14.350 -1.3994  0.7480 -1.0077
19350TIP3    H279542   2.394   5.717  14.358  1.7312 -0.5675  1.7619
19351TIP3   OH279543   0.301   3.840   4.871  0.1887  0.1083 -0.1866
19351TIP3    H179544   0.386   3.882   4.883 -0.5774  1.3228  1.3201
19351TIP3    H279545   0.319   3.766   4.812  2.3508  0.0825  0.4154
19352TIP3   OH279546   4.866   2.226   5.012  0.0203 -0.2814 -0.1986
19352TIP3    H179547   4.884   2.307   4.965  1.6226 -1.0917 -1.0931
19352TIP3    H279548   4.838   2.165   4.944  0.0675 -0.8159  0.2513
19353TIP3   OH279549   4.187   3.616  11.976 -0.2891 -0.3097 -0.0241
19353TIP3    H179550   4.154   3.554  12.040  1.5307 -0.8979  0.3860
19353TIP3    H279551   4.259   3.661  12.020 -0.3531  0.7653 -0.9587
19354TIP3   OH279552   0.753   5.675  14.452 -0.2393  0.3057  0.3718
19354TIP3    H179553   0.745   5.588  14.490  0.3280 -0.3104 -0.8692
19354TIP3    H279554   0.832   5.671  14.398  0.1396  1.7740  0.7603
19355TIP3   OH279555   2.702   1.837  13.641 -0.3917 -0.3674  0.5510
19355TIP3    H179556   2.719   1.776  13.569  0.5770  0.1342  0.3318
19355TIP3    H279557   2.646   1.905  13.604  0.9344  0.4448 -0.0514
19356TIP3   OH279558   0.504   1.825   1.087 -0.4640 -0.1705 -0.0929
19356TIP3    H179559   0.562   1.872   1.028 -1.2512  0.2868 -0.5159
19356TIP3    H279560   0.555   1.750   1.118  0.5961  0.6288  0.1184
19357TIP3   OH279561   5.688   5.505  14.043 -0.0047 -0.2226  0.3853
19357TIP3    H179562   5.647   5.433  13.995  0.4837 -1.2133  1.4005
19357TIP3    H279563   5.776   5.512  14.006  0.2040 -0.6631  0.7807
19358TIP3   OH279564   4.103   6.783   2.606 -0.2365  0.2892 -0.5435
19358TIP3    H179565   4.105   6.857   2.667 -1.0459 -1.4931  1.8357
19358TIP3    H279566   4.023   6.796   2.555  0.0375  1.4183 -0.7156
19359TIP3   OH279567   0.474   4.431   3.693  0.1169 -1.0263 -0.2170
19359TIP3    H179568   0.531   4.355   3.678  0.2511 -0.7740 -0.9995
19359TIP3    H279569   0.422   4.439   3.613  1.5006  0.8959 -1.0114
19360TIP3   OH279570   3.591   3.011   1.325  0.7977  0.2214 -0.4042
19360TIP3    H179571   3.597   3.107   1.321  1.7312  0.2525  1.2220
19360TIP3    H279572   3.563   2.992   1.414 -1.5090 -0.9839 -1.2899
19361TIP3   OH279573   3.478   3.785  13.515  0.0748  0.3653 -1.1045
19361TIP3    H179574   3.416   3.853  13.540 -0.2618  0.0131 -0.9750
19361TIP3    H279575   3.549   3.793  13.578  1.0256  1.9128 -2.2825
19362TIP3   OH279576   3.725   2.531   0.602  0.2526  0.1112 -0.1995
19362TIP3    H179577   3.745   2.576   0.684 -1.1190  0.8453 -0.2366
19362TIP3    H279578   3.630   2.524   0.601  0.3204 -0.9693 -1.1811
19363TIP3   OH279579   0.067   2.514  14.831  0.2698  0.3088  0.2839
19363TIP3    H179580   0.088   2.502  14.924 -0.1590  0.1554  0.3671
19363TIP3    H279581   0.143   2.480  14.784 -0.3413 -1.5260  0.5466
19364TIP3   OH279582   4.880   4.149   1.471  0.2317  0.4647 -0.2390
19364TIP3    H179583   4.964   4.175   1.432  0.5705  1.9767  1.3887
19364TIP3    H279584   4.851   4.076   1.417  2.2824  0.3113 -1.2542
19365TIP3   OH279585   5.087   0.917   0.121 -0.3330 -0.1437  0.0210
19365TIP3    H179586   5.056   1.001   0.087  1.1500 -0.1837 -1.5815
19365TIP3    H279587   5.007   0.870   0.146 -1.3498  0.8754 -1.1578
19366TIP3   OH279588   0.436   1.530   1.440  0.2898  0.1132  0.0096
19366TIP3    H179589   0.345   1.540   1.411  0.4735  2.7450  0.0606
19366TIP3    H279590   0.464   1.446   1.404 -2.0566 -0.6346 -0.2532
19367TIP3   OH279591   3.023   1.450   2.090 -0.7008 -0.6336  0.4243
19367TIP3    H179592   2.964   1.445   2.015 -0.0150 -0.4916 -0.1380
19367TIP3    H279593   3.014   1.540   2.121  0.5670 -0.0368 -0.8101
19368TIP3   OH279594   1.751   0.483   3.928 -0.3940 -0.5641  0.1164
19368TIP3    H179595   1.712   0.402   3.963  3.4007 -1.8659  1.8572
19368TIP3    H279596   1.800   0.455   3.851 -1.6782  0.8087 -1.2863
19369TIP3   OH279597   5.226   1.226   3.920 -0.3048 -0.5722 -0.6636
19369TIP3    H179598   5.225   1.207   3.826 -0.8211 -0.8492 -0.5998
19369TIP3    H279599   5.145   1.273   3.936 -0.3349 -0.7462 -0.3052
19370TIP3   OH279600   0.815   3.049   3.422  0.2224 -0.3129 -0.2238
19370TIP3    H179601   0.878   2.989   3.462 -0.6568 -1.6275 -0.7034
19370TIP3    H279602   0.795   3.113   3.490 -0.4503 -1.8773  1.1155
19371TIP3   OH279603   2.860   5.255  15.887  0.4176 -0.6342 -0.2125
19371TIP3    H179604   2.798   5.236  15.816  1.7566  2.1443 -2.2924
19371TIP3    H279605   2.927   5.187  15.878  0.1413 -0.8083 -1.0992
19372TIP3   OH279606   1.747   6.289   0.880  0.4274  0.1547  0.3634
19372TIP3    H179607   1.744   6.384   0.872 -2.4339  0.1673  0.3411
19372TIP3    H279608   1.706   6.257   0.800  1.4534 -1.1260  0.3189
19373TIP3   OH279609   0.805   4.619   3.199  0.3066 -0.3160  0.5930
19373TIP3    H179610   0.758   4.538   3.180  0.9406 -0.4224 -0.6301
19373TIP3    H279611   0.755   4.687   3.154 -0.9273  0.1978  2.6337
19374TIP3   OH279612   2.238   3.205  11.086 -0.1013 -0.7544 -0.0057
19374TIP3    H179613   2.222   3.279  11.145  1.9297 -0.6337  0.4889
19374TIP3    H279614   2.242   3.245  10.999  0.9336 -0.2475  0.2540
19375TIP3   OH279615   4.898   3.354   5.196  0.0788 -0.0291  0.4451
19375TIP3    H179616   4.835   3.289   5.163 -0.6206  0.4082  0.8755
19375TIP3    H279617   4.971   3.303   5.228  0.3574 -0.5156 -0.8869
19376TIP3   OH279618   5.316   3.921  15.012 -0.5655  0.3320  0.1816
19376TIP3    H179619   5.271   3.918  14.928  1.9442 -0.5994 -1.2357
19376TIP3    H279620   5.322   3.830  15.039 -0.9596  0.5888  1.1991
19377TIP3   OH279621   3.821   3.888   2.420 -0.1551 -0.1005  0.0125
19377TIP3    H179622   3.898   3.864   2.369  0.3648 -1.2066  1.2528
19377TIP3    H279623   3.854   3.953   2.483 -0.0499 -1.0871  1.0021
19378TIP3   OH279624   3.072   5.470  16.584 -0.1108  0.4798  0.0573
19378TIP3    H179625   3.019   5.394  16.609  0.3400 -0.4844 -1.7006
19378TIP3    H279626   3.021   5.546  16.610  0.0574 -0.3704  3.1948
19379TIP3   OH279627   1.810   3.517  16.046 -0.1025 -0.0854 -0.6153
19379TIP3    H179628   1.830   3.545  16.135 -1.9214  0.4447 -0.3478
19379TIP3    H279629   1.742   3.577  16.017 -0.0289 -0.6971 -2.1250
19380TIP3   OH279630   3.791   5.978   5.610  0.3784 -0.1651  0.0697
19380TIP3    H179631   3.756   5.911   5.551  0.7404 -0.9654  0.7469
19380TIP3    H279632   3.846   6.033   5.554  1.8418 -1.7365 -0.1196
19381TIP3   OH279633   6.149   4.147   5.684  0.1042  0.0556  0.1064
19381TIP3    H179634   6.096   4.079   5.643 -0.4376  0.0808  0.7434
19381TIP3    H279635   6.189   4.194   5.611  2.4088 -2.3756 -0.3680
19382TIP3   OH279636   4.342   3.531  17.041  0.1508  0.0515  0.1341
19382TIP3    H179637   4.353   3.507  16.949 -0.8408  0.8284 -0.2134
19382TIP3    H279638   4.389   3.464  17.090  1.8676  0.3842 -0.9838
19383TIP3   OH279639   3.611   0.775   3.420  0.4918 -0.1908  0.0053
19383TIP3    H179640   3.609   0.683   3.391 -0.2095 -0.0169 -0.5347
19383TIP3    H279641   3.632   0.824   3.341  1.1495  0.0969  0.3541
19384TIP3   OH279642   5.064   1.512   1.322  0.3850 -0.3340  0.3177
19384TIP3    H179643   4.972   1.536   1.331  0.4045 -0.6262  1.4146
19384TIP3    H279644   5.062   1.420   1.296  0.3553 -0.9802  2.4252
19385TIP3   OH279645   3.966   5.586   1.867  0.1184 -0.1371 -0.4647
19385TIP3    H179646   4.037   5.581   1.931 -0.1079  0.0327 -0.2010
19385TIP3    H279647   3.982   5.669   1.820  1.7008 -1.3844 -2.3012
19386TIP3   OH279648   6.578   1.052   1.036  0.2128  0.7708 -0.9290
19386TIP3    H179649   6.659   1.003   1.044 -0.2887 -0.2136 -1.7900
19386TIP3    H279650   6.568   1.070   0.943 -2.3405 -2.3045 -1.4270
19387TIP3   OH279651   6.294   4.574   3.486  0.0306 -0.2319 -0.4691
19387TIP3    H179652   6.249   4.607   3.565 -2.3965  0.3082 -1.9707
19387TIP3    H279653   6.276   4.480   3.486  0.7985 -0.3850  0.0670
19388TIP3   OH279654   3.981   6.543   3.603 -0.2254 -0.3541 -0.0208
19388TIP3    H179655   3.904   6.599   3.616 -0.5157 -1.0803  1.6205
19388TIP3    H279656   3.944   6.454   3.599  0.2164 -0.4889 -2.6373
19389TIP3   OH279657   6.819   1.573   2.996 -0.0888 -0.3665  0.2740
19389TIP3    H179658   6.906   1.543   3.023 -0.2732  0.3005  1.7287
19389TIP3    H279659   6.817   1.561   2.901  0.9731 -1.9455  0.4230
19390TIP3   OH279660   3.745   2.612   3.278  0.7665 -0.1703  0.0345
19390TIP3    H179661   3.804   2.688   3.283  1.4945 -0.6867 -0.4648
19390TIP3    H279662   3.658   2.650   3.269  1.1547  0.6158 -0.5699
19391TIP3   OH279663   4.869   5.417   5.743 -0.0230 -0.0210  0.4157
19391TIP3    H179664   4.928   5.388   5.813 -0.4706 -1.3131  0.2961
19391TIP3    H279665   4.927   5.451   5.675  0.7301 -2.3301 -0.1927
19392TIP3   OH279666   4.237   0.140  11.487 -0.1099  0.0397  0.6180
19392TIP3    H179667   4.280   0.135  11.572  1.1507  1.0234  0.0681
19392TIP3    H279668   4.272   0.220  11.447  1.6626 -1.9088 -2.0443
19393TIP3   OH279669   4.474   2.453   6.245 -0.0639  0.8454  0.1626
19393TIP3    H179670   4.548   2.503   6.212 -0.2735  1.0891  0.0501
19393TIP3    H279671   4.512   2.374   6.282  0.1576  0.4357 -0.9150
19394TIP3   OH279672   2.047   3.354  14.935 -0.3451  0.4652 -0.1942
19394TIP3    H179673   2.062   3.308  15.018 -1.7612  1.1005  0.4446
19394TIP3    H279674   2.042   3.447  14.959 -0.0944  0.7277 -1.1010
19395TIP3   OH279675   2.797   2.485  12.186  0.2875 -0.0536 -0.1515
19395TIP3    H179676   2.843   2.462  12.266  0.5449 -0.3081 -0.3745
19395TIP3    H279677   2.856   2.545  12.140 -0.6262  1.6034  0.7198
19396TIP3   OH279678   1.363   0.687  16.813 -0.1794 -0.9235  0.3527
19396TIP3    H179679   1.356   0.594  16.791 -1.3868 -0.5081 -1.1548
19396TIP3    H279680   1.355   0.689  16.909  1.7320 -2.4976  0.6102
19397TIP3   OH279681   3.857   1.878   0.148  0.1207 -0.4499 -0.1241
19397TIP3    H179682   3.790   1.810   0.150 -1.3519  0.9237  1.7155
19397TIP3    H279683   3.809   1.958   0.128  1.2539  0.5213  0.8516
19398TIP3   OH279684   3.969   4.208  11.012  0.0720  0.4135  0.3452
19398TIP3    H179685   3.884   4.167  10.993  1.0083 -1.0488 -0.8487
19398TIP3    H279686   3.994   4.172  11.097 -0.3158  0.5408  0.5156
19399TIP3   OH279687   3.608   0.762  16.163  0.2313  0.0468 -0.1104
19399TIP3    H179688   3.656   0.683  16.187 -1.3220 -1.0673 -0.5390
19399TIP3    H279689   3.544   0.733  16.099 -0.3629  1.6716 -0.3054
19400TIP3   OH279690   5.413   1.476  11.748  0.3868  0.5537 -0.3366
19400TIP3    H179691   5.442   1.386  11.768 -0.9601  0.2518  0.3212
19400TIP3    H279692   5.321   1.467  11.724  0.5973  1.6023 -1.6485
19401TIP3   OH279693   4.580   0.696  17.118 -0.1241  0.0797  0.6056
19401TIP3    H179694   4.607   0.772  17.068  0.8051 -0.0017  0.9643
19401TIP3    H279695   4.560   0.629  17.052  0.7064  0.1005  0.3234
19402TIP3   OH279696   0.247   1.926  16.226 -0.5670 -0.2237 -0.0629
19402TIP3    H179697   0.211   1.846  16.189  0.2598 -0.2126 -0.9377
19402TIP3    H279698   0.321   1.897  16.279  0.6557  0.0252 -1.5475
19403TIP3   OH279699   3.168   1.469   0.675  0.2417 -0.3921 -0.0279
19403TIP3    H179700   3.261   1.465   0.700  0.1700  0.9038  0.5384
19403TIP3    H279701   3.168   1.452   0.581  0.9645 -1.2280  0.1079
19404TIP3   OH279702   2.928   5.312   2.229 -0.2652  0.3866 -0.1642
19404TIP3    H179703   2.979   5.311   2.310 -2.0137 -1.5116  1.0292
19404TIP3    H279704   2.846   5.356   2.253 -1.4592 -1.6035 -0.3844
19405TIP3   OH279705   2.126   1.050   3.661  0.1712 -0.6318 -0.0982
19405TIP3    H179706   2.138   1.065   3.567  0.9519 -1.2762 -0.1093
19405TIP3    H279707   2.205   1.004   3.688 -0.8420 -2.0560  0.5276
19406TIP3   OH279708   5.126   3.962   4.836 -0.1301 -0.2986 -0.2936
19406TIP3    H179709   5.158   3.993   4.752 -0.7481  1.2148 -0.0068
19406TIP3    H279710   5.183   4.002   4.901 -0.0310 -0.9673  0.0488
19407TIP3   OH279711   6.045   6.391  13.997  0.2679  0.2622 -0.3302
19407TIP3    H179712   6.108   6.388  13.925  0.4988  1.0838 -0.1785
19407TIP3    H279713   5.989   6.315  13.984  1.5347 -0.7135 -0.2456
19408TIP3   OH279714   3.333   5.371  15.129  0.4873 -0.4899 -0.0770
19408TIP3    H179715   3.411   5.325  15.097  0.8786  1.4664 -2.1699
19408TIP3    H279716   3.367   5.441  15.185  0.1413 -0.3775 -0.0017
19409TIP3   OH279717   1.777   4.627   2.123 -0.4210 -0.3283 -0.3801
19409TIP3    H179718   1.711   4.626   2.192 -0.4156  0.2460 -0.3555
19409TIP3    H279719   1.782   4.719   2.097 -0.0011 -0.4493 -0.7386
19410TIP3   OH279720   5.893   0.160   3.310 -0.1141 -0.3996 -0.1531
19410TIP3    H179721   5.912   0.067   3.293 -1.6487 -0.9031  0.7626
19410TIP3    H279722   5.807   0.160   3.351 -0.8117  1.5663 -1.5077
19411TIP3   OH279723   2.007   1.100  14.250 -0.4783  0.1233 -0.0446
19411TIP3    H179724   1.972   1.109  14.338 -3.2272  1.3010 -1.1304
19411TIP3    H279725   1.929   1.097  14.194  1.1579 -0.6851 -2.4296
19412TIP3   OH279726   1.305   0.865  15.863  0.7544 -0.5462  0.6161
19412TIP3    H179727   1.210   0.878  15.853  0.7582 -0.2995  0.8706
19412TIP3    H279728   1.313   0.788  15.918  0.7172 -1.1829 -0.2557
19413TIP3   OH279729   2.626   1.267   4.547 -0.5431  0.6603  0.2551
19413TIP3    H179730   2.596   1.357   4.530 -0.1773  0.8628  0.6699
19413TIP3    H279731   2.718   1.277   4.570 -0.6929  0.2564  1.0462
19414TIP3   OH279732   2.676   6.815  11.308  0.2075  0.3095  0.3942
19414TIP3    H179733   2.744   6.881  11.294  0.4974 -0.3206 -1.5312
19414TIP3    H279734   2.715   6.734  11.275 -1.5587 -0.0100 -1.0765
19415TIP3   OH279735   3.779   4.247  15.231 -0.1995  0.2608 -0.1734
19415TIP3    H179736   3.816   4.335  15.235 -1.3914  0.7626  0.3157
19415TIP3    H279737   3.820   4.200  15.304  2.0634 -0.3016 -1.6807
19416TIP3   OH279738   1.525   1.353  13.433  0.2970  0.3884 -0.2191
19416TIP3    H179739   1.584   1.331  13.361  1.3181 -0.2130  0.7596
19416TIP3    H279740   1.531   1.448  13.441  1.3433  0.3163  0.0080
19417TIP3   OH279741   5.694   3.941  15.927 -0.2039 -0.0917  0.1634
19417TIP3    H179742   5.776   3.942  15.878 -0.4468 -0.4623 -0.2452
19417TIP3    H279743   5.633   3.891  15.873 -2.0129  3.6876 -1.6609
19418TIP3   OH279744   2.777   0.768   6.016 -0.0961 -0.5247 -0.1152
19418TIP3    H179745   2.798   0.754   5.924  1.2454 -0.3224  0.1327
19418TIP3    H279746   2.709   0.835   6.016 -0.2403 -0.6563 -0.9525
19419TIP3   OH279747   4.982   6.535  14.303  0.0407  0.3992 -0.1658
19419TIP3    H179748   4.993   6.467  14.236 -0.6894  1.6798 -1.6394
19419TIP3    H279749   5.013   6.494  14.383  0.6710 -1.2979 -1.2183
19420TIP3   OH279750   6.437   4.048  10.938 -0.5376  0.3367 -0.2553
19420TIP3    H179751   6.355   4.047  10.889  0.0045  4.7876 -1.7088
19420TIP3    H279752   6.499   4.092  10.880  1.8892  0.3659  2.1511
19421TIP3   OH279753   0.087   2.438   5.778  0.5307 -0.3430  0.1513
19421TIP3    H179754   0.099   2.529   5.749 -0.4457 -0.2057  0.1607
19421TIP3    H279755   0.030   2.445   5.855  0.6340 -0.9513  0.2837
19422TIP3   OH279756   3.120   4.387  11.573 -0.0725 -0.0239  0.0992
19422TIP3    H179757   3.066   4.308  11.579  2.0226 -1.5996 -0.8551
19422TIP3    H279758   3.184   4.368  11.506  0.2107  2.7326 -0.5400
19423TIP3   OH279759   4.074   5.022   5.781  0.1999 -0.5592 -0.0177
19423TIP3    H179760   3.987   4.992   5.806 -0.1488  0.2664 -0.2109
19423TIP3    H279761   4.060   5.109   5.745  1.1788 -0.1757  0.4992
19424TIP3   OH279762   4.511   0.766  16.357 -0.3301  0.0981 -0.2740
19424TIP3    H179763   4.440   0.709  16.386 -1.3271  0.6463 -1.5330
19424TIP3    H279764   4.469   0.851  16.341  0.7559  0.6510 -0.3112
19425TIP3   OH279765   6.356   2.937  16.515  0.3621  0.4302  0.8983
19425TIP3    H179766   6.264   2.939  16.542 -0.1987 -1.9662 -0.4863
19425TIP3    H279767   6.358   2.982  16.430  0.0700 -0.9582  0.1151
19426TIP3   OH279768   4.801   1.764  12.294  0.0372  0.3127  0.2020
19426TIP3    H179769   4.813   1.764  12.389  0.0086  0.9929  0.2139
19426TIP3    H279770   4.707   1.750  12.282 -0.0721  0.9150  0.3037
19427TIP3   OH279771   1.017   3.091   3.155  0.6922 -0.3733 -0.6989
19427TIP3    H179772   1.039   3.112   3.246 -2.1223  0.2812 -0.0631
19427TIP3    H279773   1.035   2.997   3.148  2.3497 -0.1498  0.0412
19428TIP3   OH279774   6.523   4.256  15.076 -0.2840 -0.0482  0.0432
19428TIP3    H179775   6.533   4.219  15.163 -1.4561  0.6791  0.5183
19428TIP3    H279776   6.447   4.210  15.039 -1.3379  1.3538  0.3831
19429TIP3   OH279777   1.230   0.179  16.362 -0.5173 -0.2939 -0.0151
19429TIP3    H179778   1.205   0.266  16.395  0.8265  0.2785 -0.4180
19429TIP3    H279779   1.241   0.192  16.268  2.3823 -0.1540  0.2550
19430TIP3   OH279780   0.893   4.847   2.079  0.0447  0.4058  0.0172
19430TIP3    H179781   0.952   4.915   2.111  0.8223  0.3676 -1.2632
19430TIP3    H279782   0.949   4.791   2.024 -0.1926 -2.1563  2.1565
19431TIP3   OH279783   2.582   3.794   4.101 -0.4044  0.1413 -0.3553
19431TIP3    H179784   2.564   3.738   4.026 -0.1094  0.1759 -0.4554
19431TIP3    H279785   2.667   3.764   4.133 -0.9070 -0.4313  0.4820
19432TIP3   OH279786   1.064   4.894  11.665  0.0592  0.0145 -0.8644
19432TIP3    H179787   1.157   4.878  11.679  0.1553  1.0238 -0.3057
19432TIP3    H279788   1.022   4.810  11.684  0.6278  0.1435  1.2564
19433TIP3   OH279789   5.727   2.163   4.032 -0.5913 -0.4707 -0.1433
19433TIP3    H179790   5.650   2.190   3.982 -0.4771  1.2389  0.5332
19433TIP3    H279791   5.748   2.239   4.086  0.6412 -1.4646  0.8368
19434TIP3   OH279792   5.281   3.187   3.344  0.3080  0.0797  0.1598
19434TIP3    H179793   5.229   3.228   3.414  0.4469 -1.1907  1.0477
19434TIP3    H279794   5.325   3.261   3.301 -0.4828  0.9784  0.8262
19435TIP3   OH279795   6.384   6.242  16.349 -0.8496  0.0352 -0.1653
19435TIP3    H179796   6.374   6.166  16.291  0.2978  0.1671 -0.5722
19435TIP3    H279797   6.414   6.205  16.432  1.6447  0.1333 -0.9335
19436TIP3   OH279798   2.725   6.103  16.025  0.1808  0.1780  0.1394
19436TIP3    H179799   2.744   6.012  16.047 -0.4952  0.4064  1.8195
19436TIP3    H279800   2.723   6.148  16.109 -0.9678  1.4618 -0.5290
19437TIP3   OH279801   2.977   6.798  16.944 -0.5429  0.4131  0.1370
19437TIP3    H179802   2.946   6.868  17.001 -2.1238 -1.4936  1.7953
19437TIP3    H279803   2.968   6.719  16.997 -0.0130 -1.2023 -2.0612
19438TIP3   OH279804   2.430   5.670   5.593 -0.2156  0.3427 -0.2576
19438TIP3    H179805   2.478   5.749   5.570  0.9492 -0.4591 -0.6441
19438TIP3    H279806   2.408   5.629   5.510  0.1583 -0.3088 -0.0424
19439TIP3   OH279807   5.301   5.060  10.747 -0.3122 -0.1153 -0.4293
19439TIP3    H179808   5.257   5.092  10.668  0.5671  1.3206 -0.3594
19439TIP3    H279809   5.293   4.964  10.741 -2.3453  0.0354 -1.0306
19440TIP3   OH279810   4.521   6.656   4.244  0.0776 -0.0113  0.0435
19440TIP3    H179811   4.450   6.655   4.180  0.0537  0.9211  0.0387
19440TIP3    H279812   4.586   6.595   4.208  0.5651  1.3088 -1.4927
19441TIP3   OH279813   3.767   5.801  12.186  0.5820  0.2537 -0.0758
19441TIP3    H179814   3.819   5.866  12.138 -1.5935  0.3649 -2.4438
19441TIP3    H279815   3.769   5.723  12.132  1.0255 -0.8872  1.4997
19442TIP3   OH279816   3.785   1.410  11.811  0.1483 -0.4664 -0.3085
19442TIP3    H179817   3.834   1.329  11.825  0.2443 -0.6503 -1.6299
19442TIP3    H279818   3.845   1.467  11.763 -0.6317 -0.3926 -1.2256
19443TIP3   OH279819   3.610   1.981   2.499  0.4223  0.3972 -0.3313
19443TIP3    H179820   3.652   2.036   2.565 -0.2524 -0.0838  0.5166
19443TIP3    H279821   3.659   1.898   2.504 -0.1725  0.0672  0.1863
19444TIP3   OH279822   5.040   5.980  11.619 -0.0858 -0.6749  0.3861
19444TIP3    H179823   4.957   6.017  11.649 -0.0079 -0.4418  0.3216
19444TIP3    H279824   5.105   6.047  11.640 -0.2240  0.1594 -1.5920
19445TIP3   OH279825   0.118   4.100   2.618 -0.0955  0.5093 -0.5131
19445TIP3    H179826   0.101   4.180   2.668  1.0030  0.5689 -0.1922
19445TIP3    H279827   0.196   4.121   2.566 -1.1238  0.4005 -2.1641
19446TIP3   OH279828   1.442   6.685   2.170  0.2261  0.5926 -0.5973
19446TIP3    H179829   1.372   6.637   2.124 -0.4949  1.0912 -0.0392
19446TIP3    H279830   1.523   6.645   2.138 -0.3457 -1.2426  0.0794
19447TIP3   OH279831   6.073   6.068  13.446  0.2664  0.3406 -0.0731
19447TIP3    H179832   6.058   6.162  13.452  0.2303  0.4312 -1.2243
19447TIP3    H279833   6.105   6.055  13.356  0.2851 -0.7391  0.0766
19448TIP3   OH279834   4.902   4.818   3.379  0.2941 -0.1444 -0.3117
19448TIP3    H179835   4.921   4.772   3.460  2.1260  0.6595 -0.2246
19448TIP3    H279836   4.926   4.756   3.310  1.7858  0.2771 -0.2005
19449TIP3   OH279837   4.051   4.805  13.220  0.3176 -0.2799  0.2945
19449TIP3    H179838   4.136   4.848  13.207  1.7038 -2.8223  0.1023
19449TIP3    H279839   4.032   4.765  13.135  0.1438 -1.6603  0.9522
19450TIP3   OH279840   6.197   5.765   3.529 -0.3041  0.5580  0.3491
19450TIP3    H179841   6.127   5.825   3.503 -1.4850  0.5251  3.0551
19450TIP3    H279842   6.170   5.680   3.495  0.5418  1.1609 -2.0680
19451TIP3   OH279843   3.937   0.199   3.330 -0.3556  0.0193 -0.0759
19451TIP3    H179844   4.031   0.208   3.314 -0.6725  2.5045 -1.0602
19451TIP3    H279845   3.926   0.110   3.363  2.1811 -0.7163 -1.0017
19452TIP3   OH279846   4.675   6.830   1.080 -0.5181 -0.6501  0.1633
19452TIP3    H179847   4.585   6.821   1.050 -0.4557 -0.7057 -0.0065
19452TIP3    H279848   4.676   6.909   1.133 -0.3992  0.0053 -0.8031
19453TIP3   OH279849   5.249   2.745  14.003  0.1823  0.0051  0.8718
19453TIP3    H179850   5.300   2.664  14.001  0.5248  0.2118 -2.0171
19453TIP3    H279851   5.230   2.758  14.096  0.4377 -3.1599  1.4890
19454TIP3   OH279852   5.501   6.344  13.494 -0.1266  0.2485  0.3322
19454TIP3    H179853   5.515   6.334  13.400  1.2249  1.0176  0.4242
19454TIP3    H279854   5.519   6.436  13.511  0.4778 -0.0623  1.4682
19455TIP3   OH279855   0.123   2.058   0.756 -0.0369  0.3172 -0.0462
19455TIP3    H179856   0.062   2.083   0.686 -1.9301 -1.5439  0.8300
19455TIP3    H279857   0.168   2.140   0.779 -0.8431  1.3848 -1.9974
19456TIP3   OH279858   3.471   1.610  10.903 -0.1031  0.1096 -0.2503
19456TIP3    H179859   3.462   1.517  10.882 -0.5612  0.4200 -1.5212
19456TIP3    H279860   3.427   1.656  10.831  2.1145  1.3806 -0.8979
19457TIP3   OH279861   3.959   2.972  10.845 -0.8965 -0.2745  0.0790
19457TIP3    H179862   3.922   3.018  10.770 -0.0372  2.0004  0.9455
19457TIP3    H279863   3.906   3.001  10.919  1.6610  2.1156  1.1588
19458TIP3   OH279864   6.512   2.315  12.775 -0.0838 -0.0904  0.2115
19458TIP3    H179865   6.592   2.270  12.804 -0.6921 -0.6327  1.0837
19458TIP3    H279866   6.544   2.394  12.732  0.9022  0.0773  1.2124
19459TIP3   OH279867   6.323   0.388  11.120 -0.4189  0.3778 -0.1460
19459TIP3    H179868   6.298   0.429  11.038  1.3019  0.8693 -0.4717
19459TIP3    H279869   6.315   0.457  11.186 -0.2989  0.4243 -0.1801
19460TIP3   OH279870   1.714   2.162   3.648  0.2704 -0.5339  0.3081
19460TIP3    H179871   1.668   2.223   3.705  0.1869 -0.1620 -0.1532
19460TIP3    H279872   1.755   2.099   3.708  0.1181 -0.1954  0.7711
19461TIP3   OH279873   5.501   2.615  14.915  0.3741  0.2748  0.4103
19461TIP3    H179874   5.476   2.697  14.872 -1.1090  0.1522  0.9662
19461TIP3    H279875   5.545   2.642  14.995 -0.9337  0.5767  1.0592
19462TIP3   OH279876   5.472   2.890  13.899  0.5300 -0.1108 -0.8575
19462TIP3    H179877   5.537   2.827  13.929  0.2052 -0.1201 -0.1638
19462TIP3    H279878   5.389   2.855  13.931  0.0062 -0.7422 -2.7343
19463TIP3   OH279879   2.745   2.124  14.929  0.0313  0.1216 -0.2098
19463TIP3    H179880   2.820   2.093  14.979  0.1153 -0.4385 -0.6687
19463TIP3    H279881   2.753   2.219  14.930  0.8180  0.0654 -0.3510
19464TIP3   OH279882   6.277   5.367   2.363 -0.0425 -0.6856 -0.1043
19464TIP3    H179883   6.260   5.330   2.450 -0.4520  1.8047  0.9960
19464TIP3    H279884   6.192   5.365   2.319 -0.0385 -1.1307 -0.0955
19465TIP3   OH279885   6.701   3.516  14.967 -0.1393  0.3387  0.3119
19465TIP3    H179886   6.706   3.437  15.021 -3.2555 -0.4342 -0.3074
19465TIP3    H279887   6.774   3.570  14.996  0.2239 -1.4073  3.0057
19466TIP3   OH279888   1.871   0.043   0.874 -0.8701 -0.0424  0.1858
19466TIP3    H179889   1.923   0.046   0.794 -1.4684  0.5704 -0.2036
19466TIP3    H279890   1.826   0.128   0.876 -0.8708 -0.0550  1.1685
19467TIP3   OH279891   5.605   3.436  16.621  0.5698 -0.1480 -0.6102
19467TIP3    H179892   5.628   3.349  16.655  2.1298 -0.2924 -1.9031
19467TIP3    H279893   5.571   3.420  16.534 -2.3894  0.3143  0.3591
19468TIP3   OH279894   1.837   5.498  12.308 -0.0124 -0.1131 -0.2533
19468TIP3    H179895   1.789   5.415  12.304 -0.3984  0.1167 -0.4837
19468TIP3    H279896   1.773   5.560  12.342  0.7979 -0.2789  1.7285
19469TIP3   OH279897   3.952   3.325   4.082  0.3428 -0.2110  0.0383
19469TIP3    H179898   3.974   3.348   4.172 -0.2692  0.8786 -0.0777
19469TIP3    H279899   4.032   3.338   4.033  0.7539 -1.0623  0.4528
19470TIP3   OH279900   2.103   1.650  14.819 -0.1135  0.5431 -0.3873
19470TIP3    H179901   2.146   1.733  14.840 -0.0892  0.7525 -1.2093
19470TIP3    H279902   2.049   1.631  14.895  1.6995  0.0828  0.8565
19471TIP3   OH279903   4.427   3.140  15.252 -0.1476 -0.2561 -0.2764
19471TIP3    H179904   4.351   3.120  15.307 -0.0770  0.7375  0.2008
19471TIP3    H279905   4.499   3.089  15.290 -0.2756 -0.1737  0.0787
19472TIP3   OH279906   4.682   6.704  14.343 -0.2577  0.0818 -0.1534
19472TIP3    H179907   4.690   6.665  14.430 -0.6844  0.2654 -0.0252
19472TIP3    H279908   4.590   6.732  14.339  0.1269  1.4014 -0.0933
19473TIP3   OH279909   1.934   2.964   1.429 -0.4922  0.1839 -0.6805
19473TIP3    H179910   1.950   3.042   1.377  0.3826  0.3184 -0.2361
19473TIP3    H279911   1.958   2.989   1.518 -0.5179 -0.4897 -0.4746
19474TIP3   OH279912   3.865   3.618   4.235 -0.1539  0.0431  0.4363
19474TIP3    H179913   3.906   3.600   4.319 -1.9376 -0.4470  1.2299
19474TIP3    H279914   3.938   3.642   4.178  1.0624  0.6849  2.1784
19475TIP3   OH279915   6.024   5.736   1.579 -0.4941 -0.4717  0.2945
19475TIP3    H179916   6.063   5.694   1.655  0.2070 -1.4156 -0.5573
19475TIP3    H279917   6.092   5.795   1.546 -1.2585  0.9370  1.1316
19476TIP3   OH279918   6.157   0.441   5.689  0.1019 -0.4991 -0.1162
19476TIP3    H179919   6.248   0.420   5.665  0.3858 -1.2266  1.4425
19476TIP3    H279920   6.165   0.508   5.757 -0.6461  1.0035 -1.4405
19477TIP3   OH279921   3.346   6.452   2.465 -0.3791 -0.3903 -0.1968
19477TIP3    H179922   3.273   6.455   2.404  0.1530 -1.3465 -0.8892
19477TIP3    H279923   3.361   6.544   2.488 -0.0746  0.0733 -2.1090
19478TIP3   OH279924   2.531   4.678   0.650  0.1420 -0.4314  0.3763
19478TIP3    H179925   2.518   4.720   0.565  0.2336 -0.0625  0.5391
19478TIP3    H279926   2.504   4.745   0.713  1.1425 -0.2887  0.6685
19479TIP3   OH279927   3.915   2.214  15.076  0.5292  0.1613  0.3126
19479TIP3    H179928   3.966   2.261  15.010  0.6355 -1.9396 -1.2047
19479TIP3    H279929   3.937   2.258  15.158  0.3151  2.9341 -1.0034
19480TIP3   OH279930   0.884   0.336   0.350  0.4830 -0.0236 -0.3285
19480TIP3    H179931   0.868   0.395   0.276  1.1911  0.2691 -0.2601
19480TIP3    H279932   0.915   0.394   0.420 -0.2220 -0.2922  0.2187
19481TIP3   OH279933   3.326   2.590   6.024 -0.0683  0.3911  0.0939
19481TIP3    H179934   3.325   2.674   6.071 -0.4498  0.0579  0.6930
19481TIP3    H279935   3.347   2.526   6.091  0.2686  0.0049 -0.3744
19482TIP3   OH279936   5.372   2.399  16.028 -0.0193 -0.1203 -0.1146
19482TIP3    H179937   5.393   2.326  15.971 -1.3128  0.0218 -0.8158
19482TIP3    H279938   5.278   2.392  16.043  0.2928 -0.2710  2.1849
19483TIP3   OH279939   1.423   2.682   2.869  0.7859 -0.0247 -0.7553
19483TIP3    H179940   1.511   2.705   2.840  1.3374  0.2322  1.0012
19483TIP3    H279941   1.423   2.702   2.962 -1.0240 -0.3877 -0.6460
19484TIP3   OH279942   2.084   5.098  16.550 -0.2799  0.2246  0.0350
19484TIP3    H179943   2.095   5.081  16.457 -1.9396  0.5042 -0.2413
19484TIP3    H279944   2.078   5.194  16.557 -0.8411  0.1738  0.3314
19485TIP3   OH279945   1.620   5.805   0.106  0.1567  0.0574 -0.5647
19485TIP3    H179946   1.715   5.810   0.118 -0.0452  1.0546  0.8987
19485TIP3    H279947   1.590   5.894   0.120 -0.8390  0.1952 -3.0122
19486TIP3   OH279948   1.159   0.137  11.571  0.4454 -0.3554 -0.5324
19486TIP3    H179949   1.215   0.193  11.518  0.7066 -0.7190 -0.6431
19486TIP3    H279950   1.090   0.108  11.511 -0.3691  0.7830 -0.1842
19487TIP3   OH279951   2.797   0.709  11.261  0.1195 -0.4059  0.3704
19487TIP3    H179952   2.706   0.702  11.231  0.1563 -1.0108  0.3853
19487TIP3    H279953   2.793   0.765  11.338 -0.3174 -0.8202  0.6565
19488TIP3   OH279954   0.099   6.362  13.463 -0.2606 -0.1213  0.1817
19488TIP3    H179955   0.156   6.316  13.525  0.6439  3.5179  2.4153
19488TIP3    H279956   0.131   6.453  13.465 -3.7030  1.3040 -1.4990
19489TIP3   OH279957   4.914   1.265  11.302  0.5310  0.0062  0.7761
19489TIP3    H179958   4.837   1.213  11.280 -0.6363  2.3782 -1.3264
19489TIP3    H279959   4.883   1.327  11.369  0.7658  0.5499  0.3925
19490TIP3   OH279960   3.935   5.071   4.501 -0.2677  0.0209  0.0620
19490TIP3    H179961   4.025   5.041   4.494 -0.1736 -0.2124  1.8349
19490TIP3    H279962   3.886   4.995   4.530 -0.7943  0.4899  0.4251
19491TIP3   OH279963   5.809   4.184  11.414 -0.2434 -0.0748  0.1919
19491TIP3    H179964   5.830   4.216  11.326 -0.4884  0.4978  0.3379
19491TIP3    H279965   5.829   4.090  11.411  2.3546  0.3918  0.3339
19492TIP3   OH279966   1.958   3.797   3.721  0.1043 -0.4797  0.4289
19492TIP3    H179967   1.955   3.893   3.718 -0.2698 -0.4593  1.3667
19492TIP3    H279968   1.934   3.775   3.811  0.9950 -1.4225  0.4499
19493TIP3   OH279969   0.906   1.551  13.822 -0.2201  0.0639 -0.0515
19493TIP3    H179970   0.915   1.502  13.904  0.7989 -0.2292 -0.3240
19493TIP3    H279971   0.880   1.485  13.758 -0.1934  0.1361 -0.1358
19494TIP3   OH279972   0.746   3.852  13.729  0.1090  0.5414 -0.4917
19494TIP3    H179973   0.694   3.856  13.810  0.9544 -1.0047  0.1720
19494TIP3    H279974   0.787   3.938  13.722 -2.1599  1.6648 -0.8143
19495TIP3   OH279975   5.439   3.367   5.704  0.3731  0.2646  0.0951
19495TIP3    H179976   5.346   3.381   5.687  0.5542  1.2377 -0.1779
19495TIP3    H279977   5.470   3.451   5.739  1.4867  0.5185 -1.3894
19496TIP3   OH279978   2.207   1.251  12.938 -0.7297  0.0954 -0.1247
19496TIP3    H179979   2.239   1.291  12.857 -2.7660  0.3096 -0.8686
19496TIP3    H279980   2.233   1.311  13.007  0.5521  0.1836 -0.6563
19497TIP3   OH279981   1.218   0.557  14.496 -0.1511 -0.2604 -0.0769
19497TIP3    H179982   1.177   0.524  14.575 -2.6180  1.0971 -0.6870
19497TIP3    H279983   1.180   0.505  14.425  0.1101  0.2167 -0.5779
19498TIP3   OH279984   3.513   0.465  11.377 -0.6799 -0.9775 -0.2396
19498TIP3    H179985   3.490   0.385  11.329 -2.7826 -0.8370  0.4237
19498TIP3    H279986   3.428   0.502  11.403  0.1497  2.3190 -1.8201
19499TIP3   OH279987   3.113   4.952   4.812 -0.4015 -0.0672  0.2664
19499TIP3    H179988   3.118   4.917   4.901  0.4259 -0.8626 -0.0813
19499TIP3    H279989   3.108   4.875   4.756  0.5268  0.3785 -0.4597
19500TIP3   OH279990   6.254   2.157  10.508  0.3597  0.2238  0.5572
19500TIP3    H179991   6.173   2.208  10.501  0.5381  0.3464 -1.3644
19500TIP3    H279992   6.323   2.223  10.509  0.5134  0.0745  0.0008
19501TIP3   OH279993   6.097   2.535   1.685 -0.2032  0.2548 -0.3238
19501TIP3    H179994   6.185   2.527   1.648 -0.5940 -0.7364 -1.0766
19501TIP3    H279995   6.111   2.561   1.776  0.9142 -0.8358 -0.1578
19502TIP3   OH279996   4.507   4.600  14.239 -0.7080  0.2114  0.3035
19502TIP3    H179997   4.593   4.616  14.278 -0.8555 -0.5599  0.9735
19502TIP3    H279998   4.451   4.669  14.275  0.1405  2.3374 -2.0961
19503TIP3   OH279999   3.294   3.199   5.001 -0.3608  0.2807 -0.2966
19503TIP3    H180000   3.224   3.240   5.052  0.0608  0.5144  0.1008
19503TIP3    H280001   3.255   3.119   4.967 -0.6569  0.1312  0.3744
19504TIP3   OH280002   1.228   1.307  13.053  0.6068 -0.0037 -0.6689
19504TIP3    H180003   1.200   1.387  13.009  1.1348  2.1114  2.5267
19504TIP3    H280004   1.153   1.281  13.107  0.6880 -1.3077 -1.1403
19505TIP3   OH280005   4.522   1.451   1.638  0.2942 -0.9556  0.2473
19505TIP3    H180006   4.451   1.490   1.690 -0.1924 -1.2796 -0.1625
19505TIP3    H280007   4.561   1.526   1.592 -1.2923 -1.0176 -1.3323
19506TIP3   OH280008   0.247   4.678   4.953 -0.5124 -0.5891  0.3018
19506TIP3    H180009   0.190   4.668   4.876  1.1928  0.0709 -1.1124
19506TIP3    H280010   0.188   4.709   5.022 -2.1114 -1.2479 -0.6890
19507TIP3   OH280011   3.092   5.996  12.478  0.1222  0.1828 -0.3627
19507TIP3    H180012   3.124   6.083  12.454  0.6340 -0.3693 -1.7879
19507TIP3    H280013   3.150   5.936  12.432 -2.4436 -0.8878 -2.4729
19508TIP3   OH280014   5.699   4.258  12.999 -0.8782 -0.0891  0.1679
19508TIP3    H180015   5.634   4.296  12.940 -1.3699 -0.8729  0.1817
19508TIP3    H280016   5.665   4.170  13.017 -0.0134 -0.3602  0.4981
19509TIP3   OH280017   2.280   0.479   0.965 -0.2964 -0.1556 -0.0217
19509TIP3    H180018   2.281   0.398   0.915 -0.8118  0.0061 -0.3007
19509TIP3    H280019   2.192   0.484   1.002  0.0076 -0.1647  0.7390
19510TIP3   OH280020   6.760   4.338   1.133  0.9842 -0.3653 -0.1891
19510TIP3    H180021   6.683   4.362   1.184  1.8619  0.0060  0.9990
19510TIP3    H280022   6.831   4.336   1.196  2.9800  4.1164 -1.8532
19511TIP3   OH280023   3.644   6.799  15.925 -0.0648  0.3535  0.2363
19511TIP3    H180024   3.668   6.708  15.945  0.6499  0.4435 -0.1844
19511TIP3    H280025   3.561   6.812  15.971 -0.7812 -0.8728 -0.6237
19512TIP3   OH280026   1.374   2.156   1.812  0.4639 -0.0450 -0.1910
19512TIP3    H180027   1.321   2.214   1.867 -2.8349 -0.1052 -2.9754
19512TIP3    H280028   1.317   2.082   1.792  2.2035 -0.9985 -2.0302
19513TIP3   OH280029   4.464   5.801   0.195 -0.7651 -0.0629  0.7847
19513TIP3    H180030   4.395   5.843   0.143  1.0700  0.2620 -1.5444
19513TIP3    H280031   4.505   5.873   0.243 -0.8842  0.0251  0.7550
19514TIP3   OH280032   2.690   6.621  16.319  0.6800 -0.1943  0.5414
19514TIP3    H180033   2.679   6.714  16.338  2.0697 -0.1900  1.4812
19514TIP3    H280034   2.616   6.579  16.362  0.0476  0.4708  0.1223
19515TIP3   OH280035   1.088   0.679   4.400 -0.2206  0.2699 -0.4563
19515TIP3    H180036   0.996   0.695   4.379 -0.4989  0.3753  0.7680
19515TIP3    H280037   1.090   0.672   4.495  0.4753 -3.2476 -0.5989
19516TIP3   OH280038   5.379   4.375   1.211 -0.1221  0.1250  0.2927
19516TIP3    H180039   5.335   4.459   1.222  0.7227  0.5854  0.2088
19516TIP3    H280040   5.309   4.310   1.221 -1.1543  0.8789 -1.6571
19517TIP3   OH280041   2.165   4.270  15.347 -0.0392  0.3927  0.2417
19517TIP3    H180042   2.183   4.210  15.419  1.2886  0.8692  0.3405
19517TIP3    H280043   2.124   4.216  15.279 -1.8633  0.0579  1.5588
19518TIP3   OH280044   4.059   5.916   0.821  0.2930 -0.3826 -0.3172
19518TIP3    H180045   4.008   5.842   0.786  0.2438 -0.2584 -0.5129
19518TIP3    H280046   4.148   5.900   0.790  0.4671 -0.8461  0.4186
19519TIP3   OH280047   0.532   0.436   2.617 -0.0407  0.7129  0.2503
19519TIP3    H180048   0.525   0.490   2.539  0.9014  1.5818  0.7429
19519TIP3    H280049   0.506   0.348   2.588 -0.5887  1.2136 -0.8051
19520TIP3   OH280050   4.301   6.036   5.652 -0.3816  0.2591 -0.6130
19520TIP3    H180051   4.253   6.035   5.735  0.1891 -0.3282 -0.2751
19520TIP3    H280052   4.387   6.070   5.675  0.6122 -2.1518 -0.4414
19521TIP3   OH280053   5.955   6.214  14.616 -0.2463 -0.4203  0.1000
19521TIP3    H180054   6.028   6.273  14.598  0.5743 -1.4069  0.0963
19521TIP3    H280055   5.908   6.207  14.533 -1.0287  1.0663  0.3637
19522TIP3   OH280056   0.059   2.075  13.765  0.4774 -0.2684 -0.8285
19522TIP3    H180057   0.153   2.069  13.785  0.1945 -1.6314  0.1988
19522TIP3    H280058   0.022   2.125  13.838  0.2328 -0.6814 -0.6706
19523TIP3   OH280059   0.191   1.129  12.076 -0.3365 -0.2591 -1.1684
19523TIP3    H180060   0.204   1.121  11.982 -0.5143  0.6640 -1.2768
19523TIP3    H280061   0.100   1.103  12.089 -0.1043 -1.0947 -1.1486
19524TIP3   OH280062   4.273   0.908  16.235  0.3778  0.5139 -0.0120
19524TIP3    H180063   4.195   0.949  16.198  0.9315  1.0209 -0.6473
19524TIP3    H280064   4.261   0.915  16.330 -1.1549 -0.9855 -0.0549
19525TIP3   OH280065   3.333   3.596   5.072  0.5343 -0.2561  0.0380
19525TIP3    H180066   3.352   3.552   5.155  0.0901 -0.0623  0.2467
19525TIP3    H280067   3.242   3.624   5.080  0.7569  0.5516 -0.1586
19526TIP3   OH280068   0.590   2.465  14.584 -0.5057  0.1108 -0.4312
19526TIP3    H180069   0.516   2.468  14.524 -0.5887 -0.0815 -0.3383
19526TIP3    H280070   0.610   2.557  14.602 -0.3792  0.1713 -0.8751
19527TIP3   OH280071   5.705   2.013   2.355  0.0410  0.0104  0.1481
19527TIP3    H180072   5.609   2.013   2.350 -0.1742  1.6508  2.5455
19527TIP3    H280073   5.733   2.058   2.275 -1.1456 -0.5220 -0.6058
19528TIP3   OH280074   3.043   0.071   1.672 -0.1178  0.1806  0.4822
19528TIP3    H180075   3.054  -0.023   1.689 -2.4577 -0.8190 -2.5772
19528TIP3    H280076   2.986   0.101   1.743  1.2049 -0.4526  1.8924
19529TIP3   OH280077   4.271   5.634   2.018 -0.2838  0.4409 -0.3453
19529TIP3    H180078   4.351   5.635   1.966  0.7387 -0.9009  1.1338
19529TIP3    H280079   4.260   5.724   2.049  0.9074  0.5399 -0.1932
19530TIP3   OH280080   1.358   2.493   4.653  0.1697  0.3394 -0.0802
19530TIP3    H180081   1.403   2.498   4.569 -1.0425  0.1899 -0.7608
19530TIP3    H280082   1.341   2.584   4.677 -1.5055  0.3466 -1.1478
19531TIP3   OH280083   1.956   0.819   5.034  0.0084 -0.2262 -0.1938
19531TIP3    H180084   1.945   0.788   4.944 -0.2299 -0.1584 -0.1895
19531TIP3    H280085   2.022   0.887   5.028  1.2993 -1.4127 -0.0555
19532TIP3   OH280086   4.125   3.890  14.075 -0.2079  0.1917 -0.0895
19532TIP3    H180087   4.115   3.828  14.147  0.8397  1.0496  0.8190
19532TIP3    H280088   4.162   3.837  14.004 -4.3818 -1.4901 -1.2949
19533TIP3   OH280089   6.683   4.419   2.711  0.6275 -0.1227  0.3139
19533TIP3    H180090   6.642   4.501   2.682 -0.1393 -0.5038  0.2745
19533TIP3    H280091   6.613   4.374   2.758  1.3796 -0.2383  1.3591
19534TIP3   OH280092   6.530   4.668   2.749 -0.5173 -0.3816  0.1146
19534TIP3    H180093   6.540   4.667   2.844  1.7590  0.3845 -0.0646
19534TIP3    H280094   6.459   4.731   2.734  0.2615  0.8208  1.2492
19535TIP3   OH280095   0.230   1.026  14.558  0.1676 -0.3295  0.5018
19535TIP3    H180096   0.176   1.096  14.521  1.0956  0.7492  1.0916
19535TIP3    H280097   0.250   0.969  14.484 -2.7471 -1.4713  0.4941
19536TIP3   OH280098   0.121   3.109  14.449  0.8283  0.0849  0.0650
19536TIP3    H180099   0.208   3.147  14.440  0.6157  0.7854  0.8878
19536TIP3    H280100   0.136   3.020  14.482  1.1792  0.8698  2.1617
19537TIP3   OH280101   0.332   2.777   2.884 -0.2974  0.6450  0.2455
19537TIP3    H180102   0.376   2.861   2.901 -1.8332  1.7581 -0.9704
19537TIP3    H280103   0.256   2.778   2.942  0.2689 -0.4526  1.0406
19538TIP3   OH280104   1.315   4.527   2.002 -0.2349 -0.0268  0.5360
19538TIP3    H180105   1.257   4.451   2.009  0.4104 -0.4303  1.7305
19538TIP3    H280106   1.377   4.517   2.074 -0.3052  1.7964  0.9070
19539TIP3   OH280107   3.992   3.331   2.895 -0.5127  0.2411 -0.3715
19539TIP3    H180108   3.900   3.341   2.869 -0.5655 -0.5443 -0.5136
19539TIP3    H280109   3.997   3.370   2.982 -0.9183  0.5269 -0.4718
19540TIP3   OH280110   3.831   6.363  14.315 -0.1244 -0.6064 -0.1875
19540TIP3    H180111   3.851   6.288  14.372  1.0583 -0.9808 -1.0660
19540TIP3    H280112   3.795   6.429  14.375 -1.6451 -2.0155  0.5476
19541TIP3   OH280113   5.651   1.913  13.373 -0.2242  0.1645  0.3052
19541TIP3    H180114   5.711   1.932  13.300 -1.6832 -3.5589 -2.1556
19541TIP3    H280115   5.677   1.975  13.441  1.4003  3.8631 -3.2114
19542TIP3   OH280116   0.034   3.808  15.373  0.6147 -0.3200  0.0098
19542TIP3    H180117   0.074   3.783  15.457 -1.7788 -1.5803  0.8891
19542TIP3    H280118   0.010   3.900  15.384  0.8792 -0.3027  0.4781
19543TIP3   OH280119   4.648   5.238  10.784  0.1892  0.1389  1.0386
19543TIP3    H180120   4.646   5.312  10.723  1.9854  0.5583  1.4150
19543TIP3    H280121   4.614   5.164  10.734 -0.9019  1.0379  0.4019
19544TIP3   OH280122   4.742   1.288   5.790 -0.4134  0.0798  0.2996
19544TIP3    H180123   4.685   1.271   5.865  0.2369 -0.8066  0.6046
19544TIP3    H280124   4.682   1.312   5.719 -1.4559 -3.4015 -0.1686
19545TIP3   OH280125   2.318   6.587  11.919 -0.1784  0.0604 -0.1543
19545TIP3    H180126   2.334   6.502  11.960 -1.8728 -0.8986 -1.3702
19545TIP3    H280127   2.394   6.640  11.944  1.5667 -2.1731 -0.3905
19546TIP3   OH280128   5.683   6.127   5.133  0.5173  0.0068 -0.1130
19546TIP3    H180129   5.716   6.071   5.063  0.6090  0.6529 -0.6029
19546TIP3    H280130   5.605   6.168   5.097  0.2764 -0.0367  0.3482
19547TIP3   OH280131   0.049   5.795   3.238 -0.4844  0.1504 -0.1403
19547TIP3    H180132   0.043   5.889   3.256  1.2677  0.8946 -2.7977
19547TIP3    H280133  -0.017   5.755   3.295 -0.4281  2.8234  2.0141
19548TIP3   OH280134   2.708   2.942   3.511  0.1663  0.4168  0.0972
19548TIP3    H180135   2.791   2.942   3.558  1.5036 -0.8878 -2.0755
19548TIP3    H280136   2.648   2.893   3.567  1.6803 -1.0947  0.4971
19549TIP3   OH280137   6.157   4.299  11.337  0.1672  0.5037  0.0470
19549TIP3    H180138   6.136   4.221  11.285 -1.4948  1.0425 -0.1606
19549TIP3    H280139   6.116   4.282  11.422  2.4419 -0.1513  1.0833
19550TIP3   OH280140   0.895   1.712  14.655  0.0243 -0.4923 -0.8723
19550TIP3    H180141   0.971   1.730  14.601  0.8263 -0.6352  0.1692
19550TIP3    H280142   0.824   1.762  14.615  1.4919  2.7900  0.2694
19551TIP3   OH280143   4.512   3.603  14.279  0.0212 -0.5399  0.1301
19551TIP3    H180144   4.505   3.688  14.323 -1.5261 -1.2795  1.4346
19551TIP3    H280145   4.483   3.540  14.345  1.0847 -2.0889 -0.8249
19552TIP3   OH280146   6.655   4.542   5.076 -0.6403  0.0440 -0.6338
19552TIP3    H180147   6.697   4.465   5.038  2.5456  1.5586 -0.5206
19552TIP3    H280148   6.680   4.540   5.168 -1.0251  0.8635 -0.5011
19553TIP3   OH280149   3.356   1.901  14.651 -0.2818 -0.1252 -0.3981
19553TIP3    H180150   3.386   1.986  14.682 -1.0640 -1.0325  3.3136
19553TIP3    H280151   3.429   1.842  14.668 -0.0448 -0.4038 -2.1979
19554TIP3   OH280152   6.394   4.046   2.332  0.4083 -0.0508 -0.0467
19554TIP3    H180153   6.374   4.134   2.299  0.4354 -0.0840 -0.1531
19554TIP3    H280154   6.309   4.004   2.343  0.2631  0.6317  1.8217
19555TIP3   OH280155   3.064   1.153   0.627  0.2785  0.4153 -0.5591
19555TIP3    H180156   3.095   1.083   0.569  0.7129  1.3661 -1.5115
19555TIP3    H280157   3.143   1.187   0.668  0.2186  1.1449 -1.0338
19556TIP3   OH280158   4.853   6.009   1.633  0.1544  0.3529  0.5518
19556TIP3    H180159   4.876   6.042   1.720  1.0350  1.4925 -0.0965
19556TIP3    H280160   4.763   6.039   1.619  0.0026  0.1466  1.0710
19557TIP3   OH280161   3.128   5.521  11.491  0.8460  0.0973 -0.4715
19557TIP3    H180162   3.083   5.604  11.479  0.4209 -0.2896 -1.8160
19557TIP3    H280163   3.062   5.455  11.469  1.7612 -0.5084 -1.4962
19558TIP3   OH280164   3.760   1.649   4.038 -0.3193 -0.4058  0.4768
19558TIP3    H180165   3.770   1.721   4.101 -1.2081 -1.3382  1.7564
19558TIP3    H280166   3.737   1.573   4.093 -4.4296 -0.5974 -1.1745
19559TIP3   OH280167   2.778   3.207   3.393 -0.4469  0.0066 -0.8560
19559TIP3    H180168   2.709   3.272   3.404 -1.4651 -1.0435 -0.9400
19559TIP3    H280169   2.745   3.128   3.436  0.7091 -0.5163 -0.8732
19560TIP3   OH280170   0.530   0.098  10.505  0.1892 -0.2576 -0.5111
19560TIP3    H180171   0.519   0.153  10.427 -3.2486 -0.3388 -0.2586
19560TIP3    H280172   0.509   0.010  10.475  2.3287 -0.9430 -0.1712
19561TIP3   OH280173   3.758   3.294   1.662 -0.3169 -0.5663  0.3634
19561TIP3    H180174   3.686   3.340   1.620 -0.1832  1.0666  1.8133
19561TIP3    H280175   3.716   3.244   1.732 -0.2186 -0.9202  0.1694
19562TIP3   OH280176   2.246   2.836   2.297 -0.0643  1.1043  0.0701
19562TIP3    H180177   2.253   2.894   2.373  1.6148 -0.4277  1.1402
19562TIP3    H280178   2.218   2.752   2.333  0.9141  0.2987 -0.9784
19563TIP3   OH280179   3.957   2.476  12.241 -0.9115  0.2814  0.0458
19563TIP3    H180180   3.916   2.561  12.259 -1.0789  0.3716 -0.7293
19563TIP3    H280181   3.903   2.437  12.173 -0.1066  0.1057 -0.5086
19564TIP3   OH280182   1.968   0.306   0.656  0.9792 -0.2930 -0.9126
19564TIP3    H180183   1.887   0.288   0.608  1.3713  0.3135 -1.8267
19564TIP3    H280184   1.939   0.344   0.739  0.3450  1.0313 -1.7179
19565TIP3   OH280185   1.242   2.634  16.515 -0.2241  0.0160 -0.2046
19565TIP3    H180186   1.202   2.630  16.601  2.3788 -1.5104  1.0495
19565TIP3    H280187   1.213   2.555  16.470  1.8704 -1.5643  1.0371
19566TIP3   OH280188   5.617   2.624   4.403  0.4464  0.5145 -0.7380
19566TIP3    H180189   5.572   2.654   4.324 -2.0072 -0.4001  0.2073
19566TIP3    H280190   5.621   2.529   4.394 -0.4875  0.3299  0.5030
19567TIP3   OH280191   4.602   4.507   4.662  0.0566  0.3035 -0.3414
19567TIP3    H180192   4.570   4.468   4.581  1.0638  1.5212 -1.3868
19567TIP3    H280193   4.665   4.443   4.696 -0.1832 -0.1093 -0.6625
19568TIP3   OH280194   3.184   6.363  10.758  0.0355 -0.0404  0.2641
19568TIP3    H180195   3.191   6.434  10.694 -0.2376  0.2068  0.4997
19568TIP3    H280196   3.130   6.297  10.716 -2.9029  1.4516  1.3397
19569TIP3   OH280197   1.434   2.127  16.539 -0.1977  0.0303 -0.5463
19569TIP3    H180198   1.524   2.158  16.548 -0.4158  0.5706 -0.1524
19569TIP3    H280199   1.442   2.033  16.528  0.3684 -0.0740  0.6258
19570TIP3   OH280200   2.546   3.888  15.276 -0.5460 -0.5210  0.0270
19570TIP3    H180201   2.626   3.916  15.230 -0.9192 -1.1938 -1.0698
19570TIP3    H280202   2.541   3.794  15.261 -1.1462 -0.6122  0.7412
19571TIP3   OH280203   5.993   4.399  17.137  0.0757  0.2398  0.1754
19571TIP3    H180204   5.998   4.332  17.069 -2.2176 -0.5426  0.6980
19571TIP3    H280205   5.903   4.394  17.170  0.6926  1.5495  2.2978
19572TIP3   OH280206   1.986   4.998  11.784 -0.1519  0.2830 -0.2174
19572TIP3    H180207   1.900   4.956  11.785 -0.4820  0.8978 -1.2590
19572TIP3    H280208   1.979   5.067  11.718  0.8893  0.8901  0.2700
19573TIP3   OH280209   4.510   5.823   4.125  0.6302 -0.5283 -0.1105
19573TIP3    H180210   4.520   5.863   4.211  0.4115  0.8910 -0.7116
19573TIP3    H280211   4.453   5.883   4.078 -0.4774 -2.0444 -0.7784
19574TIP3   OH280212   1.843   0.861  11.754 -0.0753  0.1871  0.0003
19574TIP3    H180213   1.907   0.927  11.780  0.8707 -1.6331  2.8173
19574TIP3    H280214   1.807   0.829  11.837 -1.8432 -1.5389 -1.3343
19575TIP3   OH280215   6.457   3.335  14.825  0.1739  0.1146 -0.1163
19575TIP3    H180216   6.443   3.418  14.871 -1.7668  0.3451 -1.0265
19575TIP3    H280217   6.510   3.283  14.886  0.8220  1.7491  0.7712
19576TIP3   OH280218   5.171   1.947   2.694  0.0963 -0.8077  0.2684
19576TIP3    H180219   5.261   1.980   2.695 -0.1347 -0.1609  0.6859
19576TIP3    H280220   5.164   1.895   2.774  0.5914 -2.2776 -0.6073
19577TIP3   OH280221   0.174   1.103   4.949 -0.1214 -0.0323 -0.3959
19577TIP3    H180222   0.150   1.136   5.035 -1.0464 -1.3485 -0.1257
19577TIP3    H280223   0.107   1.039   4.927  1.7695 -2.0523 -0.6962
19578TIP3   OH280224   4.596   4.339   3.740  0.1672 -0.5579 -0.5191
19578TIP3    H180225   4.621   4.258   3.695  2.0558 -0.6118  0.5314
19578TIP3    H280226   4.520   4.314   3.794  0.6675 -1.6106 -0.2812
19579TIP3   OH280227   1.989   2.307   4.364 -0.3569  0.0521 -0.3813
19579TIP3    H180228   1.967   2.399   4.378 -0.0794 -0.0097  0.5295
19579TIP3    H280229   1.924   2.259   4.415  0.9844 -0.1669  1.2239
19580TIP3   OH280230   5.289   5.491  14.793  0.3106  0.3923  0.2398
19580TIP3    H180231   5.235   5.436  14.850  1.4121  0.5356  1.4619
19580TIP3    H280232   5.264   5.464  14.705 -1.9318  0.6421  0.7334
19581TIP3   OH280233   4.780   0.181   4.614  0.4261 -0.2507 -0.1504
19581TIP3    H180234   4.805   0.196   4.523  2.0687  0.1483  0.3386
19581TIP3    H280235   4.684   0.184   4.614  0.3455 -1.4950 -2.0667
19582TIP3   OH280236   3.012   0.742  13.659  0.6864  0.1868  0.3505
19582TIP3    H180237   3.093   0.694  13.678  1.1074  0.9033  0.3882
19582TIP3    H280238   2.950   0.674  13.631  1.1187 -0.4380  0.8885
19583TIP3   OH280239   0.431   3.391  13.138 -0.0965 -0.0950  0.1236
19583TIP3    H180240   0.436   3.330  13.065  0.1145  0.6394 -0.4781
19583TIP3    H280241   0.350   3.366  13.184 -0.2598 -0.5220 -0.3792
19584TIP3   OH280242   6.349   1.312  14.228  0.3425  0.0617  0.0656
19584TIP3    H180243   6.376   1.389  14.278  0.6259 -0.4076  0.6483
19584TIP3    H280244   6.295   1.347  14.158 -0.4669  0.7025  0.9754
19585TIP3   OH280245   1.634   3.415  14.692 -0.0215 -0.1825 -0.1853
19585TIP3    H180246   1.707   3.360  14.662  1.0248  0.6273  0.7942
19585TIP3    H280247   1.650   3.500  14.651  0.1162  0.2617  0.7685
19586TIP3   OH280248   0.761   6.790   3.653  0.0656  0.0814 -0.0766
19586TIP3    H180249   0.678   6.743   3.650  0.4094 -0.5102 -0.8909
19586TIP3    H280250   0.805   6.758   3.732  0.0777 -0.5997 -0.3560
19587TIP3   OH280251   0.914   2.409   2.905  0.3282  0.1277 -0.1386
19587TIP3    H180252   0.959   2.366   2.978  0.9311  0.1315 -0.4985
19587TIP3    H280253   0.891   2.337   2.846  1.7814  0.3085 -0.9833
19588TIP3   OH280254   2.852   3.451   1.241 -0.6590 -0.5163  0.5540
19588TIP3    H180255   2.794   3.527   1.251  1.5465  1.2094  0.9684
19588TIP3    H280256   2.940   3.486   1.254  0.5048 -3.0568  0.1036
19589TIP3   OH280257   4.979   5.337   5.015 -0.0591 -0.0465 -0.1942
19589TIP3    H180258   5.023   5.306   4.936 -1.5813 -0.0607 -1.0739
19589TIP3    H280259   5.041   5.400   5.053  1.8355 -1.9734  0.0884
19590TIP3   OH280260   1.355   1.104  12.333 -0.4681 -0.2126 -0.5389
19590TIP3    H180261   1.353   1.024  12.386  1.5179  0.0796  0.0580
19590TIP3    H280262   1.270   1.145  12.349 -0.3955 -0.7462  1.5195
19591TIP3   OH280263   0.662   4.496  15.281  0.3342  0.1435  0.0739
19591TIP3    H180264   0.579   4.467  15.318  0.2941  0.8896  0.5956
19591TIP3    H280265   0.643   4.508  15.187  0.5218 -2.0372 -0.2760
19592TIP3   OH280266   3.443   1.968  16.089  0.0877 -0.2503  0.1099
19592TIP3    H180267   3.494   1.890  16.071 -0.3552 -0.3542 -0.7403
19592TIP3    H280268   3.501   2.041  16.065 -0.1467 -0.3672 -0.8538
19593TIP3   OH280269   5.543   1.916  12.243 -0.3249  0.7097 -0.4330
19593TIP3    H180270   5.483   1.918  12.169  0.0001  0.7436 -0.7011
19593TIP3    H280271   5.504   1.855  12.305 -1.0698  1.3921 -0.2242
19594TIP3   OH280272   0.033   2.212  11.660  0.3159 -0.0733  0.1383
19594TIP3    H180273   0.019   2.185  11.569  0.8852 -0.8539  0.2652
19594TIP3    H280274  -0.033   2.279  11.676 -0.4974 -0.6976 -0.5206
19595TIP3   OH280275   2.546   2.077   4.922 -0.4462 -0.2183  0.3763
19595TIP3    H180276   2.500   1.995   4.907 -0.6321 -0.3071  1.3318
19595TIP3    H280277   2.594   2.063   5.004  0.8606  0.0591 -0.3041
19596TIP3   OH280278   4.956   3.989   3.297 -0.2636 -0.4582 -0.4131
19596TIP3    H180279   5.020   3.941   3.244  1.3211  0.5536  0.4939
19596TIP3    H280280   4.882   4.004   3.239 -0.5637 -3.4125 -0.9177
19597TIP3   OH280281   5.471   3.886  11.893  0.0264 -0.6625 -0.4679
19597TIP3    H180282   5.384   3.900  11.857  0.5759  1.9945 -0.9668
19597TIP3    H280283   5.455   3.849  11.980 -1.6478  0.6253 -0.1810
19598TIP3   OH280284   0.877   4.037   1.843 -0.4048 -0.2125  0.5491
19598TIP3    H180285   0.971   4.044   1.823 -0.1853  0.2253  1.6952
19598TIP3    H280286   0.834   4.056   1.759  0.5096 -4.6199 -1.2344
19599TIP3   OH280287   2.504   0.756  14.930  1.0226 -0.4098 -0.2892
19599TIP3    H180288   2.575   0.804  14.972  1.5727 -1.2630 -0.2285
19599TIP3    H280289   2.547   0.701  14.865  0.3293 -0.3000 -0.8593
19600TIP3   OH280290   6.009   2.823   5.195  0.1129  0.0077 -0.3953
19600TIP3    H180291   5.921   2.859   5.207 -0.1852 -0.7249 -0.3069
19600TIP3    H280292   6.017   2.758   5.265  0.3680 -0.5992 -0.9854
19601TIP3   OH280293   3.666   3.921   6.044  0.0887  0.3944  0.4377
19601TIP3    H180294   3.636   3.991   5.985 -0.2547 -0.8660 -0.9491
19601TIP3    H280295   3.595   3.856   6.041  0.3057  0.0563  1.8628
19602TIP3   OH280296   4.228   4.290  13.165  0.4319 -0.2747 -0.6750
19602TIP3    H180297   4.318   4.257  13.159  0.9700  1.3823 -2.7542
19602TIP3    H280298   4.230   4.375  13.122 -1.8927  0.4043  0.3841
19603TIP3   OH280299   3.886   6.504   0.863 -0.1430 -0.6510  0.3315
19603TIP3    H180300   3.895   6.487   0.769  2.1697 -1.2893  0.6044
19603TIP3    H280301   3.839   6.427   0.896  0.4173 -1.1751 -0.0752
19604TIP3   OH280302   2.441   3.140   2.754 -0.0766  0.7780 -0.2950
19604TIP3    H180303   2.514   3.181   2.708  0.9962  0.2433  0.8509
19604TIP3    H280304   2.402   3.210   2.806  1.1032  0.6055  0.8698
19605TIP3   OH280305   1.644   3.161  12.118 -0.3838 -0.3924 -0.4114
19605TIP3    H180306   1.643   3.077  12.072 -1.6550 -0.0145 -1.1249
19605TIP3    H280307   1.583   3.149  12.191 -0.7609 -0.0203 -0.6629
19606TIP3   OH280308   1.079   2.204  11.673 -0.4043  0.3211 -0.4230
19606TIP3    H180309   1.049   2.211  11.583 -1.3054 -2.8391 -0.4849
19606TIP3    H280310   1.019   2.259  11.723 -1.7005 -0.1461 -1.4325
19607TIP3   OH280311   1.668   0.164   5.617  0.7516 -0.1404  0.7344
19607TIP3    H180312   1.609   0.102   5.661  1.5936 -1.3195  0.2476
19607TIP3    H280313   1.620   0.191   5.539 -0.3763  1.2639  1.8713
19608TIP3   OH280314   3.154   1.335  11.855 -0.2713  0.1600 -0.1941
19608TIP3    H180315   3.075   1.384  11.832 -0.5645  0.1742  0.8199
19608TIP3    H280316   3.225   1.384  11.812 -0.4459  2.0394  1.5242
19609TIP3   OH280317   4.595   3.822   6.407  0.7358  0.5893 -0.1713
19609TIP3    H180318   4.618   3.746   6.354 -0.6833  1.1717 -1.7028
19609TIP3    H280319   4.502   3.810   6.427  1.3795  0.0001  2.9289
19610TIP3   OH280320   1.494   5.129  13.881 -0.3244 -0.4916 -0.1960
19610TIP3    H180321   1.530   5.217  13.896 -1.7185  0.3897 -1.7038
19610TIP3    H280322   1.558   5.088  13.823 -0.6545  0.3076 -1.1636
19611TIP3   OH280323   5.945   0.920   2.443  0.0517 -0.6356  0.3877
19611TIP3    H180324   5.991   0.860   2.384  0.5353  0.7372 -0.6907
19611TIP3    H280325   5.879   0.865   2.486 -1.2804 -1.4633 -2.4275
19612TIP3   OH280326   5.921   0.008  10.966 -0.3067  0.1361 -0.1244
19612TIP3    H180327   5.847  -0.029  10.917 -0.7284  1.3198 -0.4033
19612TIP3    H280328   5.890   0.094  10.994  0.8869  0.5520 -0.0591
19613TIP3   OH280329   6.792   3.730   5.868 -0.0545 -0.2787  0.3232
19613TIP3    H180330   6.755   3.710   5.782 -0.2241  0.9497  0.0830
19613TIP3    H280331   6.871   3.780   5.849 -0.1492  0.0905  0.8672
19614TIP3   OH280332   5.274   0.009   1.321 -0.7583 -0.3378  0.5958
19614TIP3    H180333   5.279  -0.082   1.350 -0.3279 -0.1288  1.2159
19614TIP3    H280334   5.331   0.014   1.244  0.1333 -0.3498  1.2376
19615TIP3   OH280335   1.086   5.343  12.451  0.2028 -0.2926 -0.7609
19615TIP3    H180336   1.163   5.385  12.413  0.4818  0.9976  1.0685
19615TIP3    H280337   1.105   5.337  12.545 -1.8205 -0.1088 -0.2758
19616TIP3   OH280338   2.234   5.233   5.676  0.0437  0.1993  1.0438
19616TIP3    H180339   2.161   5.181   5.710  2.5702 -2.8450  2.3095
19616TIP3    H280340   2.264   5.184   5.599 -0.8103  2.8930 -1.1678
19617TIP3   OH280341   0.524   5.745   4.882 -0.1396  0.0746 -0.1867
19617TIP3    H180342   0.518   5.650   4.891 -1.3505  0.2708  1.5302
19617TIP3    H280343   0.617   5.762   4.870  0.3348 -1.2219  1.2878
19618TIP3   OH280344   0.025   5.475  16.675 -0.0932  0.7972  0.3060
19618TIP3    H180345   0.102   5.422  16.655  0.5044  0.4139  3.1813
19618TIP3    H280346   0.040   5.558  16.629 -1.4918 -1.5066 -5.1132
19619TIP3   OH280347   5.456   5.838  14.040 -0.1487  0.1157 -0.0635
19619TIP3    H180348   5.551   5.827  14.048 -0.1665 -0.2504 -0.3340
19619TIP3    H280349   5.445   5.885  13.957 -0.2171 -0.1381 -0.2014
19620TIP3   OH280350   6.000   5.992  11.504  0.0968  0.0690  0.5098
19620TIP3    H180351   6.090   6.005  11.473 -0.3759  1.8506 -0.2151
19620TIP3    H280352   5.964   5.924  11.447  1.0402 -0.8279  0.9581
19621TIP3   OH280353   0.926   3.731   6.155  0.3952 -0.4689 -0.0199
19621TIP3    H180354   0.850   3.750   6.209 -0.5565 -1.6726 -0.8616
19621TIP3    H280355   0.901   3.761   6.067  1.9568  1.5663  0.1646
19622TIP3   OH280356   6.249   0.762   4.308 -0.0712  0.2818  0.0134
19622TIP3    H180357   6.255   0.671   4.279  1.1161 -0.1608  1.5088
19622TIP3    H280358   6.156   0.783   4.302 -0.3527 -0.9930 -0.4444
19623TIP3   OH280359   0.461   3.801   1.778 -0.0905  0.2937  0.2172
19623TIP3    H180360   0.447   3.867   1.846 -1.8493 -1.5436  1.7649
19623TIP3    H280361   0.385   3.809   1.721 -1.3689 -1.6055  1.5524
19624TIP3   OH280362   2.965   4.373   1.736 -0.2478  0.5846 -0.1065
19624TIP3    H180363   3.050   4.347   1.771 -0.1592  1.7778  0.6409
19624TIP3    H280364   2.917   4.291   1.725  0.7758 -0.0523  0.0567
19625TIP3   OH280365   3.619   0.347   5.898  0.1630  0.1583 -0.4039
19625TIP3    H180366   3.671   0.428   5.890  1.5850 -0.8323 -1.6193
19625TIP3    H280367   3.648   0.292   5.826  0.1618 -1.9637  1.1090
19626TIP3   OH280368   4.377   4.469   4.156  0.0779 -0.0814  0.2509
19626TIP3    H180369   4.430   4.537   4.116  0.8024 -0.9461 -0.2814
19626TIP3    H280370   4.301   4.461   4.098 -0.5771  1.0267  0.9157
19627TIP3   OH280371   3.583   4.844   3.954 -0.6328 -0.1608  0.2897
19627TIP3    H180372   3.628   4.760   3.961 -0.4260 -0.0213  0.6109
19627TIP3    H280373   3.548   4.861   4.041  0.7856  0.9064  0.6787
19628TIP3   OH280374   5.328   1.932  11.429 -0.5107  0.5729  0.2180
19628TIP3    H180375   5.410   1.957  11.385 -1.1175  2.3991  0.0282
19628TIP3    H280376   5.265   1.921  11.358 -0.6983  0.2797  0.4284
19629TIP3   OH280377   0.701   5.860   2.691  0.4224  0.0042  0.1360
19629TIP3    H180378   0.726   5.940   2.644  0.5103  0.0535  0.2653
19629TIP3    H280379   0.686   5.796   2.622 -1.9061  0.7402 -0.1196
19630TIP3   OH280380   2.620   6.423  12.918  0.0157  0.0353 -0.1980
19630TIP3    H180381   2.683   6.495  12.919 -0.7432  0.7601 -1.4676
19630TIP3    H280382   2.555   6.448  12.852 -2.8902  0.3904  2.5363
19631TIP3   OH280383   2.811   0.221  12.038  0.7964  0.0519  0.1259
19631TIP3    H180384   2.753   0.298  12.033  1.6792  0.6481 -2.6413
19631TIP3    H280385   2.898   0.256  12.019  1.2641 -1.5766 -0.8857
19632TIP3   OH280386   2.221   3.592  16.705  0.0149  0.2584 -0.0780
19632TIP3    H180387   2.181   3.547  16.630  0.6189 -0.6588  0.1489
19632TIP3    H280388   2.156   3.585  16.775 -0.4159  0.8396 -0.4087
19633TIP3   OH280389   3.303   3.143  16.945  0.2123 -0.0301 -0.1679
19633TIP3    H180390   3.237   3.095  16.895  1.1011 -0.8173 -0.6105
19633TIP3    H280391   3.290   3.113  17.036 -0.1180 -0.0794 -0.2287
19634TIP3   OH280392   4.871   4.997   5.404 -0.5309 -0.1232 -0.3317
19634TIP3    H180393   4.949   4.956   5.440  0.6663  0.4387 -2.1624
19634TIP3    H280394   4.895   5.088   5.390 -0.7321 -0.3842 -2.8595
19635TIP3   OH280395   4.602   6.453  15.520 -0.4884  0.1754  0.3788
19635TIP3    H180396   4.516   6.492  15.533 -0.5535 -0.6248  2.8729
19635TIP3    H280397   4.658   6.496  15.586  1.1635  0.9271 -1.3938
19636TIP3   OH280398   4.814   4.285   3.191 -0.0536  0.1040 -0.1355
19636TIP3    H180399   4.875   4.309   3.121  0.9531 -2.4463 -0.2249
19636TIP3    H280400   4.741   4.243   3.147  0.1808 -0.7385  0.2509
19637TIP3   OH280401   3.333   4.952  13.100 -0.0108  0.1688 -0.1486
19637TIP3    H180402   3.280   4.926  13.176  0.6210  2.4781  1.1698
19637TIP3    H280403   3.401   4.885  13.094  0.3036  0.2769  1.7434
19638TIP3   OH280404   5.524   4.003   5.370  0.4309  0.0328 -0.5256
19638TIP3    H180405   5.583   3.934   5.341  0.2502 -1.2278  1.8222
19638TIP3    H280406   5.513   4.060   5.294  2.8599 -0.9349 -1.7093
19639TIP3   OH280407   4.032   3.505  15.634  0.8860  0.0263 -0.0702
19639TIP3    H180408   4.088   3.577  15.604  0.8543 -0.7032 -2.0134
19639TIP3    H280409   4.049   3.434  15.572 -1.6493 -0.4669 -0.3295
19640TIP3   OH280410   0.084   3.312  16.000  0.5071  0.8691  0.7197
19640TIP3    H180411   0.021   3.383  16.008  1.2514  1.8110 -1.1891
19640TIP3    H280412   0.121   3.322  15.913  1.9461 -0.7945  1.0747
19641TIP3   OH280413   2.689   3.405  15.045  0.3194  0.5696 -0.0400
19641TIP3    H180414   2.747   3.331  15.027  0.7312  1.0664 -0.8119
19641TIP3    H280415   2.603   3.376  15.017 -0.3924 -1.0845  3.2811
19642TIP3   OH280416   1.429   6.408   6.037  0.0447  0.1360  0.2311
19642TIP3    H180417   1.510   6.392   6.085 -0.2736 -1.2148  0.3631
19642TIP3    H280418   1.375   6.331   6.055 -0.6457  0.2706 -1.1236
19643TIP3   OH280419   5.492   6.522  16.141 -0.7187  0.1881  0.0354
19643TIP3    H180420   5.432   6.594  16.160 -0.4782  0.3455  0.2011
19643TIP3    H280421   5.513   6.486  16.227  1.3375  1.6732  0.2381
19644TIP3   OH280422   3.135   4.914   5.070  0.2029 -0.6708  0.5173
19644TIP3    H180423   3.127   4.836   5.126 -0.9710 -0.2448  0.9650
19644TIP3    H280424   3.144   4.987   5.132 -1.2603 -0.1796  0.1762
19645TIP3   OH280425   2.126   2.999  12.733 -0.1771  0.3610 -0.1230
19645TIP3    H180426   2.104   2.959  12.817 -2.8868  1.4996 -0.1755
19645TIP3    H280427   2.096   2.936  12.668  1.5926 -0.3597 -0.2869
19646TIP3   OH280428   0.464   6.534  15.618  0.0139  0.4844  0.2629
19646TIP3    H180429   0.485   6.483  15.696  2.4019  0.1325 -0.5163
19646TIP3    H280430   0.538   6.519  15.559 -1.6510  0.8100 -2.0497
19647TIP3   OH280431   1.627   1.773  12.177 -0.1399  0.6221 -0.5475
19647TIP3    H180432   1.658   1.842  12.119  0.0206  1.1848  0.2020
19647TIP3    H280433   1.584   1.818  12.249 -0.9170 -0.0891 -0.5344
19648TIP3   OH280434   1.513   3.008   5.628  0.0055 -0.2194  0.1857
19648TIP3    H180435   1.492   2.915   5.637  0.0717 -0.3231 -0.6506
19648TIP3    H280436   1.530   3.020   5.535  2.3469  0.1212  0.5801
19649TIP3   OH280437   3.360   5.308   1.179 -0.4063 -0.5591 -0.1946
19649TIP3    H180438   3.345   5.403   1.186  2.0211  0.2122 -3.2195
19649TIP3    H280439   3.272   5.270   1.176 -1.4605  1.7395 -0.3183
19650TIP3   OH280440   3.267   3.106   5.774  0.1328  0.1450  0.0442
19650TIP3    H180441   3.300   3.188   5.738  1.1894 -1.6083 -3.4750
19650TIP3    H280442   3.174   3.122   5.789  0.6338  2.4205  1.0860
19651TIP3   OH280443   0.651   2.415   0.769 -0.2963  0.0193  0.1548
19651TIP3    H180444   0.618   2.502   0.792  1.4978  0.4786  1.2109
19651TIP3    H280445   0.690   2.426   0.682  1.4821  0.7554  1.0077
19652TIP3   OH280446   6.118   0.424   1.871 -0.2406  0.0643  0.3146
19652TIP3    H180447   6.166   0.380   1.800  0.5336 -1.4868  1.7477
19652TIP3    H280448   6.138   0.517   1.859  0.2204 -0.2057 -1.2342
19653TIP3   OH280449   6.229   5.528   2.838  0.2159 -0.0118 -0.4868
19653TIP3    H180450   6.134   5.537   2.829  0.3454  0.8024 -1.1617
19653TIP3    H280451   6.264   5.611   2.805  1.1742 -0.3657 -0.3842
19654TIP3   OH280452   0.435   6.033  13.399  0.9410  0.2712 -0.2209
19654TIP3    H180453   0.361   6.020  13.459  1.0006  1.0163  0.0324
19654TIP3    H280454   0.512   6.038  13.457  0.8720  2.1765 -0.2074
19655TIP3   OH280455   4.066   0.767   0.197  0.4113 -0.0481 -0.5133
19655TIP3    H180456   3.991   0.712   0.174  0.7356 -0.5948 -0.2780
19655TIP3    H280457   4.141   0.725   0.155  0.4875  0.9190 -1.3781
19656TIP3   OH280458   3.838   6.603   1.850 -0.0232 -0.1240 -0.5150
19656TIP3    H180459   3.840   6.616   1.755 -0.7457 -0.1834 -0.5407
19656TIP3    H280460   3.811   6.687   1.886 -1.9279 -0.6884 -0.5127
19657TIP3   OH280461   1.529   0.865   1.797 -0.0055 -0.1063 -0.2581
19657TIP3    H180462   1.591   0.793   1.807 -1.1966 -1.0729  0.5442
19657TIP3    H280463   1.482   0.845   1.715  0.1824  0.1631 -0.4298
19658TIP3   OH280464   4.514   1.393  15.981  0.4493 -0.2697  0.1019
19658TIP3    H180465   4.565   1.394  16.062 -0.3486  0.4480  0.6122
19658TIP3    H280466   4.427   1.424  16.007 -0.1460 -1.1070 -0.8126
19659TIP3   OH280467   4.508   4.666   6.002 -0.8942  0.2605 -0.2531
19659TIP3    H180468   4.544   4.600   5.943  0.2316  1.3679 -0.8499
19659TIP3    H280469   4.425   4.629   6.032  0.7409 -2.5071  1.3264
19660TIP3   OH280470   3.738   6.301   3.241 -0.3815  0.2479  0.5866
19660TIP3    H180471   3.745   6.396   3.255  1.7028  0.1723  0.3586
19660TIP3    H280472   3.821   6.266   3.275 -1.0771 -1.4968  0.5767
19661TIP3   OH280473   2.594   4.870  13.635  0.3422 -0.3643 -0.2010
19661TIP3    H180474   2.610   4.798  13.574  0.6938  0.2014 -0.7858
19661TIP3    H280475   2.624   4.948  13.588  1.2088  0.0118  0.9253
19662TIP3   OH280476   1.014   5.862  13.381  0.2301 -0.0120 -0.4228
19662TIP3    H180477   1.026   5.847  13.475 -1.3968 -1.2568 -0.3677
19662TIP3    H280478   1.065   5.941  13.362  0.8895  0.0447  1.4229
19663TIP3   OH280479   2.193   1.981   1.685  0.7549  0.1061 -0.3527
19663TIP3    H180480   2.130   2.046   1.654  0.9165  1.3998  1.8814
19663TIP3    H280481   2.163   1.899   1.647 -1.7946  0.8298 -0.0442
19664TIP3   OH280482   5.586   1.414  13.429  0.5416  0.2791 -0.4940
19664TIP3    H180483   5.558   1.500  13.399  0.4363  0.3751 -0.1225
19664TIP3    H280484   5.623   1.372  13.351  0.4811  0.6129 -0.7023
19665TIP3   OH280485   4.542   4.571   1.459  0.3818 -0.1722 -0.1904
19665TIP3    H180486   4.502   4.576   1.546  1.7940 -1.2953  0.5727
19665TIP3    H280487   4.474   4.533   1.403 -0.9568  1.6583  0.0892
19666TIP3   OH280488   6.602   5.307  12.519  0.1216 -0.1892  0.2816
19666TIP3    H180489   6.614   5.325  12.426  0.1414 -0.6227  0.1989
19666TIP3    H280490   6.518   5.262  12.524 -0.2804  0.5789  0.5720
19667TIP3   OH280491   1.700   6.323   2.501  0.0552  0.4545 -0.2299
19667TIP3    H180492   1.739   6.238   2.477 -0.4161 -0.0024  0.6050
19667TIP3    H280493   1.745   6.386   2.444  0.9292 -0.2574 -0.3538
19668TIP3   OH280494   5.927   2.581   1.303 -0.1093 -0.1008 -0.0418
19668TIP3    H180495   5.948   2.518   1.235 -0.3536 -0.0481 -0.1667
19668TIP3    H280496   5.853   2.630   1.269  1.4429  1.7595 -0.9079
19669TIP3   OH280497   5.539   2.585   1.955  0.1875  0.1135  0.4433
19669TIP3    H180498   5.539   2.493   1.982 -1.5249 -0.1092 -0.1838
19669TIP3    H280499   5.592   2.586   1.875 -0.2704 -0.4414  0.1275
19670TIP3   OH280500   0.481   0.237  12.352  0.1275  0.1371  0.3350
19670TIP3    H180501   0.514   0.325  12.335  1.7067 -0.0524  2.1072
19670TIP3    H280502   0.446   0.241  12.442  0.8709 -1.1939  0.7131
19671TIP3   OH280503   3.471   2.270   5.141  0.3412 -0.1586  0.3486
19671TIP3    H180504   3.522   2.245   5.219  2.1194  3.1756  0.4265
19671TIP3    H280505   3.399   2.323   5.176 -0.1089 -0.4219 -0.1675
19672TIP3   OH280506   6.616   5.238  14.862  0.4230 -0.4273  0.4778
19672TIP3    H180507   6.543   5.177  14.868  0.1739 -0.0391  1.5719
19672TIP3    H280508   6.587   5.306  14.801  0.6334 -1.2782 -0.6062
19673TIP3   OH280509   5.416   6.514   0.670  0.6782 -0.6359  0.0656
19673TIP3    H180510   5.348   6.567   0.627 -0.6306 -1.4985  1.0180
19673TIP3    H280511   5.453   6.572   0.737 -0.6112 -0.8135  0.9691
19674TIP3   OH280512   4.498   1.464  16.547 -0.1062 -0.1440 -0.1282
19674TIP3    H180513   4.448   1.383  16.561 -0.6704  0.2796  0.4032
19674TIP3    H280514   4.468   1.495  16.462  0.6352 -0.8509 -0.6602
19675TIP3   OH280515   6.717   4.991  17.044  0.4887 -0.1114 -0.0326
19675TIP3    H180516   6.794   4.985  17.102 -0.1905 -2.7858  0.7280
19675TIP3    H280517   6.713   5.083  17.019  2.9082  0.4448  1.3229
19676TIP3   OH280518   2.423   3.968   1.641 -0.8440 -0.2510 -0.0300
19676TIP3    H180519   2.484   4.010   1.581 -1.3067  0.9996  0.3243
19676TIP3    H280520   2.467   3.888   1.670  1.1354  1.1668  1.1030
19677TIP3   OH280521   6.756   4.277  13.520 -0.1329  0.4146  0.4737
19677TIP3    H180522   6.749   4.200  13.577 -0.0279 -1.7305 -2.2188
19677TIP3    H280523   6.847   4.305  13.527 -0.2104  0.4434  1.5939
19678TIP3   OH280524   1.704   1.527  16.682 -0.3225 -0.5559  0.2659
19678TIP3    H180525   1.654   1.575  16.748  0.9547 -1.4876  1.9800
19678TIP3    H280526   1.776   1.586  16.658 -0.2306 -0.5960  0.4415
19679TIP3   OH280527   4.066   4.765   1.899  0.0968 -0.6025 -0.5686
19679TIP3    H180528   4.070   4.705   1.973  0.9505 -0.9743 -0.9053
19679TIP3    H280529   4.109   4.845   1.929  1.3225 -1.0971 -0.9671
19680TIP3   OH280530   3.566   0.137  16.835  0.1988 -0.2858 -0.5644
19680TIP3    H180531   3.649   0.178  16.856 -0.1126  0.4636 -0.7873
19680TIP3    H280532   3.590   0.054  16.794  0.8337  0.0811 -0.9390
19681TIP3   OH280533   1.398   6.717  13.199  0.1126  0.2948 -0.3566
19681TIP3    H180534   1.403   6.729  13.104  1.7034  1.4218 -0.1790
19681TIP3    H280535   1.477   6.759  13.232  0.8192 -2.1447  1.2886
19682TIP3   OH280536   3.232   1.864  13.759  0.2196  0.0055 -0.6836
19682TIP3    H180537   3.172   1.789  13.760  1.0172 -0.6682 -1.7376
19682TIP3    H280538   3.319   1.825  13.755  0.6737  0.9919 -0.6750
19683TIP3   OH280539   4.075   5.149  13.900  0.0351 -0.1637 -0.0328
19683TIP3    H180540   4.025   5.142  13.981  0.6783 -0.0291  0.3829
19683TIP3    H280541   4.058   5.238  13.869  0.3521  0.0302  0.3371
19684TIP3   OH280542   6.192   5.834   4.353  0.3176  0.1341 -0.1458
19684TIP3    H180543   6.281   5.843   4.321  0.3645  3.6502  0.6326
19684TIP3    H280544   6.137   5.875   4.286 -0.5257 -0.2381  0.2910
19685TIP3   OH280545   2.599   5.071  15.009 -0.2367  0.3024  0.2124
19685TIP3    H180546   2.660   5.145  15.008 -0.5383  0.6101 -2.4558
19685TIP3    H280547   2.642   5.003  14.958 -0.9200 -0.5580  0.7456
19686TIP3   OH280548   1.811   6.015  16.594 -0.1971 -0.0829  0.4002
19686TIP3    H180549   1.777   5.946  16.537 -1.1049  0.9512 -0.3644
19686TIP3    H280550   1.906   6.004  16.592 -0.2163 -0.2449 -1.1280
19687TIP3   OH280551   2.803   0.031  15.227  0.3170 -0.3900 -0.2231
19687TIP3    H180552   2.870   0.099  15.215 -0.5559  0.3083 -1.3513
19687TIP3    H280553   2.818  -0.002  15.316  1.0423  0.9859  0.1931
19688TIP3   OH280554   4.609   5.219   4.873 -0.0694 -0.6093  0.8704
19688TIP3    H180555   4.641   5.130   4.856 -1.0327 -0.7208 -0.5569
19688TIP3    H280556   4.675   5.276   4.835 -0.7179 -0.8026 -0.6110
19689TIP3   OH280557   4.717   0.688   0.711 -0.4075  0.4371 -0.0126
19689TIP3    H180558   4.759   0.726   0.634 -0.5716  0.3148 -0.1641
19689TIP3    H280559   4.731   0.752   0.781  1.7026 -0.4151  0.4412
19690TIP3   OH280560   3.811   1.375   0.903  0.2234  0.9552 -0.7272
19690TIP3    H180561   3.837   1.285   0.885  0.1270  0.9938 -1.0731
19690TIP3    H280562   3.800   1.379   0.998 -1.0666  0.2407 -0.8295
19691TIP3   OH280563   4.465   4.032  17.019  0.1386  0.2767 -0.7201
19691TIP3    H180564   4.433   4.013  17.107 -0.8588  0.3867 -1.0409
19691TIP3    H280565   4.488   3.947  16.982  2.0372  0.3620  0.1649
19692TIP3   OH280566   5.821   0.245   2.418  0.1743 -0.4052  0.8439
19692TIP3    H180567   5.830   0.331   2.460 -0.3844 -0.0744  0.3045
19692TIP3    H280568   5.830   0.264   2.324  1.0231 -1.0810  0.7797
19693TIP3   OH280569   2.657   3.558  11.114 -0.1529 -0.2944 -0.1175
19693TIP3    H180570   2.699   3.578  11.030  0.4827  1.2143  0.5287
19693TIP3    H280571   2.568   3.529  11.091  0.8504 -2.6109 -1.4509
19694TIP3   OH280572   1.126   2.768  13.846 -0.3548  0.1026 -0.2706
19694TIP3    H180573   1.134   2.690  13.790  0.3043  0.5740 -0.8491
19694TIP3    H280574   1.173   2.744  13.926 -0.9307 -0.4164 -0.0726
19695TIP3   OH280575   2.622   4.405   5.170  0.3741  0.0689  0.5108
19695TIP3    H180576   2.543   4.456   5.151 -0.1091 -0.4343  1.1236
19695TIP3    H280577   2.694   4.457   5.133 -0.3793 -0.2872 -1.5827
19696TIP3   OH280578   0.177   5.839   3.617  0.0171  0.3618 -0.0635
19696TIP3    H180579   0.183   5.934   3.614  1.7165  0.2655 -2.4338
19696TIP3    H280580   0.084   5.820   3.603 -0.5249  1.6399  1.5486
19697TIP3   OH280581   2.212   2.678   3.090  0.0982  0.3207  0.0016
19697TIP3    H180582   2.288   2.626   3.117 -0.4549 -0.2556  0.4800
19697TIP3    H280583   2.220   2.686   2.995  0.0332 -0.9042 -0.1175
19698TIP3   OH280584   2.932   4.161   2.456  0.2720 -0.1322  0.1986
19698TIP3    H180585   2.882   4.220   2.512 -0.8403 -0.1303 -0.7439
19698TIP3    H280586   2.957   4.214   2.381  1.1513 -0.3100  0.3521
19699TIP3   OH280587   1.331   3.585  13.782  0.3961 -0.4655  0.2709
19699TIP3    H180588   1.325   3.616  13.872  1.4479 -2.9580  1.2784
19699TIP3    H280589   1.424   3.590  13.760  0.2648 -0.6705 -0.3697
19700TIP3   OH280590   0.974   5.422  15.281  0.0495  0.0481  0.4625
19700TIP3    H180591   0.899   5.396  15.228 -0.3086  0.8514  0.5525
19700TIP3    H280592   0.980   5.356  15.350 -1.5115  0.7916  1.3505
19701TIP3   OH280593   3.739   5.802   5.406 -0.7264  0.5070  0.4519
19701TIP3    H180594   3.661   5.850   5.377 -0.8136 -0.8843 -1.9332
19701TIP3    H280595   3.807   5.826   5.343  0.4695  0.7548  1.7793
19702TIP3   OH280596   0.713   5.524  15.471 -0.1404  0.9825  0.2118
19702TIP3    H180597   0.738   5.474  15.548 -2.2821  0.8431  0.8937
19702TIP3    H280598   0.714   5.460  15.399 -1.6859  0.2040  0.8488
19703TIP3   OH280599   2.623   5.809   3.454 -0.2075 -0.4006 -0.1500
19703TIP3    H180600   2.703   5.825   3.404 -1.1886  1.0359 -1.3756
19703TIP3    H280601   2.639   5.848   3.539  0.7362 -0.9923 -0.0491
19704TIP3   OH280602   0.555   1.503   0.851  0.0399 -0.7209 -0.4136
19704TIP3    H180603   0.460   1.516   0.845 -0.2523 -1.7888  1.3749
19704TIP3    H280604   0.582   1.557   0.924  0.6455 -1.2035 -0.2732
19705TIP3   OH280605   2.368   0.461   2.245 -0.0738 -0.0345 -0.0736
19705TIP3    H180606   2.308   0.446   2.318 -4.1812  2.3611 -2.5410
19705TIP3    H280607   2.333   0.406   2.175  1.2901  0.6780 -1.3642
19706TIP3   OH280608   4.922   0.738  13.765  0.1549  0.4649  0.3932
19706TIP3    H180609   4.854   0.683  13.727  1.4780 -1.5650  0.8321
19706TIP3    H280610   4.938   0.806  13.699 -0.5306 -0.4831 -0.7887
19707TIP3   OH280611   4.776   5.798   5.548 -0.1719 -0.1827 -0.3735
19707TIP3    H180612   4.841   5.868   5.546  1.2144 -1.4243 -0.5824
19707TIP3    H280613   4.749   5.787   5.457 -0.1035 -0.1896 -0.3925
19708TIP3   OH280614   6.231   1.837  16.146  0.0359 -0.0294 -0.0611
19708TIP3    H180615   6.314   1.864  16.107  0.6940  0.8063  1.7975
19708TIP3    H280616   6.237   1.865  16.238 -2.7168  1.0247 -0.0957
19709TIP3   OH280617   6.001   6.328  13.502 -0.4938 -0.3000 -0.1948
19709TIP3    H180618   6.044   6.368  13.578 -0.7251  0.1847 -0.3140
19709TIP3    H280619   5.978   6.402  13.446 -1.2374 -0.5727 -0.2621
19710TIP3   OH280620   0.791   1.254   6.420  0.6737  0.6398  0.2231
19710TIP3    H180621   0.830   1.338   6.394  1.9171  0.4261  1.3153
19710TIP3    H280622   0.820   1.193   6.353 -0.2268  1.0539 -0.5719
19711TIP3   OH280623   5.685   2.030   4.795  0.3821  0.4109  0.7128
19711TIP3    H180624   5.745   2.045   4.722 -1.0441 -0.5862 -0.7304
19711TIP3    H280625   5.731   1.969   4.852  0.5217 -0.8436 -0.6897
19712TIP3   OH280626   5.716   5.016   2.172  0.0666  0.2406 -0.6969
19712TIP3    H180627   5.807   5.029   2.199  0.4466  0.7142 -2.1184
19712TIP3    H280628   5.669   5.091   2.207  0.2877  0.1675 -0.2407
19713TIP3   OH280629   6.839   5.582   1.710  0.3970  0.3695 -0.1238
19713TIP3    H180630   6.783   5.545   1.642  0.9430  0.4372 -0.6093
19713TIP3    H280631   6.928   5.564   1.681  0.6524  1.1740  0.1340
19714TIP3   OH280632   5.716   4.846  11.201 -0.4265  0.3986 -0.0422
19714TIP3    H180633   5.734   4.791  11.125 -0.2198 -0.7226  0.7845
19714TIP3    H280634   5.700   4.933  11.165 -0.4019 -0.1220 -1.3615
19715TIP3   OH280635   6.485   6.023   2.300 -0.3654 -0.3181  0.7800
19715TIP3    H180636   6.501   6.114   2.277  0.8948 -0.4683  1.0172
19715TIP3    H280637   6.494   5.975   2.217 -2.6183 -0.0810  0.3253
19716TIP3   OH280638   6.007   6.112   4.268  0.0204  0.2323 -0.3854
19716TIP3    H180639   6.005   6.028   4.314 -0.1445 -0.0666 -0.9170
19716TIP3    H280640   6.006   6.178   4.337 -1.3780 -0.1889  0.0342
19717TIP3   OH280641   0.359   3.225  13.662 -0.4610 -0.2373  0.2819
19717TIP3    H180642   0.428   3.262  13.718 -1.8870  0.2907  1.7877
19717TIP3    H280643   0.392   3.139  13.636  0.7173 -0.0363  1.0534
19718TIP3   OH280644   0.008   5.906   5.758 -0.1045 -0.0143 -0.4806
19718TIP3    H180645  -0.007   5.858   5.677 -1.0342 -1.3717  0.4688
19718TIP3    H280646  -0.078   5.941   5.782  0.2994  1.0111 -0.4372
19719TIP3   OH280647   4.128   5.869   2.967 -0.0533 -0.2266 -0.1964
19719TIP3    H180648   4.183   5.947   2.975  1.6974 -1.4080 -0.3371
19719TIP3    H280649   4.100   5.851   3.056  0.4757 -0.1072 -0.0048
19720TIP3   OH280650   6.203   1.597   2.852  0.4929  0.3374  0.1700
19720TIP3    H180651   6.164   1.537   2.916 -1.1720  0.8663 -0.2916
19720TIP3    H280652   6.251   1.540   2.792  1.0208 -0.2822  1.1605
19721TIP3   OH280653   2.290   2.461   4.373  0.0239  0.4295  0.9652
19721TIP3    H180654   2.230   2.480   4.445  0.0900  0.6015  0.9758
19721TIP3    H280655   2.377   2.477   4.409  0.0125  1.5920  0.5322
19722TIP3   OH280656   3.755   2.229   5.743 -0.3768  0.6011 -0.5305
19722TIP3    H180657   3.691   2.198   5.679 -0.8115  1.4979 -0.5391
19722TIP3    H280658   3.738   2.178   5.822  0.6185 -1.0257 -1.3055
19723TIP3   OH280659   2.195   3.270   3.024  0.1730 -0.1802 -0.0889
19723TIP3    H180660   2.258   3.335   2.993  0.1630 -0.4212 -0.6476
19723TIP3    H280661   2.238   3.228   3.098  1.2722 -1.2469 -1.2576
19724TIP3   OH280662   2.543   4.785   0.330 -0.1649  0.2793  0.2996
19724TIP3    H180663   2.611   4.842   0.292  1.2783 -0.5797  1.4744
19724TIP3    H280664   2.575   4.696   0.314 -2.4976 -0.3136 -1.7082
19725TIP3   OH280665   1.977   6.076   0.299  0.2975 -0.0642  0.3612
19725TIP3    H180666   1.926   6.144   0.255  1.0842  0.0901 -0.3440
19725TIP3    H280667   1.933   6.063   0.383 -1.0004 -0.0793 -0.3003
19726TIP3   OH280668   2.537   0.611  14.439 -0.3651  0.1354 -0.3383
19726TIP3    H180669   2.476   0.676  14.403 -1.1403 -0.5034 -0.1880
19726TIP3    H280670   2.519   0.531  14.391  0.2064 -0.1190 -0.1368
19727TIP3   OH280671   4.827   2.391  15.809 -0.3168  0.0215  0.1288
19727TIP3    H180672   4.814   2.309  15.857 -1.5390 -0.0676 -0.3081
19727TIP3    H280673   4.738   2.421  15.789  0.1092 -0.3986 -2.7849
19728TIP3   OH280674   4.561   2.541   3.068  0.3259  0.3570 -0.0126
19728TIP3    H180675   4.622   2.533   2.995  1.0907 -2.2728  0.7911
19728TIP3    H280676   4.582   2.625   3.108  1.4426  0.8064 -1.4483
19729TIP3   OH280677   0.778   5.012  11.205  0.3423  0.1897  0.3918
19729TIP3    H180678   0.812   5.090  11.162  0.9538  0.2483  0.9627
19729TIP3    H280679   0.733   5.046  11.283  0.6280 -0.0278  0.6534
19730TIP3   OH280680   3.518   0.846   5.476  0.1660 -0.4508 -0.0522
19730TIP3    H180681   3.446   0.900   5.446  0.9915 -0.3433 -1.9238
19730TIP3    H280682   3.544   0.885   5.560  0.3269  1.6512 -1.0327
19731TIP3   OH280683   5.183   5.765  13.996 -0.4045 -0.0137  0.1817
19731TIP3    H180684   5.209   5.795  13.909  0.1053 -0.4752  0.1764
19731TIP3    H280685   5.261   5.776  14.049 -0.4181 -0.6963  0.3412
19732TIP3   OH280686   0.747   5.244   0.809  0.3568  0.1625  0.2353
19732TIP3    H180687   0.741   5.239   0.905  0.4951 -1.0889  0.1965
19732TIP3    H280688   0.690   5.318   0.786 -0.8264 -0.3996  1.1877
19733TIP3   OH280689   4.806   5.773  16.633 -0.2392  0.1426 -0.6595
19733TIP3    H180690   4.713   5.795  16.640 -0.1305  0.6171 -0.6852
19733TIP3    H280691   4.846   5.814  16.710  0.2436  1.5487 -1.6178
19734TIP3   OH280692   2.092   5.781  12.987 -0.0565  0.5591  0.1412
19734TIP3    H180693   2.006   5.808  13.017 -0.1327 -0.8395  1.2799
19734TIP3    H280694   2.102   5.691  13.019  0.2684 -0.7550 -3.2336
19735TIP3   OH280695   4.288   5.506   4.299 -0.3563 -0.0996 -0.3218
19735TIP3    H180696   4.202   5.464   4.298 -0.1270 -0.5724 -1.4668
19735TIP3    H280697   4.282   5.573   4.230  0.2733 -0.3131 -0.5876
19736TIP3   OH280698   4.986   3.825  14.978  0.1779  0.3972 -0.1600
19736TIP3    H180699   4.965   3.859  15.065  0.3254  0.3059 -0.0889
19736TIP3    H280700   4.992   3.730  14.990 -1.7521  0.1552 -0.6644
19737TIP3   OH280701   3.280   2.582  11.086 -0.2753 -0.3030 -0.0629
19737TIP3    H180702   3.280   2.538  11.001 -0.6818  0.2870 -0.3724
19737TIP3    H280703   3.303   2.513  11.149 -2.3007 -1.3211 -0.3548
19738TIP3   OH280704   0.243   3.316  11.673  0.1729  0.0912 -0.0455
19738TIP3    H180705   0.156   3.276  11.681 -0.4393  1.3152 -0.2506
19738TIP3    H280706   0.264   3.346  11.762  0.3816 -0.2071  0.0051
19739TIP3   OH280707   6.406   0.298  14.546 -0.2048  0.3680 -0.1943
19739TIP3    H180708   6.384   0.255  14.629 -1.2896 -0.7849 -1.0443
19739TIP3    H280709   6.488   0.256  14.518 -0.1881  0.2865 -0.0237
19740TIP3   OH280710   1.674   4.921  15.888 -0.1024  0.2861 -0.1794
19740TIP3    H180711   1.706   4.995  15.836  0.1882 -0.5419 -1.1959
19740TIP3    H280712   1.581   4.940  15.903 -0.0266  0.8569 -0.4033
19741TIP3   OH280713   4.868   1.783  14.249 -0.0744  0.2279 -0.4007
19741TIP3    H180714   4.843   1.693  14.271 -0.3338  0.4820  0.3631
19741TIP3    H280715   4.865   1.830  14.332 -1.1843  1.2505 -0.9908
19742TIP3   OH280716   2.875   5.339   3.795  0.0700 -0.2844  0.3290
19742TIP3    H180717   2.781   5.346   3.811  0.1232 -0.6557  0.8375
19742TIP3    H280718   2.883   5.266   3.733  0.0623 -0.6707  0.7731
19743TIP3   OH280719   0.014   0.517  14.410  0.2599  0.1215  0.1858
19743TIP3    H180720  -0.033   0.479  14.336  0.7954 -0.0575 -0.0690
19743TIP3    H280721   0.093   0.555  14.371  1.0374 -0.8310  0.7804
19744TIP3   OH280722   2.493   6.541  10.383  0.0511  0.4229 -0.4227
19744TIP3    H180723   2.466   6.588  10.305 -0.0045  1.2730  0.1020
19744TIP3    H280724   2.493   6.606  10.453 -1.8200 -0.7057  0.7214
19745TIP3   OH280725   5.058   4.923  12.972  0.0486  0.5413 -0.6124
19745TIP3    H180726   4.976   4.970  12.990 -0.5611 -0.6769 -0.0202
19745TIP3    H280727   5.065   4.859  13.044  1.6918  0.8267 -0.4839
19746TIP3   OH280728   4.705   5.921  14.513 -0.1767  0.1545 -0.6863
19746TIP3    H180729   4.651   5.842  14.513 -0.5327  0.3934 -0.6885
19746TIP3    H280730   4.782   5.898  14.566 -0.0617 -0.3323 -1.0649
19747TIP3   OH280731   4.174   1.538   5.901 -0.6372  0.4346 -0.1751
19747TIP3    H180732   4.085   1.572   5.902 -0.4314  0.9832 -0.2187
19747TIP3    H280733   4.171   1.464   5.841 -1.5445 -0.9078  1.4430
19748TIP3   OH280734   1.927   5.353   5.898 -0.1323 -0.1231 -0.2095
19748TIP3    H180735   1.853   5.331   5.956  0.8595 -0.5649  0.9251
19748TIP3    H280736   2.002   5.307   5.936  0.9001  0.9452 -0.9008
19749TIP3   OH280737   6.726   3.582   0.545 -0.1700  0.7209 -0.4496
19749TIP3    H180738   6.765   3.613   0.463  0.3648  1.7214  0.1729
19749TIP3    H280739   6.673   3.507   0.518  0.2189  0.8518 -1.6739
19750TIP3   OH280740   3.127   2.834  15.990 -0.4951 -0.2183 -0.0957
19750TIP3    H180741   3.047   2.782  15.982 -0.3579 -0.3443 -0.7080
19750TIP3    H280742   3.131   2.883  15.908 -0.1411  0.0722  0.0957
19751TIP3   OH280743   1.799   1.772   0.501 -0.6452 -0.8571  0.2466
19751TIP3    H180744   1.741   1.830   0.551 -0.7603 -1.0222  0.3071
19751TIP3    H280745   1.826   1.825   0.426  0.9825  0.0349  1.4100
19752TIP3   OH280746   2.153   4.324  14.066  0.5544 -0.0111  0.1468
19752TIP3    H180747   2.158   4.373  13.984  1.1000  0.0645  0.2182
19752TIP3    H280748   2.062   4.297  14.073  0.3303  0.6771 -0.0768
19753TIP3   OH280749   5.511   0.678   4.723  0.0596  0.5702  0.6826
19753TIP3    H180750   5.475   0.748   4.669 -1.8802 -1.8102 -1.3208
19753TIP3    H280751   5.597   0.661   4.685 -0.6713 -0.0695 -0.7653
19754TIP3   OH280752   5.887   5.494   3.254 -0.6773  0.3181 -0.5064
19754TIP3    H180753   5.920   5.421   3.201 -2.0383  0.0855 -1.0701
19754TIP3    H280754   5.847   5.453   3.330 -0.5360  0.5418 -0.3100
19755TIP3   OH280755   0.532   3.074   3.205  0.3902 -0.2254  0.3366
19755TIP3    H180756   0.471   3.145   3.185  1.4523  1.2240  2.0330
19755TIP3    H280757   0.592   3.073   3.131 -0.2358 -0.0642 -0.1896
19756TIP3   OH280758   5.975   0.187  11.823 -0.4267 -0.3657  0.3554
19756TIP3    H180759   6.052   0.139  11.853  0.0252  0.2681  0.2254
19756TIP3    H280760   5.948   0.143  11.743  1.1950  0.7972 -0.8894
19757TIP3   OH280761   5.419   3.880   0.010  0.3539  0.0095  0.0143
19757TIP3    H180762   5.325   3.872  -0.007  0.4382  0.1160 -0.5032
19757TIP3    H280763   5.450   3.789   0.014  0.2980 -0.0174 -0.1889
19758TIP3   OH280764   3.891   0.748  13.191  0.0420 -0.0953  0.3048
19758TIP3    H180765   3.943   0.812  13.143 -0.6274  1.8476  2.0355
19758TIP3    H280766   3.954   0.703  13.247  0.3975 -0.4485 -0.3609
19759TIP3   OH280767   1.585   0.440  11.038 -0.2640  0.5171 -0.7122
19759TIP3    H180768   1.584   0.344  11.039 -1.0356  0.5191  0.3972
19759TIP3    H280769   1.546   0.464  10.954  0.5028 -0.1254 -1.2754
19760TIP3   OH280770   3.770   1.975   1.040 -0.3431  0.1762 -0.1873
19760TIP3    H180771   3.823   1.988   1.119 -0.5235 -0.4169  0.0409
19760TIP3    H280772   3.765   1.880   1.030 -1.2593  0.2232 -0.2704
19761TIP3   OH280773   1.510   0.058   0.187 -0.8320  0.4453 -0.1235
19761TIP3    H180774   1.498   0.112   0.265  4.6028 -0.4758  1.8167
19761TIP3    H280775   1.567   0.111   0.131 -0.6094 -0.8445 -1.1604
19762TIP3   OH280776   6.254   3.532  11.056 -0.0146 -0.4041 -0.0851
19762TIP3    H180777   6.294   3.537  10.969 -0.2732 -0.3664 -0.2014
19762TIP3    H280778   6.329   3.531  11.116  0.1717  1.9677 -0.1718
19763TIP3   OH280779   4.697   0.110  12.242 -0.9533 -0.0103 -0.1380
19763TIP3    H180780   4.694   0.203  12.265 -2.3256 -0.3817  1.3771
19763TIP3    H280781   4.605   0.082  12.242 -0.5236 -1.5620  0.3712
19764TIP3   OH280782   3.062   1.401   0.431 -0.3243 -0.7315 -0.0606
19764TIP3    H180783   3.087   1.350   0.354 -2.0698 -0.7034 -0.6988
19764TIP3    H280784   3.004   1.343   0.480  1.3776 -1.0392  1.6893
19765TIP3   OH280785   5.544   6.686  14.183 -0.1111 -0.2854  0.7047
19765TIP3    H180786   5.464   6.636  14.171 -0.4992  0.1198  1.5152
19765TIP3    H280787   5.536   6.724  14.271  0.4481  0.7047  0.3444
19766TIP3   OH280788   3.641   4.311   1.979 -0.1926 -0.3578  0.3136
19766TIP3    H180789   3.701   4.245   1.945  0.0021 -0.1796  0.3144
19766TIP3    H280790   3.638   4.294   2.074  0.9391  0.5164  0.5160
19767TIP3   OH280791   2.002   6.212   2.783  0.6901  0.1512 -0.1549
19767TIP3    H180792   1.995   6.304   2.755  0.3744  0.1537 -0.0739
19767TIP3    H280793   1.957   6.163   2.714  1.3002  0.0043 -0.4596
19768TIP3   OH280794   0.414   2.074   1.751  0.4643  0.8096 -0.0620
19768TIP3    H180795   0.384   2.164   1.766  0.0063  0.8581 -1.1699
19768TIP3    H280796   0.408   2.062   1.656 -1.9812 -1.2411  0.2568
19769TIP3   OH280797   4.083   1.556   0.462  0.4497  0.1333 -0.3283
19769TIP3    H180798   4.039   1.537   0.380  1.1767 -0.2817 -0.6245
19769TIP3    H280799   4.145   1.626   0.441  0.3025  0.3568 -0.0291
19770TIP3   OH280800   2.803   5.474   2.840  0.2029  0.4352 -0.1970
19770TIP3    H180801   2.790   5.411   2.911 -3.1817  1.2558  0.0809
19770TIP3    H280802   2.807   5.559   2.883  1.5871  0.6955 -0.7956
19771TIP3   OH280803   5.976   4.398   3.384 -0.0507 -0.1706 -0.3020
19771TIP3    H180804   6.053   4.363   3.430  0.7939  0.8976 -0.8770
19771TIP3    H280805   5.973   4.349   3.302  0.9959  0.8828 -1.0020
19772TIP3   OH280806   6.453   6.014   4.819 -0.0185 -0.3756  0.0707
19772TIP3    H180807   6.456   5.963   4.900  1.9754 -2.6668 -1.3049
19772TIP3    H280808   6.545   6.019   4.791 -0.5644  1.0551 -1.6504
19773TIP3   OH280809   6.377   2.398  15.894  0.2069 -0.1144 -0.0311
19773TIP3    H180810   6.385   2.401  15.799 -2.4572  0.6498 -0.3095
19773TIP3    H280811   6.355   2.487  15.920  0.7756 -0.3329  1.3305
19774TIP3   OH280812   4.368   2.348   1.021  0.2325  0.1469  0.6300
19774TIP3    H180813   4.284   2.362   1.066  0.9646  0.4697  1.9276
19774TIP3    H280814   4.424   2.419   1.052  0.4488  1.0556 -1.6760
19775TIP3   OH280815   5.406   4.387   0.326  0.2356 -0.0558 -0.1780
19775TIP3    H180816   5.467   4.445   0.280  0.2914 -1.4061 -1.8867
19775TIP3    H280817   5.331   4.443   0.347  1.4547  1.3029  0.7731
19776TIP3   OH280818   2.826   5.439   0.908 -0.1092  0.1058 -0.3870
19776TIP3    H180819   2.853   5.521   0.868  0.6607 -0.7528 -1.7227
19776TIP3    H280820   2.890   5.424   0.978  0.7469 -0.1367 -1.1966
19777TIP3   OH280821   4.310   6.613   0.544  0.1443 -0.2936 -0.0694
19777TIP3    H180822   4.388   6.663   0.566 -0.0429 -0.0021 -0.0618
19777TIP3    H280823   4.297   6.628   0.450 -1.6075  2.1399  0.4587
19778TIP3   OH280824   3.309   1.016  10.606 -0.1941 -0.3883  0.2956
19778TIP3    H180825   3.218   0.996  10.586 -0.7383  2.1031  0.0535
19778TIP3    H280826   3.314   1.111  10.607  2.4791 -0.4399 -0.0048
19779TIP3   OH280827   1.503   2.697  14.261  0.0132  0.3762  0.2857
19779TIP3    H180828   1.587   2.655  14.281  0.7873  1.2708 -0.9897
19779TIP3    H280829   1.439   2.626  14.267  0.8986 -0.3948  0.9267
19780TIP3   OH280830   3.636   3.040   2.699 -0.3991 -0.2348  0.1853
19780TIP3    H180831   3.635   2.951   2.666 -0.5452 -0.5346  0.9700
19780TIP3    H280832   3.582   3.090   2.638  0.5036 -0.4629 -0.8256
19781TIP3   OH280833   1.258   0.064   2.977 -0.2545  0.3949  0.2891
19781TIP3    H180834   1.345   0.026   2.963  0.2041  0.8393  1.7481
19781TIP3    H280835   1.198   0.001   2.936  0.6319 -0.8487  0.8300
19782TIP3   OH280836   3.102   3.313   4.162 -0.2239  0.4327  0.1567
19782TIP3    H180837   3.158   3.376   4.117  0.8193 -0.4329  0.1970
19782TIP3    H280838   3.044   3.366   4.216 -0.7835  1.4392 -1.3858
19783TIP3   OH280839   3.344   2.081  14.194 -0.6627 -0.0742  0.1829
19783TIP3    H180840   3.292   2.048  14.267  1.0391 -2.6197  0.3615
19783TIP3    H280841   3.346   2.009  14.131 -0.1753  1.2216 -1.3469
19784TIP3   OH280842   4.594   1.324   2.372 -0.6100 -0.1016  0.5158
19784TIP3    H180843   4.650   1.303   2.297  0.4246 -1.6017  1.6421
19784TIP3    H280844   4.511   1.353   2.334 -0.5379 -2.0050 -1.2257
19785TIP3   OH280845   0.258   4.624  13.742  0.0999  0.6271 -0.1214
19785TIP3    H180846   0.329   4.604  13.803  0.2413  2.8045  0.5157
19785TIP3    H280847   0.297   4.682  13.677 -0.2515 -1.0394 -1.9034
19786TIP3   OH280848   2.466   0.726  12.831  0.6627 -0.3046  0.3616
19786TIP3    H180849   2.377   0.733  12.797  1.1834  0.0557 -1.0108
19786TIP3    H280850   2.499   0.816  12.832  1.3727 -0.5503 -0.1951
19787TIP3   OH280851   6.108   5.925   5.721  0.2430  0.4620 -0.5272
19787TIP3    H180852   6.115   5.927   5.626  0.3201  0.6185 -0.5191
19787TIP3    H280853   6.097   6.017   5.746  1.1960  0.5299 -0.3139
19788TIP3   OH280854   5.919   4.894  14.578  0.0384 -0.0204  0.3779
19788TIP3    H180855   5.859   4.828  14.544  2.1096 -1.1851 -1.2571
19788TIP3    H280856   5.873   4.977  14.565 -1.5383 -0.9102 -0.0149
19789TIP3   OH280857   0.301   0.153  15.860  0.5994  0.3344 -0.1329
19789TIP3    H180858   0.329   0.068  15.825 -0.1524  0.4737 -1.1117
19789TIP3    H280859   0.327   0.150  15.953  0.7990 -0.8640 -0.2059
19790TIP3   OH280860   1.353   3.446  15.284 -0.3679 -0.3741 -0.0785
19790TIP3    H180861   1.386   3.375  15.339  0.9911 -1.4153 -2.1195
19790TIP3    H280862   1.345   3.408  15.197 -4.6233  0.5560 -0.3196
19791TIP3   OH280863   1.289   5.771   3.182  0.5129  0.4032  0.4306
19791TIP3    H180864   1.245   5.772   3.096  0.0165 -1.2255  0.6250
19791TIP3    H280865   1.328   5.684   3.187 -1.1309 -0.2647  2.6608
19792TIP3   OH280866   1.808   2.921   4.863 -0.0381 -0.3729 -0.0327
19792TIP3    H180867   1.758   2.950   4.788  2.7632 -0.0477 -1.9349
19792TIP3    H280868   1.825   3.001   4.914  1.6489  0.2354 -1.4445
19793TIP3   OH280869   0.049   1.950  12.681  0.0960  0.1735 -0.3663
19793TIP3    H180870   0.029   1.993  12.597  0.2639  1.4348  0.2081
19793TIP3    H280871   0.143   1.967  12.694  0.4128 -1.2655 -0.5945
19794TIP3   OH280872   0.714   6.099  15.435 -0.4512  0.0100  0.2388
19794TIP3    H180873   0.800   6.139  15.426 -1.2457  1.7272 -0.2146
19794TIP3    H280874   0.680   6.096  15.346 -0.8610 -0.6451  0.4138
19795TIP3   OH280875   1.630   4.405   1.601 -0.1981 -0.1226 -0.0800
19795TIP3    H180876   1.677   4.395   1.684 -0.6426 -0.3973  0.1432
19795TIP3    H280877   1.574   4.482   1.613  0.7047  0.6340 -0.5964
19796TIP3   OH280878   3.845   3.665   3.545 -0.5642 -0.1531 -0.4432
19796TIP3    H180879   3.867   3.748   3.588  0.1592  0.1216 -1.3155
19796TIP3    H280880   3.784   3.690   3.475 -1.5411 -0.5691  0.2260
19797TIP3   OH280881   2.959   3.416  13.947 -0.2872 -0.3856 -0.9648
19797TIP3    H180882   3.051   3.436  13.933  0.4686 -1.8567  1.3941
19797TIP3    H280883   2.924   3.492  13.992 -0.1069 -0.0538 -1.3746
19798TIP3   OH280884   3.083   6.356  13.140 -0.1095 -0.2325 -0.3335
19798TIP3    H180885   3.022   6.292  13.176 -0.6305 -0.5974 -1.8047
19798TIP3    H280886   3.046   6.441  13.164  0.0773 -0.4585  0.8003
19799TIP3   OH280887   3.987   2.205   3.012  0.1327 -0.3290 -0.0292
19799TIP3    H180888   3.964   2.289   2.972 -0.2535  0.2784  1.3772
19799TIP3    H280889   3.932   2.141   2.968 -1.0690  0.4669  0.2525
19800TIP3   OH280890   5.738   2.465  11.709 -0.4289 -0.0153  0.0338
19800TIP3    H180891   5.827   2.488  11.681 -0.1616  2.0025  2.1830
19800TIP3    H280892   5.707   2.405  11.642  2.6471 -1.0267 -0.6819
19801TIP3   OH280893   1.365   3.490   6.161 -0.4323 -0.0024 -0.0729
19801TIP3    H180894   1.285   3.543   6.169  0.0870  0.6429  1.1049
19801TIP3    H280895   1.420   3.540   6.100  0.2566  1.1183  1.4154
19802TIP3   OH280896   6.416   3.251   0.749 -0.5686  0.0598  0.3633
19802TIP3    H180897   6.453   3.188   0.687 -1.3356 -1.3563  1.2915
19802TIP3    H280898   6.324   3.226   0.756 -0.1057 -1.1041  3.5141
19803TIP3   OH280899   0.706   0.932   2.462  0.3549 -0.0952  0.1151
19803TIP3    H180900   0.753   0.850   2.450  1.1019  0.0402  1.8925
19803TIP3    H280901   0.678   0.932   2.553  1.8740  2.3479  0.6841
19804TIP3   OH280902   6.234   4.103   5.025 -0.6521 -0.2629 -0.3738
19804TIP3    H180903   6.312   4.066   4.984  0.6837  1.2730  0.6680
19804TIP3    H280904   6.165   4.089   4.961  0.9363  0.3085 -2.3164
19805TIP3   OH280905   2.899   1.964  15.420 -0.0797  0.0301 -0.1525
19805TIP3    H180906   2.968   1.971  15.353 -0.1616 -0.3042 -0.2744
19805TIP3    H280907   2.933   1.900  15.483 -1.0555 -1.5781 -1.1887
19806TIP3   OH280908   2.858   3.600  14.998  0.2868 -0.3048  0.6171
19806TIP3    H180909   2.943   3.559  15.016  0.1727 -1.4401 -1.0959
19806TIP3    H280910   2.794   3.532  15.019 -0.0820 -0.0560  0.3197
19807TIP3   OH280911   1.338   0.489  15.570 -0.0922  0.0615 -0.3201
19807TIP3    H180912   1.421   0.471  15.614  0.1048  1.4568 -0.0717
19807TIP3    H280913   1.272   0.480  15.638  0.0170  0.3282 -0.1745
19808TIP3   OH280914   4.179   0.881  11.311  0.2508 -0.4197  0.3434
19808TIP3    H180915   4.245   0.869  11.380  1.4161  2.1617 -0.1993
19808TIP3    H280916   4.095   0.872  11.357  0.9865 -0.7341  1.6878
19809TIP3   OH280917   1.842   0.875  17.071  0.5499  0.0633  0.1606
19809TIP3    H180918   1.765   0.857  17.018  1.1820 -1.9409 -0.1446
19809TIP3    H280919   1.831   0.966  17.099 -1.1841  0.2747 -1.0640
19810TIP3   OH280920   4.841   5.299   3.416 -0.0732 -0.2730 -0.3582
19810TIP3    H180921   4.907   5.243   3.457 -0.0969 -0.5865 -0.7407
19810TIP3    H280922   4.781   5.238   3.373 -0.7074 -0.0008  0.1175
19811TIP3   OH280923   5.414   4.902  10.151  0.0653 -0.0057 -0.1670
19811TIP3    H180924   5.383   4.814  10.127  1.8299 -0.7247  0.0865
19811TIP3    H280925   5.433   4.896  10.245 -0.9869  1.0321  0.1373
19812TIP3   OH280926   0.305   3.284  16.167 -0.3748  0.2634  0.1647
19812TIP3    H180927   0.357   3.207  16.141 -0.7848  0.4293 -1.2682
19812TIP3    H280928   0.236   3.290  16.101 -0.4449  1.7753  0.3263
19813TIP3   OH280929   0.630   4.853  16.033 -0.0391 -0.5897 -0.1920
19813TIP3    H180930   0.717   4.853  15.993 -0.1665  0.4516 -0.5013
19813TIP3    H280931   0.645   4.818  16.121  0.9173  0.6085  0.1584
19814TIP3   OH280932   0.641   2.556   0.477  0.0759  0.5473 -0.1947
19814TIP3    H180933   0.557   2.569   0.522  0.0683  1.9324 -0.5722
19814TIP3    H280934   0.627   2.591   0.389  1.5241  2.4413  0.2584
19815TIP3   OH280935   5.143   0.628   6.166 -0.1764 -0.7484  0.0723
19815TIP3    H180936   5.111   0.614   6.077 -1.2757  1.7635 -0.0290
19815TIP3    H280937   5.213   0.564   6.178  0.6828 -0.5069 -2.9701
19816TIP3   OH280938   5.587   3.280   4.414 -1.2829 -0.7375  0.3440
19816TIP3    H180939   5.570   3.289   4.507 -0.1409 -0.0761  0.5070
19816TIP3    H280940   5.598   3.186   4.400  0.1753 -0.7225  1.1996
19817TIP3   OH280941   4.276   3.922  13.315 -0.1254  0.2983  0.2401
19817TIP3    H180942   4.236   3.995  13.362 -0.4449  0.9767 -1.0361
19817TIP3    H280943   4.202   3.867  13.289  0.2092 -1.5763  2.8014
19818TIP3   OH280944   6.775   3.747   4.636 -0.4471  0.0892 -0.0095
19818TIP3    H180945   6.687   3.750   4.675 -0.3018  0.7371  0.2954
19818TIP3    H280946   6.819   3.676   4.683 -0.8151 -0.2491 -0.1748
19819TIP3   OH280947   6.107   0.440  14.091  0.1322  0.7346 -0.0252
19819TIP3    H180948   6.149   0.455  14.175  0.3209 -0.2453  0.0618
19819TIP3    H280949   6.090   0.346  14.088 -1.0060  0.9290 -0.5538
19820TIP3   OH280950   4.579   6.744  11.623 -0.6068 -0.1297  0.0708
19820TIP3    H180951   4.600   6.725  11.715 -0.5026 -1.6201 -0.2408
19820TIP3    H280952   4.601   6.836  11.612  0.2629 -0.1680  1.3085
19821TIP3   OH280953   6.113   3.212   1.777 -0.2101 -0.0978 -0.2058
19821TIP3    H180954   6.162   3.294   1.781 -2.4463  1.3266  0.0442
19821TIP3    H280955   6.037   3.233   1.722 -1.2177 -1.7906  0.4577
19822TIP3   OH280956   5.069   4.621   5.265 -0.2932  0.0540  0.1931
19822TIP3    H180957   4.985   4.647   5.302  0.4333  0.3533  1.6869
19822TIP3    H280958   5.094   4.694   5.208  0.7231  1.8118  2.7044
19823TIP3   OH280959   1.943   3.757  16.510 -0.4581 -0.1470 -0.0310
19823TIP3    H180960   1.893   3.782  16.432  0.9183  0.5713 -0.7217
19823TIP3    H280961   1.946   3.837  16.563  0.5961  0.0446 -0.3650
19824TIP3   OH280962   2.740   6.186  12.877  0.0978 -0.9797  0.3789
19824TIP3    H180963   2.759   6.135  12.956  1.2264  0.3870  1.0534
19824TIP3    H280964   2.709   6.270  12.911 -2.8396 -1.5282 -0.7010
19825TIP3   OH280965   5.821   1.889  15.996  0.7274  0.0893  0.0283
19825TIP3    H180966   5.807   1.810  16.048 -0.8190 -0.5330 -1.2552
19825TIP3    H280967   5.915   1.887  15.975  0.3281 -2.8275 -2.0822
19826TIP3   OH280968   0.249   4.175  10.943 -0.0864  0.5098  0.4668
19826TIP3    H180969   0.229   4.264  10.915 -1.3303  0.1957  0.2719
19826TIP3    H280970   0.165   4.139  10.970  0.9563  0.6972  4.5439
19827TIP3   OH280971   4.560   3.095   2.411 -0.5081 -0.1812 -0.3997
19827TIP3    H180972   4.599   3.166   2.361 -2.4618  1.2260 -0.0271
19827TIP3    H280973   4.528   3.034   2.344 -0.3189  0.1199 -0.7705
19828TIP3   OH280974   5.866   4.433   1.055  0.0661 -0.0664  0.3185
19828TIP3    H180975   5.859   4.441   0.960 -1.0336  1.0161  0.4640
19828TIP3    H280976   5.789   4.479   1.088  0.6585 -0.0723  1.7498
19829TIP3   OH280977   2.157   5.001  15.932  0.1277  0.0923 -0.5208
19829TIP3    H180978   2.172   4.943  15.858 -0.4678  0.1056 -0.6578
19829TIP3    H280979   2.070   4.977  15.964  1.7833 -2.5342  2.5543
19830TIP3   OH280980   5.889   5.183   2.852  0.2437  0.3052  0.5933
19830TIP3    H180981   5.821   5.120   2.874 -0.3708  0.2563 -1.2579
19830TIP3    H280982   5.971   5.134   2.856  0.0953  0.1365  1.9339
19831TIP3   OH280983   3.949   3.039   2.446 -0.1251  0.0777  0.6191
19831TIP3    H180984   3.900   2.980   2.503 -0.1488  0.2327  0.7592
19831TIP3    H280985   3.886   3.107   2.422 -0.0415  0.1551  0.6196
19832TIP3   OH280986   1.167   0.463   5.249 -0.6597  0.5934 -0.3103
19832TIP3    H180987   1.186   0.546   5.205 -4.8658  1.2044 -1.4238
19832TIP3    H280988   1.167   0.398   5.179 -2.9551  0.7739 -0.5512
19833TIP3   OH280989   1.037   0.229  14.690  0.5608 -0.0415  0.2336
19833TIP3    H180990   1.121   0.261  14.722  0.4540  0.4685  0.0212
19833TIP3    H280991   1.052   0.210  14.597  0.5731 -0.4305  0.3135
19834TIP3   OH280992   1.229   0.458  13.924  0.2805  0.5511  0.0765
19834TIP3    H180993   1.197   0.531  13.977 -0.6145 -0.5247  1.0774
19834TIP3    H280994   1.304   0.424  13.973 -1.9625 -1.9855  2.1747
19835TIP3   OH280995   5.922   3.632   5.351  0.5844 -0.1991  0.0532
19835TIP3    H180996   6.013   3.656   5.332  0.7749  0.2914  1.4552
19835TIP3    H280997   5.929   3.544   5.388  0.9630  1.1103  3.4545
19836TIP3   OH280998   1.557   5.389   0.453  0.4943 -0.3104 -0.0167
19836TIP3    H180999   1.633   5.443   0.430 -0.0755 -0.0223 -1.2731
19836TIP3    H281000   1.568   5.372   0.547  0.8670  1.7154  0.3507
19837TIP3   OH281001   3.946   0.154  11.585 -0.1668 -0.5930 -0.2518
19837TIP3    H181002   3.961   0.162  11.679 -0.3713 -2.0588 -0.0624
19837TIP3    H281003   4.033   0.162  11.546 -0.2196  1.1871 -0.0584
19838TIP3   OH281004   6.109   4.991   3.686  0.0569 -0.0543  0.0139
19838TIP3    H181005   6.156   5.071   3.662  0.5666 -0.5385 -0.6425
19838TIP3    H281006   6.058   5.015   3.763  1.2643  0.5302  0.6496
19839TIP3   OH281007   3.145   6.064   1.500 -0.0981  0.2015  0.0841
19839TIP3    H181008   3.062   6.016   1.502 -0.5999  1.0621  0.2370
19839TIP3    H281009   3.173   6.068   1.591  0.8272 -1.2673 -0.0947
19840TIP3   OH281010   6.841   4.527   5.639 -0.2112 -0.1871 -0.0907
19840TIP3    H181011   6.766   4.489   5.683 -0.5231 -0.2978 -0.7087
19840TIP3    H281012   6.900   4.554   5.710  0.3729 -2.4852  0.3690
19841TIP3   OH281013   4.735   6.172   2.777 -1.0900 -0.2584  0.1330
19841TIP3    H181014   4.758   6.085   2.811 -1.6709 -0.3714  0.2552
19841TIP3    H281015   4.734   6.228   2.854 -4.2765 -0.8989  0.7060
19842TIP3   OH281016   0.877   4.409  16.935 -0.5513  0.1932  0.4558
19842TIP3    H181017   0.796   4.435  16.979 -1.7284 -1.6060 -0.5283
19842TIP3    H281018   0.848   4.357  16.860  1.5168 -2.4886  1.3635
19843TIP3   OH281019   6.706   3.266   3.141 -0.2985  0.1432 -0.4906
19843TIP3    H181020   6.658   3.185   3.156 -2.2085  1.0479 -1.4417
19843TIP3    H281021   6.786   3.256   3.193 -1.3629 -1.5352  0.9361
19844TIP3   OH281022   5.149   2.292  12.851  0.1692 -0.1610 -0.1031
19844TIP3    H181023   5.221   2.232  12.833 -0.1896 -0.3221 -1.1202
19844TIP3    H281024   5.080   2.265  12.790 -0.7778 -0.0496  0.8845
19845TIP3   OH281025   6.057   3.219  17.042  0.5115 -0.0360 -0.3639
19845TIP3    H181026   5.989   3.206  16.976  1.7208 -0.4420 -1.5762
19845TIP3    H281027   6.107   3.137  17.041  1.1558  0.3314  0.3503
19846TIP3   OH281028   2.820   2.053   2.116 -0.1547 -0.3105  0.3728
19846TIP3    H181029   2.751   2.105   2.158  0.1607  0.5767 -0.1824
19846TIP3    H281030   2.859   2.004   2.188 -0.1283  0.6059  1.0000
19847TIP3   OH281031   5.475   4.921  11.652 -0.1946 -0.6189  0.2571
19847TIP3    H181032   5.410   4.890  11.715 -0.1825  0.0737  0.6272
19847TIP3    H281033   5.438   4.901  11.566 -1.0506  0.0581  0.4521
19848TIP3   OH281034   3.862   5.253   2.625 -0.5044  0.0088  0.0793
19848TIP3    H181035   3.938   5.309   2.644  0.8202 -1.3986 -0.7876
19848TIP3    H281036   3.858   5.250   2.530 -1.1193 -0.6503  0.1207
19849TIP3   OH281037   6.791   5.759  15.225 -0.6642 -0.6142  0.0624
19849TIP3    H181038   6.835   5.836  15.190  0.9515 -0.2588  2.6308
19849TIP3    H281039   6.713   5.748  15.170 -0.0404  1.8164 -1.4192
19850TIP3   OH281040   3.523   6.410  15.037 -0.0039 -0.5634 -0.1025
19850TIP3    H181041   3.618   6.420  15.049 -0.3325  2.4645  0.6796
19850TIP3    H281042   3.485   6.475  15.095 -2.4927  0.0431 -2.2655
19851TIP3   OH281043   1.343   1.814   5.180  0.1450 -0.1184  0.0955
19851TIP3    H181044   1.312   1.794   5.269 -0.2349 -1.4798 -0.3283
19851TIP3    H281045   1.263   1.833   5.131  0.4878  4.5096  0.8416
19852TIP3   OH281046   6.644   0.124   0.796 -0.4379 -0.2228  0.2846
19852TIP3    H181047   6.601   0.132   0.711  1.1023  0.8834 -0.4346
19852TIP3    H281048   6.705   0.051   0.786 -0.5930 -0.3968  0.5936
19853TIP3   OH281049   0.751   0.314  15.603 -0.1764  0.1532  0.2654
19853TIP3    H181050   0.736   0.385  15.540 -0.3613 -0.3960 -0.3213
19853TIP3    H281051   0.846   0.311  15.613 -0.2008  0.9921  0.9016
19854TIP3   OH281052   2.923   3.223   2.729  0.2602  0.0843 -0.4590
19854TIP3    H181053   2.879   3.138   2.733  2.3505 -1.0286  2.0645
19854TIP3    H281054   2.855   3.284   2.702 -1.3061 -2.3475 -2.5743
19855TIP3   OH281055   2.801   2.545  16.381  0.0874 -0.4083 -0.3527
19855TIP3    H181056   2.754   2.626  16.363 -0.0439 -0.4139 -0.0363
19855TIP3    H281057   2.734   2.485  16.413 -0.2288 -1.3095 -2.4909
19856TIP3   OH281058   3.362   3.424  11.269  0.0611 -0.2089 -0.0635
19856TIP3    H181059   3.390   3.421  11.177  0.6894  2.1096 -0.0021
19856TIP3    H281060   3.282   3.371  11.271 -1.1992  1.3924 -2.4426
19857TIP3   OH281061   4.126   4.119  12.590 -0.1147 -0.4572  0.1661
19857TIP3    H181062   4.100   4.210  12.573 -1.6088 -0.7919  0.5480
19857TIP3    H281063   4.146   4.084  12.503  0.8528  0.3229  0.0489
19858TIP3   OH281064   1.860   5.097   0.523  0.0486  0.0428  0.0798
19858TIP3    H181065   1.954   5.081   0.527 -0.0490 -0.5222  0.2250
19858TIP3    H281066   1.852   5.192   0.517  0.6393  0.0682 -0.3573
19859TIP3   OH281067   4.687   0.976  14.747  0.6007 -0.2863 -0.5298
19859TIP3    H181068   4.757   0.993  14.684 -0.6044 -0.8813 -2.0725
19859TIP3    H281069   4.612   0.947  14.694 -0.6913 -0.0996  1.1008
19860TIP3   OH281070   1.426   1.677  11.838 -0.2954  0.3758  0.4057
19860TIP3    H181071   1.374   1.752  11.810 -1.5227 -0.6308 -0.1230
19860TIP3    H281072   1.381   1.645  11.916 -1.1440 -1.1410 -0.6558
19861TIP3   OH281073   2.063   5.639   4.100  0.0803 -0.9780 -0.1103
19861TIP3    H181074   2.104   5.651   4.014 -0.6893 -0.0710 -0.3638
19861TIP3    H281075   1.969   5.631   4.081 -0.2050  0.1669  0.7059
19862TIP3   OH281076   1.026   2.617  12.860  0.4151  0.0988  0.4545
19862TIP3    H181077   0.932   2.630  12.874  0.5999  0.8758  1.0452
19862TIP3    H281078   1.066   2.700  12.886  0.9799  1.1394 -3.1333
19863TIP3   OH281079   1.574   4.064   0.258 -0.7369 -0.2123 -0.2319
19863TIP3    H181080   1.496   4.054   0.312  0.6109 -0.7194  1.7078
19863TIP3    H281081   1.617   4.143   0.292 -0.1429 -0.2218 -0.9260
19864TIP3   OH281082   5.306   5.061   0.464 -0.0531  0.1094  0.0316
19864TIP3    H181083   5.393   5.046   0.502  0.5107 -0.2144 -1.3282
19864TIP3    H281084   5.266   4.974   0.460 -0.7685  0.3540  1.3613
19865TIP3   OH281085   3.714   2.941   0.221  0.2246 -0.5957  0.0814
19865TIP3    H181086   3.798   2.951   0.177  0.6345 -0.2662  0.9269
19865TIP3    H281087   3.673   2.867   0.176  0.2603  0.2484 -1.4144
19866TIP3   OH281088   6.572   6.813  11.657  0.2432  0.4196  0.1343
19866TIP3    H181089   6.552   6.727  11.694  1.1118  0.4810  0.7858
19866TIP3    H281090   6.663   6.805  11.627  0.2312  1.0242 -0.0794
19867TIP3   OH281091   0.134   3.436   5.308 -0.1185  0.1866  0.3796
19867TIP3    H181092   0.101   3.460   5.395  1.6471  1.2188  0.8228
19867TIP3    H281093   0.089   3.354   5.287 -0.1400 -0.4463  2.5687
19868TIP3   OH281094   5.249   4.126  16.577  0.5034  0.7539 -0.1733
19868TIP3    H181095   5.193   4.186  16.527  0.1572  0.3998 -0.2183
19868TIP3    H281096   5.277   4.061  16.513 -1.4787 -0.8065  0.4428
19869TIP3   OH281097   3.171   4.454  15.874 -0.4638 -0.3910 -0.2048
19869TIP3    H181098   3.096   4.401  15.847  0.3082 -1.2058 -0.8118
19869TIP3    H281099   3.239   4.390  15.897 -0.2325  0.3037  1.2131
19870TIP3   OH281100   6.147   3.246  15.505 -0.0734 -0.0564 -0.3630
19870TIP3    H181101   6.095   3.207  15.435 -0.3073 -0.2923 -0.0656
19870TIP3    H281102   6.113   3.204  15.585  2.1489 -2.0091 -0.3430
19871TIP3   OH281103   6.790   4.121  13.818 -0.5059  0.3081  0.3527
19871TIP3    H181104   6.808   4.214  13.834 -1.4189  0.5082  0.2992
19871TIP3    H281105   6.817   4.077  13.898 -0.6063  0.7005  0.6075
19872TIP3   OH281106   4.907   6.762  12.281  0.8672  0.0838 -0.3215
19872TIP3    H181107   4.830   6.810  12.250  1.0172  0.1001 -0.6715
19872TIP3    H281108   4.937   6.812  12.358  0.1771 -0.2620  0.1848
19873TIP3   OH281109   5.954   2.039   0.823  0.4838 -0.7025 -0.2455
19873TIP3    H181110   6.033   1.994   0.852  0.7581 -0.9323 -1.3111
19873TIP3    H281111   5.893   1.969   0.801  0.2182 -0.5310 -0.0630
19874TIP3   OH281112   5.594   2.307   1.601 -0.1341  0.4075 -0.1912
19874TIP3    H181113   5.575   2.390   1.558  0.8589  0.9125  0.3027
19874TIP3    H281114   5.540   2.309   1.680  0.5053  0.9793  0.2474
19875TIP3   OH281115   0.455   6.525   5.811 -0.2970  0.2243 -0.7099
19875TIP3    H181116   0.492   6.490   5.730  0.8311 -2.9162  0.9801
19875TIP3    H281117   0.388   6.462   5.836 -0.0359  0.6440  1.2006
19876TIP3   OH281118   4.523   1.515  15.015  0.0744 -0.3497 -0.0965
19876TIP3    H181119   4.567   1.584  15.066 -3.2304  1.2668  0.8792
19876TIP3    H281120   4.536   1.435  15.066 -0.1344  0.5518  1.4367
19877TIP3   OH281121   3.882   3.299  14.721 -0.2638 -0.0757 -0.6845
19877TIP3    H181122   3.929   3.253  14.652 -1.0916  0.1025 -1.3773
19877TIP3    H281123   3.829   3.232  14.764 -1.8807  0.2686 -2.0376
19878TIP3   OH281124   3.023   1.564   0.878 -0.3136  0.7694  0.1800
19878TIP3    H181125   3.031   1.511   0.799  0.3645  0.6785  0.3015
19878TIP3    H281126   3.049   1.652   0.850  1.0056  0.5220  0.5236
19879TIP3   OH281127   1.764   0.411   5.393 -0.6004 -0.0961  0.4840
19879TIP3    H181128   1.822   0.342   5.360 -0.0063  0.3211  0.6524
19879TIP3    H281129   1.680   0.394   5.350  0.0926  0.3040 -1.0622
19880TIP3   OH281130   3.520   0.630   4.356 -0.4211 -0.0068 -0.2362
19880TIP3    H181131   3.482   0.602   4.439 -1.5219  0.9890 -0.3720
19880TIP3    H281132   3.446   0.630   4.295  0.1441  0.3383 -0.9431
19881TIP3   OH281133   6.372   3.496  13.146 -0.3301  0.3836 -0.5579
19881TIP3    H181134   6.444   3.521  13.087  0.3079  0.1798  0.1233
19881TIP3    H281135   6.395   3.409  13.177 -0.5384  0.5877  0.1858
19882TIP3   OH281136   0.125   5.088  15.728  0.2428 -0.4733  0.3412
19882TIP3    H181137   0.209   5.114  15.690 -0.9675  1.7888 -1.0487
19882TIP3    H281138   0.078   5.047  15.656 -0.8571  0.8811  0.2399
19883TIP3   OH281139   6.135   0.445   4.944 -0.3566  0.4956 -0.4839
19883TIP3    H181140   6.186   0.434   5.024 -1.3811 -0.2792  0.0872
19883TIP3    H281141   6.044   0.443   4.973 -0.9191 -3.3197 -1.9752
19884TIP3   OH281142   4.474   6.284  10.624  0.3128  0.7398 -0.2365
19884TIP3    H181143   4.495   6.364  10.575 -0.3831  1.3256  0.4020
19884TIP3    H281144   4.557   6.235  10.627  0.2203  0.2781 -2.6934
19885TIP3   OH281145   2.935   3.199   0.608  0.3514 -0.6870 -0.8669
19885TIP3    H181146   2.960   3.133   0.673 -1.2635  0.6949  1.3337
19885TIP3    H281147   2.841   3.212   0.623  0.3407  1.1106 -2.1551
19886TIP3   OH281148   3.264   1.274   3.855  1.3769 -0.1624  0.0427
19886TIP3    H181149   3.298   1.338   3.917  1.2882 -0.1670  0.0958
19886TIP3    H281150   3.199   1.321   3.804  0.6107 -0.4547  0.7221
19887TIP3   OH281151   4.472   5.665   1.112  0.0919  0.1856 -0.2568
19887TIP3    H181152   4.537   5.717   1.066  0.3692  0.4470  0.4188
19887TIP3    H281153   4.524   5.603   1.164 -0.1140  1.4148  1.5071
19888TIP3   OH281154   3.904   4.904  15.278 -0.6433 -0.4775 -0.1677
19888TIP3    H181155   3.981   4.929  15.227 -0.9815  0.5158 -0.2226
19888TIP3    H281156   3.875   4.822  15.240  0.4031 -0.8861 -0.1239
19889TIP3   OH281157   3.286   5.245  16.741  0.2398 -0.3921  0.0877
19889TIP3    H181158   3.262   5.282  16.656  1.1199  1.2186  0.4926
19889TIP3    H281159   3.381   5.253  16.745  0.1223  0.7816  1.7114
19890TIP3   OH281160   0.987   4.032   1.480  0.3506 -0.0546  0.0234
19890TIP3    H181161   0.932   4.070   1.548  1.9489  0.2638  1.1864
19890TIP3    H281162   0.942   3.950   1.456 -0.1133 -0.2944  1.6291
19891TIP3   OH281163   3.763   2.652  10.672  0.8267  0.3333 -0.2267
19891TIP3    H181164   3.668   2.641  10.666  0.5940  0.6877  1.8440
19891TIP3    H281165   3.779   2.739  10.636  0.1141  0.9534  0.8815
19892TIP3   OH281166   1.971   2.617  13.606 -0.1682  0.2576 -0.2066
19892TIP3    H181167   1.953   2.587  13.695  2.0107  0.0053  0.1945
19892TIP3    H281168   1.899   2.677  13.586 -2.6672 -2.3260  0.3444
19893TIP3   OH281169   4.049   4.852  11.240 -0.2874 -0.1914  0.1269
19893TIP3    H181170   3.987   4.858  11.168  2.0813  0.6749 -2.0068
19893TIP3    H281171   4.103   4.931  11.232  0.3148 -0.2618  2.6457
19894TIP3   OH281172   1.841   3.723   0.108  0.2528  0.1183 -0.0813
19894TIP3    H181173   1.838   3.631   0.133  0.2845  0.3049  0.6326
19894TIP3    H281174   1.926   3.734   0.065 -0.2271 -0.4365 -1.2200
19895TIP3   OH281175   5.061   5.182   1.998  0.1173 -0.4239  0.2660
19895TIP3    H181176   5.098   5.264   1.966  0.2086 -1.3583 -2.2373
19895TIP3    H281177   4.986   5.208   2.052  1.5904  1.3323  1.5868
19896TIP3   OH281178   1.846   2.177   4.750  0.0089  0.1046 -0.3872
19896TIP3    H181179   1.819   2.145   4.836 -3.8810 -0.7312 -1.7085
19896TIP3    H281180   1.921   2.122   4.726  0.9398  0.1005  2.2140
19897TIP3   OH281181   1.178   5.773   5.442 -0.2235 -0.2126 -0.4356
19897TIP3    H181182   1.139   5.799   5.526 -0.9720  0.5730 -0.9998
19897TIP3    H281183   1.255   5.722   5.466  0.3508  1.1317  0.7418
19898TIP3   OH281184   2.057   5.668   6.509 -0.3844 -0.3321 -0.1907
19898TIP3    H181185   2.092   5.593   6.461  0.5802  0.3650 -0.6152
19898TIP3    H281186   2.063   5.643   6.601  1.3996 -0.1845 -0.2450
19899TIP3   OH281187   5.733   1.223   2.758 -0.4443  0.2701  0.0662
19899TIP3    H181188   5.797   1.247   2.691  0.3375 -1.7728 -0.0096
19899TIP3    H281189   5.754   1.280   2.833 -0.1161  1.2800 -0.7772
19900TIP3   OH281190   1.085   0.535   1.159 -0.8419  0.1389 -0.2986
19900TIP3    H181191   1.175   0.562   1.181  0.1732 -1.2050 -2.4106
19900TIP3    H281192   1.045   0.514   1.243 -0.0213  3.0027  0.9742
19901TIP3   OH281193   5.597   3.500   1.278  0.4840 -0.2704 -0.1696
19901TIP3    H181194   5.523   3.512   1.338  0.6018  1.3718 -0.2943
19901TIP3    H281195   5.572   3.426   1.223 -0.0518 -1.1993  1.2673
19902TIP3   OH281196   2.016   4.060  11.319 -0.0081  0.2456 -0.7725
19902TIP3    H181197   2.094   4.115  11.323  0.3990 -0.3726  0.2280
19902TIP3    H281198   2.048   3.972  11.339 -0.8371 -0.1452 -1.1380
19903TIP3   OH281199   1.971   4.643   4.223  0.2199  0.2460  0.5152
19903TIP3    H181200   2.004   4.576   4.163  0.7046  0.3754  0.6374
19903TIP3    H281201   1.932   4.594   4.295 -0.2618  0.0900  0.1561
19904TIP3   OH281202   3.393   3.241   4.107  0.8060 -0.5119  0.5997
19904TIP3    H181203   3.373   3.177   4.176  0.5055 -0.2488  0.7614
19904TIP3    H281204   3.399   3.324   4.154  1.3540 -0.4452  0.4125
19905TIP3   OH281205   6.140   0.830   3.459  0.2143  0.0490  0.3751
19905TIP3    H181206   6.060   0.786   3.488 -0.2227  1.0679  0.7982
19905TIP3    H281207   6.109   0.914   3.424  1.0288  0.0959 -0.2557
19906TIP3   OH281208   3.896   0.566  13.829  0.1085 -0.0043  0.3392
19906TIP3    H181209   3.833   0.576  13.757  3.7242 -1.1410 -3.3744
19906TIP3    H281210   3.931   0.653  13.843  0.1946  0.0411 -0.1356
19907TIP3   OH281211   2.089   6.687   3.786 -0.3408  0.1076 -0.4647
19907TIP3    H181212   2.164   6.677   3.844  0.5607 -0.7260 -1.7003
19907TIP3    H281213   2.128   6.705   3.700 -1.4444 -2.0483 -1.4870
19908TIP3   OH281214   2.126   2.612   2.406  0.1370  0.5409  0.3381
19908TIP3    H181215   2.082   2.638   2.325  1.7947 -0.0729 -0.8059
19908TIP3    H281216   2.055   2.581   2.463 -0.9284 -0.3209 -1.3822
19909TIP3   OH281217   4.590   2.302  11.631  0.3767 -0.7208  0.3103
19909TIP3    H181218   4.649   2.282  11.558 -0.2241  3.2490 -1.5015
19909TIP3    H281219   4.647   2.337  11.700  0.6616 -2.1675  0.8454
19910TIP3   OH281220   1.897   4.580  14.481  1.0507 -0.9756  0.1694
19910TIP3    H181221   1.901   4.650  14.545  1.8503 -1.7586  1.0052
19910TIP3    H281222   1.921   4.501  14.529 -0.3322 -1.9329 -0.6202
19911TIP3   OH281223   0.485   3.071  16.111  0.2163  0.5478 -0.3535
19911TIP3    H181224   0.517   3.025  16.189 -0.3049  1.9953  0.7828
19911TIP3    H281225   0.564   3.090  16.060  0.7107  0.5376  0.3964
19912TIP3   OH281226   1.171   2.947   3.801 -0.0064 -0.2696 -0.1218
19912TIP3    H181227   1.199   2.865   3.762 -0.2843 -0.1392 -0.6075
19912TIP3    H281228   1.214   2.950   3.886  1.0390 -0.3047 -0.6340
19913TIP3   OH281229   3.676   2.043   6.277  0.7518 -0.4058 -0.0764
19913TIP3    H181230   3.589   2.057   6.239  0.7126 -0.0237  0.1487
19913TIP3    H281231   3.717   2.129   6.275  0.8261 -0.4232  0.5532
19914TIP3   OH281232   1.664   1.259   2.531  0.0845  0.1039  0.4379
19914TIP3    H181233   1.572   1.272   2.510  0.0560 -1.3872 -0.5384
19914TIP3    H281234   1.664   1.199   2.605  0.2755  1.0310  1.2081
19915TIP3   OH281235   4.034   5.634   0.611  0.0818 -0.4679  0.1951
19915TIP3    H181236   3.947   5.643   0.574 -0.7465  0.7429  2.2570
19915TIP3    H281237   4.020   5.608   0.702  1.6923  1.7479  1.2050
19916TIP3   OH281238   2.030   2.651  12.255 -0.5834  0.2846  0.5411
19916TIP3    H181239   1.985   2.708  12.193 -0.9460 -0.4745  0.0984
19916TIP3    H281240   1.995   2.564  12.238  1.6685 -0.5201 -0.4517
19917TIP3   OH281241   1.315   3.571  14.064 -0.0407  0.2549  0.0501
19917TIP3    H181242   1.375   3.498  14.051  0.2244  0.5949 -0.6887
19917TIP3    H281243   1.228   3.530  14.066  0.0665 -0.0337 -0.8406
19918TIP3   OH281244   6.714   5.146   4.672 -0.1256 -0.3373 -0.2374
19918TIP3    H181245   6.714   5.050   4.665  0.9390 -0.3004 -0.8347
19918TIP3    H281246   6.804   5.172   4.656 -0.3828  0.7732  0.0111
19919TIP3   OH281247   6.246   3.611   2.476 -0.4028 -0.3543 -0.2763
19919TIP3    H181248   6.340   3.630   2.471 -0.6069  0.7814 -0.1041
19919TIP3    H281249   6.221   3.590   2.386 -0.6456  2.8430 -1.0755
19920TIP3   OH281250   6.738   2.920  11.810 -0.4424  0.1206 -0.5139
19920TIP3    H181251   6.745   2.922  11.715 -2.1361 -0.1521 -0.6642
19920TIP3    H281252   6.734   2.827  11.832  1.9810  0.0704  0.0422
19921TIP3   OH281253   0.746   2.728   6.070 -0.6846 -0.1840 -0.1541
19921TIP3    H181254   0.803   2.771   6.133  0.6124 -3.3398  1.0517
19921TIP3    H281255   0.804   2.669   6.021 -2.3423 -0.8725 -1.3955
19922TIP3   OH281256   2.320   2.282   2.544  0.3196  0.0019 -0.3847
19922TIP3    H181257   2.384   2.250   2.480  0.1994  0.2100 -0.6125
19922TIP3    H281258   2.245   2.310   2.491  1.0519  2.2247 -0.3647
19923TIP3   OH281259   5.743   3.439  12.152 -1.0254 -0.2423 -0.2949
19923TIP3    H181260   5.740   3.427  12.247 -1.8372  1.0383 -0.1407
19923TIP3    H281261   5.652   3.437  12.124 -0.7368 -2.1860 -1.3005
19924TIP3   OH281262   2.071   3.734  13.136 -0.0548  0.1730  0.0323
19924TIP3    H181263   2.164   3.753  13.121 -0.0817  0.3513  0.0865
19924TIP3    H281264   2.042   3.804  13.195 -0.1472 -0.0594  0.2658
19925TIP3   OH281265   3.536   5.631   2.850 -0.0443  0.1441 -0.7747
19925TIP3    H181266   3.556   5.714   2.895 -0.2446 -0.1513 -0.1207
19925TIP3    H281267   3.472   5.655   2.784 -1.1688  0.3114  0.3291
19926TIP3   OH281268   6.612   6.765   5.368 -0.2566 -0.2987 -0.1137
19926TIP3    H181269   6.644   6.773   5.278 -0.2844 -2.6491 -0.3869
19926TIP3    H281270   6.671   6.820   5.419 -0.3745  1.2583 -1.5616
19927TIP3   OH281271   2.602   5.982   0.571  0.1020 -0.1119 -0.2745
19927TIP3    H181272   2.535   6.041   0.535 -0.3173 -0.6564 -0.3881
19927TIP3    H281273   2.622   6.018   0.657 -2.5109 -1.6027  1.0837
19928TIP3   OH281274   0.735   4.333   4.046  1.0087  0.4111  0.3068
19928TIP3    H181275   0.805   4.277   4.015 -0.2676 -1.0238 -0.0934
19928TIP3    H281276   0.744   4.414   3.995  1.2915 -0.4271 -1.0154
19929TIP3   OH281277   0.864   6.094   4.259 -0.0870  0.2761 -0.3807
19929TIP3    H181278   0.775   6.064   4.275 -0.4912  1.4060 -0.4133
19929TIP3    H281279   0.862   6.132   4.171  0.3200  0.7058 -0.2108
19930TIP3   OH281280   5.149   4.587  16.286 -0.0065  0.3358 -0.1990
19930TIP3    H181281   5.111   4.592  16.198 -1.4917 -0.7224  0.3467
19930TIP3    H281282   5.218   4.654  16.286  0.3155  0.0882 -2.2924
19931TIP3   OH281283   4.982   0.925   2.044 -0.4181  0.6521 -0.4233
19931TIP3    H181284   5.043   0.969   2.104 -1.1128  1.4712 -0.3041
19931TIP3    H281285   5.035   0.903   1.968  0.4945 -0.4470  0.4994
19932TIP3   OH281286   1.791   1.767  13.444 -0.4443 -0.3238  0.1275
19932TIP3    H181287   1.719   1.819  13.478 -1.9479 -1.2733 -1.4238
19932TIP3    H281288   1.784   1.683  13.488 -0.2825 -0.4153 -0.0179
19933TIP3   OH281289   5.422   5.615   5.263  0.1647  0.2966 -0.1226
19933TIP3    H181290   5.441   5.677   5.192  0.0597 -0.8950 -1.2470
19933TIP3    H281291   5.414   5.669   5.341 -0.5734  1.7651 -1.1621
19934TIP3   OH281292   1.641   0.624   1.894 -0.4749 -0.1869 -0.4538
19934TIP3    H181293   1.634   0.601   1.801 -0.0102 -2.0164 -0.0789
19934TIP3    H281294   1.559   0.593   1.933 -0.1237 -0.6119 -0.0404
19935TIP3   OH281295   3.733   6.074  15.509  0.3230  0.0130  0.0892
19935TIP3    H181296   3.713   6.148  15.451 -1.4410 -1.0549 -0.7510
19935TIP3    H281297   3.651   6.025  15.514  1.7455 -2.5793 -0.3647
19936TIP3   OH281298   5.957   6.566   0.943  0.3537 -0.3395 -0.4614
19936TIP3    H181299   6.000   6.553   1.027  0.3711 -0.2919 -0.4627
19936TIP3    H281300   5.928   6.658   0.945 -0.4215 -0.5805 -0.1439
19937TIP3   OH281301   2.208   5.481   3.579  0.4649  0.0477  0.4371
19937TIP3    H181302   2.227   5.469   3.486  3.8858 -1.4666  1.1408
19937TIP3    H281303   2.280   5.536   3.611  0.3790 -0.8931  2.4255
19938TIP3   OH281304   0.574   1.818  13.046 -0.2330 -0.0547 -0.2542
19938TIP3    H181305   0.584   1.790  13.137 -0.6454 -0.8989 -0.4558
19938TIP3    H281306   0.567   1.736  12.997 -0.7974  0.4069 -0.9570
19939TIP3   OH281307   5.084   4.591  12.049  0.4982 -0.6562  0.2389
19939TIP3    H181308   5.011   4.623  11.996  0.4723 -0.4073  0.4213
19939TIP3    H281309   5.048   4.586  12.138  0.6269 -0.7885  0.2831
19940TIP3   OH281310   4.146   1.362  12.549  0.0039  0.1703  0.6459
19940TIP3    H181311   4.093   1.304  12.495  0.8004 -2.3546  2.4189
19940TIP3    H281312   4.084   1.427  12.583 -1.1875 -0.4043 -0.3616
19941TIP3   OH281313   3.673   1.233  15.008 -0.2162 -0.1756 -0.4809
19941TIP3    H181314   3.591   1.216  15.053  0.2467  0.6535  0.7157
19941TIP3    H281315   3.732   1.266  15.076  0.3315  1.7090 -1.7815
19942TIP3   OH281316   6.202   0.807  13.282  0.1963 -0.1370 -0.3757
19942TIP3    H181317   6.274   0.869  13.273  2.1885 -2.5410 -2.5887
19942TIP3    H281318   6.180   0.782  13.192 -2.0976 -0.9568  0.3248
19943TIP3   OH281319   6.721   3.141   1.788 -0.2804  0.5397 -0.3469
19943TIP3    H181320   6.717   3.208   1.856 -0.9840  0.4177 -0.2610
19943TIP3    H281321   6.640   3.152   1.738 -0.8221 -0.7866  0.1904
19944TIP3   OH281322   4.075   4.774   3.549  0.3200  0.5326 -0.0354
19944TIP3    H181323   4.037   4.775   3.462 -1.1795  0.1578  0.5847
19944TIP3    H281324   4.102   4.865   3.564  2.7262  0.2047 -1.7191
19945TIP3   OH281325   0.159   5.958  13.114 -0.9020 -0.5911  0.2920
19945TIP3    H181326   0.211   5.969  13.034  0.7537 -3.9316  0.7373
19945TIP3    H281327   0.115   6.042  13.126  0.8952  0.9157 -2.6194
19946TIP3   OH281328   1.035   0.495   4.893  0.2384 -0.0389  0.5495
19946TIP3    H181329   0.952   0.478   4.849  0.6384 -0.4327 -0.0733
19946TIP3    H281330   1.020   0.574   4.944 -0.6347 -0.3325  0.7618
19947TIP3   OH281331   2.036   4.433  13.847 -0.0975  0.0850  0.5899
19947TIP3    H181332   1.949   4.469  13.829  0.3796 -0.0424 -2.4054
19947TIP3    H281333   2.088   4.456  13.771  2.3012 -0.5750  1.9283
19948TIP3   OH281334   3.413   4.937  12.470 -0.3432 -0.6537 -0.2071
19948TIP3    H181335   3.338   4.879  12.463 -1.2427  0.1285  2.0959
19948TIP3    H281336   3.388   5.002  12.536  1.1219  1.6012 -1.7021
19949TIP3   OH281337   4.487   4.877  11.698  0.1404 -0.2298  0.4707
19949TIP3    H181338   4.482   4.970  11.722  0.6537 -0.1605  0.3072
19949TIP3    H281339   4.580   4.857  11.696  0.0302 -0.8019  0.6899
19950TIP3   OH281340   2.573   2.689  13.861  0.2037  0.6035  0.4391
19950TIP3    H181341   2.505   2.757  13.865  1.0679  1.4446  1.3469
19950TIP3    H281342   2.563   2.640  13.942  1.9201  1.9995  1.5646
19951TIP3   OH281343   2.612   0.455  16.710 -0.4526  0.8144  0.4156
19951TIP3    H181344   2.624   0.479  16.802  1.0249 -0.7764  0.6863
19951TIP3    H281345   2.671   0.381  16.696 -1.6611  0.1207 -1.4654
19952TIP3   OH281346   6.647   6.689   2.385  0.1345 -0.1651  0.2794
19952TIP3    H181347   6.740   6.707   2.374  0.0757  0.8861  1.2018
19952TIP3    H281348   6.615   6.669   2.297  1.0013  0.6728 -0.2418
19953TIP3   OH281349   2.871   5.663  12.601  0.0797 -0.0433  0.5838
19953TIP3    H181350   2.831   5.579  12.621  0.6574 -0.1708  1.2573
19953TIP3    H281351   2.857   5.676  12.508 -1.1551 -0.2755  0.7165
19954TIP3   OH281352   5.225   1.302   5.777 -0.6238 -0.1581 -0.4972
19954TIP3    H181353   5.268   1.295   5.862 -0.8003 -0.4584 -0.4283
19954TIP3    H281354   5.289   1.267   5.715 -0.4712  0.1185 -0.4963
19955TIP3   OH281355   5.468   6.822  16.850  0.4145 -0.0266  0.3756
19955TIP3    H181356   5.479   6.737  16.893 -1.5120 -1.1505 -1.1535
19955TIP3    H281357   5.409   6.870  16.907  0.2687 -0.3537  0.5081
19956TIP3   OH281358   4.715   1.504  13.193  0.6370  0.0908  0.1101
19956TIP3    H181359   4.702   1.426  13.247 -1.1550  0.7261  0.6496
19956TIP3    H281360   4.737   1.470  13.106 -1.0815 -1.0699  0.0857
19957TIP3   OH281361   5.277   0.641  14.511  0.2346 -0.1691 -0.2606
19957TIP3    H181362   5.234   0.599  14.437 -1.3550  1.4207 -0.3152
19957TIP3    H281363   5.288   0.732  14.485  0.9359  0.1159  0.9268
19958TIP3   OH281364   1.536   6.054   0.089  0.1552  0.2652  0.0302
19958TIP3    H181365   1.499   6.075   0.003  2.0377  2.1761 -0.3967
19958TIP3    H281366   1.470   6.085   0.151 -0.9372 -0.5304 -0.6892
19959TIP3   OH281367   2.922   1.066   0.856 -0.7063  0.1740  0.4909
19959TIP3    H181368   2.976   1.105   0.787 -1.3130 -0.9111 -0.6466
19959TIP3    H281369   2.982   1.054   0.930  0.8889 -1.7099 -0.9864
19960TIP3   OH281370   2.059   4.510  13.444  0.6665  0.0778  0.1405
19960TIP3    H181371   2.074   4.444  13.511  1.3248  0.3177  0.2370
19960TIP3    H281372   2.018   4.583  13.490 -0.2483 -0.3300 -0.0040
19961TIP3   OH281373   1.347   4.884   0.014 -0.6369 -0.2186 -0.4561
19961TIP3    H181374   1.362   4.805   0.067  3.2345  0.8219  0.2911
19961TIP3    H281375   1.378   4.860  -0.073 -0.0827  0.2697 -0.3940
19962TIP3   OH281376   4.193   0.956  16.497  0.1977 -0.3299 -0.3421
19962TIP3    H181377   4.192   0.977  16.590  1.2663  1.3748 -0.6654
19962TIP3    H281378   4.120   1.006  16.460 -0.7735 -1.6940 -0.3088
19963TIP3   OH281379   3.456   1.702  13.719 -0.1726 -0.3233  0.2198
19963TIP3    H181380   3.469   1.623  13.770 -0.7760 -1.4003 -1.2381
19963TIP3    H281381   3.437   1.671  13.631  1.0542  1.4755 -0.7461
19964TIP3   OH281382   4.041   0.416   5.140  0.0006  0.3299 -0.0343
19964TIP3    H181383   3.995   0.365   5.073 -1.5445  0.4267  0.9062
19964TIP3    H281384   4.067   0.351   5.205 -3.1018  0.7114  1.8181
19965TIP3   OH281385   1.270   5.409   5.283  0.2283  0.2916  0.2213
19965TIP3    H181386   1.255   5.315   5.283 -0.5471  0.4008  1.0410
19965TIP3    H281387   1.208   5.443   5.217 -0.0571  0.3025  0.4925
19966TIP3   OH281388   0.071   2.678   5.674  0.2317 -0.4354  0.5604
19966TIP3    H181389   0.004   2.656   5.609 -0.4802  0.3530  1.0018
19966TIP3    H281390   0.049   2.767   5.702  0.7825 -0.5977  1.5696
19967TIP3   OH281391   5.136   2.234   2.465  0.1246  0.4119 -0.1879
19967TIP3    H181392   5.201   2.251   2.397  0.7051  1.8336  0.6724
19967TIP3    H281393   5.180   2.175   2.527  0.5622  1.2504  0.3142
19968TIP3   OH281394   3.296   6.080  12.238 -0.3341  0.3188 -0.1916
19968TIP3    H181395   3.366   6.132  12.276 -0.3344 -0.6971  1.2678
19968TIP3    H281396   3.243   6.143  12.189 -0.6198  1.8022  1.9202
19969TIP3   OH281397   5.264   1.789  14.179  0.5003 -0.2695 -0.4256
19969TIP3    H181398   5.181   1.835  14.169  1.0645  0.8545 -0.1644
19969TIP3    H281399   5.240   1.697  14.188 -0.6140 -0.1603 -1.8884
19970TIP3   OH281400   2.220   0.967   1.069 -0.4192  0.2049  0.4908
19970TIP3    H181401   2.270   0.888   1.094  1.1698  1.0259  0.0682
19970TIP3    H281402   2.216   0.963   0.974 -0.2307  0.6865  0.4604
19971TIP3   OH281403   0.423   0.756   4.018  0.0349  0.2878  0.1174
19971TIP3    H181404   0.491   0.689   4.012 -0.9602 -0.6472 -1.9788
19971TIP3    H281405   0.424   0.784   4.109  1.2747 -1.7576  0.7917
19972TIP3   OH281406   0.187   1.495  10.870 -0.3515  0.0838  0.1982
19972TIP3    H181407   0.104   1.460  10.903  0.2767 -0.1169  1.6826
19972TIP3    H281408   0.162   1.564  10.809 -1.6440  0.9506  1.6357
19973TIP3   OH281409   6.382   2.281   2.480 -0.7185  0.1074  0.1665
19973TIP3    H181410   6.300   2.331   2.476 -0.8681 -0.0058  1.4472
19973TIP3    H281411   6.449   2.344   2.456 -1.0060  0.7048  0.8681
19974TIP3   OH281412   6.034   4.645  13.865  0.1787 -0.4252  0.1356
19974TIP3    H181413   6.056   4.633  13.958 -0.0061 -1.5775  0.0422
19974TIP3    H281414   6.062   4.734  13.846 -0.7624  0.2215  1.5760
19975TIP3   OH281415   5.379   1.572  15.009  0.2785  0.1577  0.3467
19975TIP3    H181416   5.340   1.603  15.091  0.9950  1.3427  0.2676
19975TIP3    H281417   5.350   1.636  14.943  0.7117 -0.0943 -0.0944
19976TIP3   OH281418   3.973   0.344   0.258  0.5292 -0.2086  0.1168
19976TIP3    H181419   3.901   0.287   0.285  1.6852 -1.3762  0.8636
19976TIP3    H281420   4.032   0.347   0.334  1.4002  0.5160 -0.5516
19977TIP3   OH281421   5.530   4.454   6.215  0.9633 -0.6412 -0.1274
19977TIP3    H181422   5.578   4.406   6.148  1.5064 -0.8943  0.4336
19977TIP3    H281423   5.577   4.435   6.296  0.8219  0.3449  0.1990
19978TIP3   OH281424   6.258   0.767   1.072 -0.5222  0.1602  0.7582
19978TIP3    H181425   6.238   0.851   1.030  1.2159  0.4088  0.3491
19978TIP3    H281426   6.225   0.701   1.012 -3.2995  0.4655  1.7706
19979TIP3   OH281427   0.206   3.218  12.494 -0.4649 -0.0279 -0.0256
19979TIP3    H181428   0.236   3.306  12.470  2.4563 -0.6233  1.0764
19979TIP3    H281429   0.202   3.219  12.589  0.8515 -1.3999  0.0824
19980TIP3   OH281430   5.919   0.325  13.082  0.1946 -0.0157  0.0128
19980TIP3    H181431   5.926   0.350  12.990  1.7085 -0.7306 -0.0963
19980TIP3    H281432   5.965   0.241  13.087 -2.8361 -1.7974  0.7550
19981TIP3   OH281433   3.470   0.416   2.378 -0.3550 -0.2158 -0.0007
19981TIP3    H181434   3.532   0.480   2.342  1.0234 -1.4996 -0.0232
19981TIP3    H281435   3.490   0.413   2.472  0.3875 -1.3909 -0.1697
19982TIP3   OH281436   4.584   4.564   2.819 -0.3561  0.0301 -0.1581
19982TIP3    H181437   4.601   4.496   2.754  0.3952 -0.6082  0.6920
19982TIP3    H281438   4.667   4.576   2.864 -0.8710  0.4557  0.7054
19983TIP3   OH281439   4.007   5.732  13.046 -0.3533  0.3195 -0.5066
19983TIP3    H181440   3.978   5.668  13.112  0.3943  2.1853  1.7680
19983TIP3    H281441   4.102   5.728  13.049 -0.1750 -1.7441 -3.8561
19984TIP3   OH281442   6.145   6.053  16.515 -0.1793  0.1129 -0.5255
19984TIP3    H181443   6.191   6.133  16.539  0.6981 -0.6113  0.2869
19984TIP3    H281444   6.142   6.002  16.595 -1.2809 -0.4188 -0.8845
19985TIP3   OH281445   2.029   5.558   1.697  0.5958  0.1990  0.1036
19985TIP3    H181446   2.108   5.584   1.744  0.1786  3.3213 -0.7011
19985TIP3    H281447   1.967   5.534   1.767  2.5301 -3.8568  0.7203
19986TIP3   OH281448   1.867   5.058   5.129  0.1663  0.1530  0.0789
19986TIP3    H181449   1.861   5.095   5.217 -1.0820  0.7926 -0.2508
19986TIP3    H281450   1.926   5.117   5.082  1.4953 -0.6417  0.6720
19987TIP3   OH281451   2.789   5.601  11.727  0.5620  0.2387 -0.1881
19987TIP3    H181452   2.812   5.515  11.692 -0.0396 -0.5561  1.2851
19987TIP3    H281453   2.702   5.619  11.691  0.8700  0.4521 -0.8481
19988TIP3   OH281454   2.349   2.341  11.033 -0.0968 -0.6161 -0.4739
19988TIP3    H181455   2.384   2.254  11.016 -1.2505 -1.2715  0.3758
19988TIP3    H281456   2.415   2.383  11.088 -1.0130 -2.2274  2.0497
19989TIP3   OH281457   0.161   3.779  16.746 -0.0628 -0.3692  0.0532
19989TIP3    H181458   0.123   3.691  16.747  0.6096 -0.6586  0.2544
19989TIP3    H281459   0.184   3.794  16.655 -1.8910  0.3600 -0.3466
19990TIP3   OH281460   3.537   5.787  12.906 -0.0303 -0.8013  0.4079
19990TIP3    H181461   3.632   5.777  12.918  0.0027 -1.2915 -0.2264
19990TIP3    H281462   3.504   5.697  12.901 -0.2521 -0.6465 -1.5334
19991TIP3   OH281463   3.950   4.507   5.632  0.9586 -0.2620  0.1630
19991TIP3    H181464   3.986   4.419   5.626 -1.0571 -1.2687  1.4760
19991TIP3    H281465   4.026   4.564   5.636  2.3455 -2.0434  0.5646
19992TIP3   OH281466   1.800   2.621  10.944  0.3412 -0.5333 -0.0064
19992TIP3    H181467   1.726   2.628  10.885  0.2109 -1.0905  0.0850
19992TIP3    H281468   1.764   2.645  11.030 -0.0286 -1.9200  0.2496
19993TIP3   OH281469   3.557   0.610  14.632 -0.3910  0.1383  0.7824
19993TIP3    H181470   3.555   0.594  14.727 -1.7251 -0.6136  0.6669
19993TIP3    H281471   3.616   0.684  14.621  0.9543 -0.6795  2.0497
19994TIP3   OH281472   2.782   2.633   3.144  0.0693  0.1374  0.7057
19994TIP3    H181473   2.733   2.630   3.062 -0.3101  2.4008  0.7981
19994TIP3    H281474   2.719   2.663   3.209  1.3671  2.6904  0.9182
19995TIP3   OH281475   2.968   3.165  10.865  0.1659 -0.3040  0.4257
19995TIP3    H181476   2.960   3.075  10.831  0.8115 -0.3632  0.4066
19995TIP3    H281477   2.912   3.166  10.942 -0.3326 -0.5435  0.0706
19996TIP3   OH281478   3.002   5.339  10.455  0.2372  0.1678 -0.4548
19996TIP3    H181479   2.946   5.406  10.417 -0.5422  0.0296  0.4138
19996TIP3    H281480   3.089   5.378  10.456 -0.3265  1.4554  0.6959
19997TIP3   OH281481   0.661   6.412  12.016 -0.7079 -0.2965  0.2458
19997TIP3    H181482   0.605   6.461  12.076 -1.6763 -1.3151  0.2086
19997TIP3    H281483   0.600   6.370  11.955  0.2309  0.4329 -1.2542
19998TIP3   OH281484   4.382   2.664   4.625 -0.2932  0.5088 -0.2957
19998TIP3    H181485   4.346   2.748   4.595  1.0619  0.5922 -1.8632
19998TIP3    H281486   4.337   2.598   4.572 -3.8869 -0.2601  3.2106
19999TIP3   OH281487   0.974   4.066  13.593 -0.2668 -0.5046 -0.0030
19999TIP3    H181488   0.978   4.148  13.543 -0.1577 -0.7429 -0.3918
19999TIP3    H281489   1.065   4.037  13.597 -0.1612 -0.0968  1.0064
20000TIP3   OH281490   6.161   3.640  15.940 -0.5664  0.1361 -0.2822
20000TIP3    H181491   6.118   3.625  15.856 -0.8056  2.0007 -0.5256
20000TIP3    H281492   6.181   3.734  15.941 -1.2322  0.3257  2.0346
20001TIP3   OH281493   5.253   2.471   0.715  0.4616 -0.4920  0.1184
20001TIP3    H181494   5.320   2.483   0.648 -0.6242 -2.1544 -1.3741
20001TIP3    H281495   5.175   2.515   0.681 -0.0227 -1.0931  0.4185
20002TIP3   OH281496   6.397   4.041  10.502 -0.0408  0.0778 -0.3241
20002TIP3    H181497   6.395   4.113  10.565  1.8697 -0.6501  0.6734
20002TIP3    H281498   6.319   3.990  10.520  0.2095  0.1739  1.1425
20003TIP3   OH281499   2.654   2.794  16.373  1.1652 -0.5395  0.2174
20003TIP3    H181500   2.589   2.798  16.443  0.6618 -0.8545 -0.2280
20003TIP3    H281501   2.701   2.878  16.379  1.0512 -0.5185  0.8540
20004TIP3   OH281502   6.371   4.458  11.293 -0.8615 -0.3165  0.4741
20004TIP3    H181503   6.367   4.413  11.377 -1.1528 -0.5081  0.3597
20004TIP3    H281504   6.387   4.388  11.229  0.6903 -0.0344  0.4950
20005TIP3   OH281505   4.885   3.173   4.070 -0.5301  0.3040  0.1982
20005TIP3    H181506   4.903   3.121   4.147  0.1590  0.7618  0.3543
20005TIP3    H281507   4.842   3.252   4.104 -2.6860 -0.6584 -0.1424
20006TIP3   OH281508   5.041   1.925   4.581 -0.8495 -0.7670  0.6259
20006TIP3    H181509   4.950   1.920   4.554 -1.1739 -1.2531  1.7281
20006TIP3    H281510   5.088   1.870   4.518 -0.7923  1.9151 -1.8435
20007TIP3   OH281511   3.241   0.127  11.881 -0.2809  0.3292 -0.3482
20007TIP3    H181512   3.328   0.095  11.905 -0.4096 -2.2792 -2.7060
20007TIP3    H281513   3.181   0.083  11.942 -0.1135 -0.4199 -0.7037
20008TIP3   OH281514   2.207   2.519   5.508  0.2975 -0.3505 -0.6726
20008TIP3    H181515   2.116   2.492   5.507  0.0811  0.3554 -0.9073
20008TIP3    H281516   2.206   2.608   5.472  0.8547  0.3711  1.0090
20009TIP3   OH281517   4.708   5.594  12.969 -0.8209 -0.0376 -0.0316
20009TIP3    H181518   4.769   5.594  12.895 -2.0447 -0.7519 -1.0616
20009TIP3    H281519   4.622   5.602  12.930 -1.5333 -0.8313  1.2916
20010TIP3   OH281520   6.621   1.785   0.928 -0.3547 -0.6444 -0.3615
20010TIP3    H181521   6.707   1.777   0.970 -0.1068 -0.4460 -0.8187
20010TIP3    H281522   6.560   1.749   0.991 -0.0111 -0.1901  0.2484
20011TIP3   OH281523   2.546   5.238  11.530 -1.0446 -0.4900  0.6074
20011TIP3    H181524   2.607   5.268  11.463 -0.3162 -1.7537  0.6603
20011TIP3    H281525   2.560   5.297  11.604 -1.4250  0.5442 -0.1303
20012TIP3   OH281526   2.790   4.464  16.257 -0.2821  0.4066 -0.2950
20012TIP3    H181527   2.884   4.482  16.249  0.0837 -1.5122 -0.8743
20012TIP3    H281528   2.754   4.540  16.302  2.0487 -0.1399  2.7538
20013TIP3   OH281529   0.032   3.480   1.486  0.2491 -0.1769  0.3197
20013TIP3    H181530   0.045   3.539   1.412 -1.0502 -1.0994 -0.6978
20013TIP3    H281531  -0.063   3.476   1.497  0.4131  1.0526  3.0069
20014TIP3   OH281532   3.569   4.069   6.337  0.1719  0.4650 -0.1047
20014TIP3    H181533   3.510   4.003   6.374 -1.0811  0.8803 -1.2346
20014TIP3    H281534   3.633   4.086   6.406  0.0995 -1.3739  0.4896
20015TIP3   OH281535   0.061   4.287   2.842 -0.2607 -0.0251 -0.4828
20015TIP3    H181536   0.014   4.234   2.907  0.7269  1.4622  1.5426
20015TIP3    H281537  -0.007   4.343   2.804 -0.5898  0.2857  0.5329
20016TIP3   OH281538   2.246   5.817  12.746 -0.6953  0.3854  0.0719
20016TIP3    H181539   2.307   5.743  12.748  1.1549  1.8302 -0.3493
20016TIP3    H281540   2.197   5.810  12.828 -0.6727 -1.3640 -0.0235
20017TIP3   OH281541   5.018   4.064  15.406  0.0333  0.2755  0.5412
20017TIP3    H181542   5.094   4.121  15.413  0.8982 -0.5787 -1.1467
20017TIP3    H281543   5.013   4.020  15.492  0.1901  1.8069  1.3617
20018TIP3   OH281544   1.814   6.762  16.628  0.2997  0.0462  0.0420
20018TIP3    H181545   1.740   6.701  16.627  0.0111  0.3954 -0.5032
20018TIP3    H281546   1.781   6.837  16.678  0.2090  0.2916 -0.3834
20019TIP3   OH281547   5.048   2.813  15.962  0.2414 -0.0587  0.0397
20019TIP3    H181548   5.023   2.760  15.886  1.5729  3.0536 -2.8068
20019TIP3    H281549   5.061   2.749  16.033 -2.5483 -2.9844 -1.8508
20020TIP3   OH281550   0.900   3.586  15.933  0.4362  0.1391  0.1963
20020TIP3    H181551   0.833   3.596  16.001 -0.3056  1.1056 -0.6437
20020TIP3    H281552   0.934   3.498  15.946 -1.7518 -0.8021 -0.0035
20021TIP3   OH281553   4.994   5.902   2.245  0.9426  0.0238 -0.1581
20021TIP3    H181554   4.956   5.825   2.203  1.8060 -0.1946 -0.5793
20021TIP3    H281555   4.932   5.926   2.314 -0.0845 -0.1320 -1.0046
20022TIP3   OH281556   2.573   4.489   2.901 -0.1890 -0.5743  0.2832
20022TIP3    H181557   2.551   4.527   2.816  0.5255  0.7374  0.6584
20022TIP3    H281558   2.492   4.495   2.952 -0.1834  0.0994  0.2125
20023TIP3   OH281559   5.008   3.046  16.977 -0.6564 -0.1554 -0.1829
20023TIP3    H181560   4.916   3.051  16.953 -0.5743  1.9813 -0.1860
20023TIP3    H281561   5.043   2.975  16.922 -1.8106  0.5017 -1.8433
20024TIP3   OH281562   1.003   6.050  11.733  0.1227 -0.3842 -0.2698
20024TIP3    H181563   0.949   6.106  11.678  1.2984  1.2149  0.1489
20024TIP3    H281564   1.086   6.042  11.687  1.6182  2.0672  1.7396
20025TIP3   OH281565   3.255   0.267   5.401 -0.1416  0.5242  0.1220
20025TIP3    H181566   3.174   0.264   5.349  0.4115  0.3781 -0.7505
20025TIP3    H281567   3.259   0.357   5.433 -0.2627  0.7527 -0.4810
20026TIP3   OH281568   3.098   5.455   3.325 -0.5580 -0.0484  0.0586
20026TIP3    H181569   3.144   5.480   3.405 -0.4480  0.1042 -0.0540
20026TIP3    H281570   3.142   5.504   3.255  0.2646 -1.2325 -0.2919
20027TIP3   OH281571   1.662   0.727   3.066  0.3507 -0.2691  0.3184
20027TIP3    H181572   1.652   0.717   3.160  0.0275 -0.9306  0.2169
20027TIP3    H281573   1.712   0.650   3.039  1.7554  0.6583  0.1539
20028TIP3   OH281574   6.059   5.316   3.132 -0.4272  1.2287 -0.8241
20028TIP3    H181575   6.144   5.354   3.109 -0.2550  1.5659  0.2807
20028TIP3    H281576   6.075   5.222   3.136 -0.6080  1.0991 -2.5821
20029TIP3   OH281577   3.596   1.157  17.125 -0.4318 -0.4627  0.0186
20029TIP3    H181578   3.624   1.072  17.159 -0.2273 -0.0213  0.9792
20029TIP3    H281579   3.601   1.147  17.030 -1.8738 -2.0212  0.0434
20030TIP3   OH281580   5.868   6.041   1.346  0.3739 -0.3504  0.3685
20030TIP3    H181581   5.928   5.985   1.297  2.9259  0.2180  2.6203
20030TIP3    H281582   5.781   6.014   1.316  1.6457 -0.7449 -3.5628
20031TIP3   OH281583   5.081   3.485  12.510  0.5771 -0.0028  0.1841
20031TIP3    H181584   4.993   3.451  12.526  0.4745  0.4897  0.6787
20031TIP3    H281585   5.130   3.464  12.589  0.9702 -0.4694 -0.1750
20032TIP3   OH281586   0.617   1.010  15.594 -0.2741  0.0943 -0.1913
20032TIP3    H181587   0.684   1.015  15.526  1.2091 -1.6185  1.0836
20032TIP3    H281588   0.561   0.937  15.567  1.5594 -2.0259  1.3805
20033TIP3   OH281589   4.977   4.575  16.510 -0.0244  0.8095 -0.4405
20033TIP3    H181590   5.041   4.568  16.439 -0.6120 -0.1623 -0.8881
20033TIP3    H281591   4.900   4.614  16.469 -0.1595  0.8062 -0.1896
20034TIP3   OH281592   0.082   2.205  15.826 -0.3082  0.1598  0.1403
20034TIP3    H181593   0.005   2.261  15.821  1.2246  2.5368  1.5368
20034TIP3    H281594   0.093   2.188  15.920  0.8885 -0.0954 -0.0301
20035TIP3   OH281595   6.749   4.109  11.558  0.4738  0.0615 -0.1592
20035TIP3    H181596   6.729   4.019  11.534  0.9008  0.4687 -2.2293
20035TIP3    H281597   6.841   4.107  11.583 -0.4076 -0.7309  3.7467
20036TIP3   OH281598   6.456   3.322  14.528  0.0839 -0.5775  0.1120
20036TIP3    H181599   6.551   3.325  14.520  0.3146  0.6754  2.4853
20036TIP3    H281600   6.438   3.350  14.618 -2.5205 -1.1523 -0.1421
20037TIP3   OH281601   5.729   0.447  16.208 -0.4343  0.6388  0.9837
20037TIP3    H181602   5.760   0.463  16.297 -0.1970 -0.5267  1.1321
20037TIP3    H281603   5.635   0.431  16.218 -0.3013 -0.1172  1.1295
20038TIP3   OH281604   4.087   2.875   1.569  0.0639  0.0647 -0.0928
20038TIP3    H181605   4.045   2.809   1.513  0.0798 -1.2155  1.3176
20038TIP3    H281606   4.066   2.958   1.528 -1.5836 -0.7029 -0.9143
20039TIP3   OH281607   0.515   6.163  12.180 -0.3791  0.3097 -0.1473
20039TIP3    H181608   0.447   6.200  12.236 -2.0777 -0.6328 -1.4760
20039TIP3    H281609   0.501   6.203  12.095 -1.6414 -2.4622 -1.3850
20040TIP3   OH281610   1.001   3.464   6.189 -0.0706 -0.1508 -0.2795
20040TIP3    H181611   1.029   3.467   6.280 -0.5018 -0.6222 -0.1240
20040TIP3    H281612   0.991   3.555   6.163  0.5852 -0.0029 -0.0236
20041TIP3   OH281613   5.793   3.034   3.694  0.2266 -0.1501  0.1997
20041TIP3    H181614   5.753   2.947   3.699 -0.4349  0.2102  2.7675
20041TIP3    H281615   5.760   3.071   3.612 -1.2611 -1.4754  0.1427
20042TIP3   OH281616   1.337   5.701   1.246 -0.2691  0.0702  0.2691
20042TIP3    H181617   1.406   5.689   1.181  0.4245 -0.4777  1.0947
20042TIP3    H281618   1.375   5.761   1.310 -0.5458 -0.2658  0.7521
20043TIP3   OH281619   0.383   3.480  12.845 -0.1532 -0.2711  0.3152
20043TIP3    H181620   0.478   3.476  12.830 -0.2690 -0.4766 -0.4014
20043TIP3    H281621   0.374   3.517  12.932  0.5496  2.0230 -0.5195
20044TIP3   OH281622   3.886   0.413  12.503 -0.4153  0.5149  0.3871
20044TIP3    H181623   3.911   0.501  12.531  0.2234  0.2290  0.7528
20044TIP3    H281624   3.810   0.391  12.556 -0.8627  1.0241 -0.0374
20045TIP3   OH281625   2.686   2.889  16.950  0.4046  0.2532  0.5198
20045TIP3    H181626   2.624   2.961  16.962 -1.2108 -0.8181 -0.8085
20045TIP3    H281627   2.680   2.838  17.030 -0.6410  0.0474  0.3288
20046TIP3   OH281628   1.139   4.298   2.551  0.4418 -0.0080  0.7293
20046TIP3    H181629   1.123   4.370   2.612 -0.3723 -0.1956  0.7437
20046TIP3    H281630   1.233   4.282   2.558  0.4490  0.3226  1.5441
20047TIP3   OH281631   5.116   4.940   1.848  0.1311 -0.3249 -0.5971
20047TIP3    H181632   5.061   4.950   1.770  1.8158 -0.8154 -1.8917
20047TIP3    H281633   5.111   5.026   1.891 -0.1638  0.2267 -1.6892
20048TIP3   OH281634   3.638   6.177  14.590 -0.1851  0.4626  0.2154
20048TIP3    H181635   3.617   6.214  14.676  0.3267  1.4702 -0.0680
20048TIP3    H281636   3.581   6.224  14.530  0.7652  1.1069 -0.2044
20049TIP3   OH281637   0.209   6.024   6.277 -0.1553  0.8610  0.5419
20049TIP3    H181638   0.303   6.017   6.293 -0.0234  0.5774 -0.2782
20049TIP3    H281639   0.198   5.992   6.187 -1.2035 -0.3134  1.0621
20050TIP3   OH281640   4.243   5.597  10.231  0.2639 -0.3460  0.4106
20050TIP3    H181641   4.173   5.536  10.258  0.5403  0.4100  3.1913
20050TIP3    H281642   4.311   5.540  10.194 -0.3329 -1.5135  1.0348
20051TIP3   OH281643   5.156   1.796  12.159 -0.4320 -0.0055  0.0826
20051TIP3    H181644   5.114   1.882  12.160 -1.2388 -0.3980  0.2730
20051TIP3    H281645   5.150   1.768  12.068 -0.9518 -0.2361  0.1849
20052TIP3   OH281646   3.490   0.412  13.818  0.6738  1.0235  0.0793
20052TIP3    H181647   3.528   0.464  13.889  0.0166  1.0152  0.4449
20052TIP3    H281648   3.450   0.337  13.862  0.0290  1.1555 -0.2636
20053TIP3   OH281649   5.329   1.791   4.137  0.0770 -0.5610  0.2954
20053TIP3    H181650   5.340   1.726   4.206  0.1496 -0.9411 -0.0660
20053TIP3    H281651   5.245   1.768   4.096  1.1514 -1.9015 -1.3347
20054TIP3   OH281652   1.778   3.611  14.239  0.1062 -0.2501 -0.2945
20054TIP3    H181653   1.862   3.594  14.196  0.3472 -1.4222  0.6009
20054TIP3    H281654   1.801   3.661  14.317 -0.3608  2.1710 -1.6110
20055TIP3   OH281655   3.944   0.104  16.463  0.2739 -0.2405 -0.1536
20055TIP3    H181656   4.007   0.060  16.521  0.1391 -0.4389 -0.1563
20055TIP3    H281657   3.866   0.049  16.467  0.6627 -0.9123 -1.4669
20056TIP3   OH281658   1.694   3.773  11.824 -0.2873 -0.2910  0.3682
20056TIP3    H181659   1.633   3.729  11.765 -0.2298 -1.3825  1.0914
20056TIP3    H281660   1.653   3.858  11.842  0.8417  1.1479 -3.1111
20057TIP3   OH281661   3.084   1.219   0.237 -0.3758  0.2721  0.0922
20057TIP3    H181662   3.130   1.135   0.242  1.2359  1.0189 -1.0861
20057TIP3    H281663   3.069   1.232   0.143 -0.5869  1.3037  0.2590
20058TIP3   OH281664   2.225   5.469  14.784  0.0357  0.3931 -0.4459
20058TIP3    H181665   2.303   5.462  14.728 -0.5764 -0.8711 -1.1726
20058TIP3    H281666   2.192   5.380  14.791 -0.1775  0.5836  1.6014
20059TIP3   OH281667   1.348   3.786   5.041  0.5680  0.5260  0.1139
20059TIP3    H181668   1.392   3.740   4.970 -1.0073 -1.4763  0.3373
20059TIP3    H281669   1.418   3.810   5.102  1.5301 -1.1466 -0.2842
20060TIP3   OH281670   0.316   4.093   0.626 -0.0080 -0.0296 -0.1942
20060TIP3    H181671   0.235   4.103   0.577  0.1530  0.2484 -0.4067
20060TIP3    H281672   0.315   4.165   0.689  0.2433  0.1975 -0.4424
20061TIP3   OH281673   2.464   2.112  13.705  0.2001  0.0337 -0.3681
20061TIP3    H181674   2.517   2.109  13.626  1.2395 -0.2226  0.3114
20061TIP3    H281675   2.392   2.172  13.685  0.4206 -0.0775 -1.5113
20062TIP3   OH281676   6.199   0.760  13.011  0.3889 -0.1159  0.4634
20062TIP3    H181677   6.187   0.671  13.045  0.5953 -0.0244  0.7918
20062TIP3    H281678   6.289   0.761  12.979  0.4643  0.0392  0.6746
20063TIP3   OH281679   1.070   0.055  17.059  0.4536 -0.2031  0.2235
20063TIP3    H181680   0.984   0.098  17.056  0.4869 -0.1880 -1.5708
20063TIP3    H281681   1.050  -0.036  17.080 -0.0902 -0.3562 -0.8817
20064TIP3   OH281682   0.211   2.270   0.373  0.0633  0.4601  0.3163
20064TIP3    H181683   0.203   2.349   0.427 -0.7490 -0.2208  1.2285
20064TIP3    H281684   0.211   2.198   0.436 -0.0187 -0.3165 -0.5479
20065TIP3   OH281685   6.557   2.765   0.182 -0.0622 -0.1395  0.0680
20065TIP3    H181686   6.519   2.677   0.179  2.9551 -1.6800  1.9051
20065TIP3    H281687   6.596   2.777   0.095 -1.5880  0.0081 -0.6321
20066TIP3   OH281688   6.267   1.928  10.973 -0.4872  0.3466  0.3105
20066TIP3    H181689   6.289   1.906  10.883 -1.2457 -0.6487  0.3386
20066TIP3    H281690   6.240   2.019  10.970 -0.9021  0.2083 -0.5549
20067TIP3   OH281691   3.342   3.153   5.442 -0.0042 -0.2052 -0.5666
20067TIP3    H181692   3.360   3.236   5.398  1.6546  0.1428  0.6768
20067TIP3    H281693   3.410   3.093   5.411 -0.4928 -0.7785 -0.5625
20068TIP3   OH281694   5.212   0.109  11.961 -0.1003  0.0121 -0.2984
20068TIP3    H181695   5.162   0.114  11.880 -0.6212 -1.1092 -0.0659
20068TIP3    H281696   5.152   0.139  12.029  0.3862  1.1026 -0.3274
20069TIP3   OH281697   2.480   2.083   1.053 -0.3295  0.0488 -0.0116
20069TIP3    H181698   2.504   2.175   1.054 -0.3441  0.1328 -2.3575
20069TIP3    H281699   2.511   2.051   0.968 -1.3274 -1.8266  0.2782
20070TIP3   OH281700   4.211   0.153  13.413 -0.6516  0.4421 -0.4221
20070TIP3    H181701   4.156   0.075  13.417 -1.3345  0.9201 -0.2541
20070TIP3    H281702   4.174   0.212  13.479  0.6684  0.3969  0.3879
20071TIP3   OH281703   3.192   5.900   5.534  0.3499 -0.1911  0.6286
20071TIP3    H181704   3.256   5.972   5.532 -1.4032  1.4422 -1.3997
20071TIP3    H281705   3.139   5.918   5.612 -0.3701  1.0786 -0.1117
20072TIP3   OH281706   5.768   0.916   2.840  0.1968  0.2157  0.2688
20072TIP3    H181707   5.863   0.915   2.835  0.5003 -2.1755  3.1321
20072TIP3    H281708   5.745   1.008   2.850  1.8549  1.1453 -3.1104
20073TIP3   OH281709   6.325   4.837   5.573  0.0830  0.5912  0.5898
20073TIP3    H181710   6.247   4.809   5.526  0.0012  2.6608 -0.6287
20073TIP3    H281711   6.373   4.756   5.591 -2.6318 -0.8258  2.0218
20074TIP3   OH281712   1.665   3.197   1.345 -0.3662  0.3698  0.4011
20074TIP3    H181713   1.649   3.152   1.262 -0.2648  0.8887  0.1005
20074TIP3    H281714   1.696   3.284   1.320  0.3352  0.2969  0.9749
20075TIP3   OH281715   5.099   5.215  12.064 -0.1252  0.0866 -0.0767
20075TIP3    H181716   5.179   5.162  12.058 -0.1410 -0.4191  2.7635
20075TIP3    H281717   5.031   5.152  12.091 -1.1171  0.8325 -0.7559
20076TIP3   OH281718   6.694   5.853   1.598  0.1595 -0.2498  0.1221
20076TIP3    H181719   6.746   5.854   1.678  0.9751 -2.3953 -0.3085
20076TIP3    H281720   6.610   5.814   1.625 -0.1280  0.4272  0.2194
20077TIP3   OH281721   5.561   3.741   0.856 -0.0161 -0.5300 -0.0264
20077TIP3    H181722   5.495   3.746   0.786  0.6755 -1.4531 -0.7640
20077TIP3    H281723   5.617   3.817   0.841  1.0898 -1.5752 -1.5048
20078TIP3   OH281724   0.483   1.678  12.730 -0.2782  0.1342 -0.4534
20078TIP3    H181725   0.478   1.582  12.726  0.5671 -0.0159  1.2995
20078TIP3    H281726   0.458   1.700  12.819 -1.4503  1.6569 -1.1144
20079TIP3   OH281727   3.104   6.330  14.493 -0.3955  0.2613  0.6370
20079TIP3    H181728   3.013   6.339  14.520  0.1450  1.8386  2.1567
20079TIP3    H281729   3.149   6.293  14.569  0.2190 -0.6445 -0.1452
20080TIP3   OH281730   0.949   6.332  11.002  0.1111  0.2034 -0.2129
20080TIP3    H181731   0.903   6.393  10.944 -1.4131 -0.6895 -0.0266
20080TIP3    H281732   1.010   6.387  11.052  0.6550  1.1511 -1.8502
20081TIP3   OH281733   4.371   0.461   4.963 -0.4329  0.4259  0.0461
20081TIP3    H181734   4.365   0.513   5.043  1.4533  0.9941 -0.1230
20081TIP3    H281735   4.444   0.500   4.915  0.7456 -2.0328 -0.3274
20082TIP3   OH281736   5.617   6.317   2.013  0.2238  0.4076  0.2195
20082TIP3    H181737   5.553   6.340   1.946 -1.1199 -1.3114  0.8394
20082TIP3    H281738   5.679   6.260   1.968 -2.4468 -3.4438  0.9491
20083TIP3   OH281739   3.403   0.755   2.061 -0.2665  0.3413 -0.4955
20083TIP3    H181740   3.373   0.785   2.146  0.0403  0.2823 -0.3655
20083TIP3    H281741   3.443   0.670   2.078 -1.8980 -0.5603 -0.9932
20084TIP3   OH281742   5.284   3.582  13.264 -0.4797  0.1363 -0.2639
20084TIP3    H181743   5.274   3.637  13.186  0.6169  0.4737 -0.1898
20084TIP3    H281744   5.361   3.528  13.244  1.2276  1.8088  1.4700
20085TIP3   OH281745   4.738   1.578  15.201  0.0262 -0.7725  0.3895
20085TIP3    H181746   4.815   1.605  15.152 -1.1093  1.4747 -0.3080
20085TIP3    H281747   4.728   1.485  15.181  1.7784 -0.8058 -0.5245
20086TIP3   OH281748   1.426   1.149  15.091 -0.3203  0.7172 -0.3400
20086TIP3    H181749   1.467   1.203  15.023 -3.5387  3.3750 -0.4208
20086TIP3    H281750   1.475   1.170  15.171  2.2009 -0.9065 -1.3406
20087TIP3   OH281751   4.005   3.972   5.300  0.1248  0.1546  0.0773
20087TIP3    H181752   3.967   4.058   5.289 -0.8085  0.1381  2.4839
20087TIP3    H281753   3.931   3.914   5.317  0.9387 -0.2896  2.6360
20088TIP3   OH281754   2.323   6.206   3.457  0.2340 -0.3597 -1.0248
20088TIP3    H181755   2.309   6.262   3.381 -2.1283  0.3632 -0.1447
20088TIP3    H281756   2.398   6.245   3.503 -0.1915  0.9622 -1.4212
20089TIP3   OH281757   2.707   1.423   1.414 -0.4950  0.5904 -0.0837
20089TIP3    H181758   2.730   1.515   1.407  1.2296  0.2250  0.2827
20089TIP3    H281759   2.772   1.378   1.359 -1.4656 -0.3889 -0.4664
20090TIP3   OH281760   4.697   1.106  16.051  0.1567  0.9349  0.7073
20090TIP3    H181761   4.653   1.023  16.069  2.8849 -0.8685 -0.2683
20090TIP3    H281762   4.673   1.127  15.960  0.1090  0.7633  0.6791
20091TIP3   OH281763   6.657   6.122  16.807  0.3804  0.5785  0.0045
20091TIP3    H181764   6.751   6.133  16.789  0.6412 -0.4643  0.6573
20091TIP3    H281765   6.654   6.080  16.893 -0.6311 -0.9016 -0.7256
20092TIP3   OH281766   1.339   6.086   3.686  0.2527 -0.0086 -0.2464
20092TIP3    H181767   1.279   6.043   3.746  1.6835 -0.3720  0.9775
20092TIP3    H281768   1.414   6.110   3.740  0.6966  1.5620 -1.4614
20093TIP3   OH281769   1.596   1.219  16.954  0.3417 -0.2716 -0.5750
20093TIP3    H181770   1.649   1.180  17.024 -0.0471  2.1993  1.2528
20093TIP3    H281771   1.653   1.287  16.917 -0.9578  1.4378  0.4372
20094TIP3   OH281772   1.946   2.325   0.155  0.4224  0.4287 -0.0021
20094TIP3    H181773   2.038   2.300   0.153  0.6804  1.3336 -1.3079
20094TIP3    H281774   1.929   2.350   0.245  0.9076 -1.6066  0.6930
20095TIP3   OH281775   4.617   6.638   5.916 -0.4777 -0.6044  0.5915
20095TIP3    H181776   4.530   6.646   5.954 -1.8611 -1.7512 -2.0121
20095TIP3    H281777   4.632   6.722   5.873 -1.7362 -1.3316 -1.4670
20096TIP3   OH281778   3.413   1.491   3.600 -0.4118  0.0805 -0.1036
20096TIP3    H181779   3.338   1.549   3.604  1.0074  1.9298  1.4898
20096TIP3    H281780   3.427   1.463   3.690 -0.4972 -2.0660 -0.7084
20097TIP3   OH281781   1.490   4.140   2.301  0.4619  0.0723 -0.5677
20097TIP3    H181782   1.508   4.221   2.347  0.9051  0.3840 -1.2644
20097TIP3    H281783   1.394   4.136   2.295  0.4129  0.1693  0.1080
20098TIP3   OH281784   5.278   3.357  14.474 -0.2125  0.6178 -0.4063
20098TIP3    H181785   5.220   3.329  14.403 -1.0568  0.6785  0.2328
20098TIP3    H281786   5.242   3.441  14.503 -1.0955 -0.3059  1.3599
20099TIP3   OH281787   3.906   5.595   5.047 -0.1144 -0.6196  0.0942
20099TIP3    H181788   3.887   5.682   5.012 -2.0533 -1.8682 -2.3007
20099TIP3    H281789   3.985   5.566   5.001  0.7253 -0.0387  1.1374
20100TIP3   OH281790   4.938   6.692   1.143 -0.0996 -0.3716  0.1848
20100TIP3    H181791   4.978   6.635   1.077  0.3688  2.1120 -1.8567
20100TIP3    H281792   4.846   6.698   1.116 -0.5643 -1.4385  1.4154
20101TIP3   OH281793   0.760   1.856   1.793 -0.1922  0.5027  0.1936
20101TIP3    H181794   0.736   1.930   1.737 -0.6815 -0.2474 -0.6094
20101TIP3    H281795   0.737   1.779   1.742 -1.1183 -0.2121  1.6436
20102TIP3   OH281796   1.527   4.212  15.439  0.0892 -0.0706  0.4673
20102TIP3    H181797   1.549   4.249  15.524 -0.4253  1.6054 -0.0735
20102TIP3    H281798   1.565   4.125  15.439 -1.3124 -0.7648  3.0238
20103TIP3   OH281799   2.236   2.238   4.228 -0.4017 -0.2669 -0.6236
20103TIP3    H181800   2.141   2.253   4.232 -0.2233  0.8356 -0.1345
20103TIP3    H281801   2.273   2.306   4.283  0.7319 -0.2435 -1.3902
20104TIP3   OH281802   5.686   1.886  15.095  0.4726 -1.0325  0.3513
20104TIP3    H181803   5.592   1.901  15.085  0.8299  2.6919  1.0918
20104TIP3    H281804   5.697   1.864  15.187  0.5564  2.4988  1.3077
20105TIP3   OH281805   1.947   5.082  14.146 -0.2050 -0.1451 -0.5068
20105TIP3    H181806   1.963   5.177  14.150  2.3011 -0.5100 -0.3732
20105TIP3    H281807   2.032   5.044  14.122 -1.4569 -2.2896 -1.8508
20106TIP3   OH281808   5.704   1.075   4.650 -0.7785 -0.0552 -0.1729
20106TIP3    H181809   5.653   1.088   4.571 -0.8265 -1.7277 -0.4543
20106TIP3    H281810   5.794   1.096   4.625 -0.9714  0.6226 -0.3162
20107TIP3   OH281811   5.962   2.087   5.809  0.1361  0.1887 -0.3415
20107TIP3    H181812   5.906   2.152   5.851 -1.3248 -0.7401 -0.8101
20107TIP3    H281813   6.051   2.112   5.836 -0.6615 -0.2349  3.1680
20108TIP3   OH281814   0.648   1.062  11.108 -0.4212  0.1621  0.3101
20108TIP3    H181815   0.730   1.101  11.139 -0.2638 -0.2898  0.4633
20108TIP3    H281816   0.644   1.086  11.015  0.6871 -1.1734 -0.1023
20109TIP3   OH281817   0.276   6.319   5.871  0.0831 -0.4964 -0.1150
20109TIP3    H181818   0.211   6.267   5.825 -2.4425 -0.2067  2.7761
20109TIP3    H281819   0.345   6.257   5.893 -1.6721 -2.1489  1.0684
20110TIP3   OH281820   3.675   0.672  12.854 -0.4865  0.0809 -0.4673
20110TIP3    H181821   3.670   0.621  12.773 -1.9300 -0.1511 -0.2573
20110TIP3    H281822   3.699   0.760  12.825  1.2966 -0.5112 -0.9024
20111TIP3   OH281823   0.037   6.746  11.352 -0.0767  0.3968 -0.4385
20111TIP3    H181824   0.101   6.736  11.282 -0.2664 -0.2862 -0.5196
20111TIP3    H281825   0.071   6.817  11.406  1.4120 -0.7713  0.2364
20112TIP3   OH281826   4.261   4.260   2.747  0.2529  0.2852  0.4954
20112TIP3    H181827   4.297   4.346   2.765  0.1860  0.7198 -1.2789
20112TIP3    H281828   4.322   4.221   2.683 -2.1486  0.9715 -2.4496
20113TIP3   OH281829   4.623   1.394  11.255 -0.3533 -0.1696  0.0587
20113TIP3    H181830   4.608   1.384  11.161 -0.5395 -0.6600  0.1384
20113TIP3    H281831   4.649   1.485  11.265 -2.1079  0.4206 -0.2564
20114TIP3   OH281832   1.852   3.358   5.233 -0.0228 -0.2309  0.1307
20114TIP3    H181833   1.835   3.324   5.321 -2.2158 -1.9399 -0.8647
20114TIP3    H281834   1.786   3.425   5.219  0.4000  0.1294 -0.1849
20115TIP3   OH281835   5.920   6.048  11.111 -0.2008 -0.1845 -0.1913
20115TIP3    H181836   5.929   6.004  11.196  0.6684  1.1760  0.4536
20115TIP3    H281837   5.887   5.980  11.052  0.9865 -1.6684  0.7833
20116TIP3   OH281838   5.290   1.996   4.311  0.3318  0.1415  0.6353
20116TIP3    H181839   5.305   1.918   4.258 -1.4430  0.1321  0.0735
20116TIP3    H281840   5.375   2.016   4.350  1.6333 -0.0884 -1.8806
20117TIP3   OH281841   1.538   2.482  11.937 -0.6120 -0.2405 -0.0414
20117TIP3    H181842   1.466   2.434  11.894 -0.3857 -0.2139 -0.4597
20117TIP3    H281843   1.502   2.570  11.951 -1.4834 -0.8625  1.9094
20118TIP3   OH281844   5.119   2.232  15.578 -0.2600  0.1407 -0.1519
20118TIP3    H181845   5.111   2.187  15.662 -2.0079  0.1673 -0.2681
20118TIP3    H281846   5.213   2.231  15.559  0.0709 -0.6322  1.3728
20119TIP3   OH281847   1.205   1.322  15.882  0.1585  0.4234  0.3566
20119TIP3    H181848   1.261   1.265  15.830  0.2125 -0.7441  1.6419
20119TIP3    H281849   1.136   1.350  15.822  0.4411 -0.5526 -0.4424
20120TIP3   OH281850   2.978   6.292   2.323 -0.0868  0.0152 -0.0282
20120TIP3    H181851   2.896   6.265   2.282  0.5632  0.2581 -1.5543
20120TIP3    H281852   3.015   6.212   2.359 -0.9321 -0.1123  0.5791
20121TIP3   OH281853   2.553   1.617  13.758  0.4373 -0.0191  0.4973
20121TIP3    H181854   2.466   1.609  13.717 -0.1408  0.6188  1.5615
20121TIP3    H281855   2.575   1.710  13.751  0.9948 -0.1616  0.3199
20122TIP3   OH281856   6.558   5.855  16.243  0.3818  0.6460  0.0572
20122TIP3    H181857   6.647   5.878  16.217  0.0703 -1.2124 -3.1511
20122TIP3    H281858   6.502   5.915  16.194 -0.1625 -0.1573 -0.3335
20123TIP3   OH281859   6.331   4.219  15.318 -0.2306  0.3317 -0.8885
20123TIP3    H181860   6.286   4.293  15.277 -0.3164  2.2879  2.4012
20123TIP3    H281861   6.261   4.171  15.362 -0.0643 -1.3932 -2.3939
20124TIP3   OH281862   5.405   6.338  12.599  0.4344  0.2065  0.3327
20124TIP3    H181863   5.361   6.254  12.614  1.7326 -0.0568  3.3606
20124TIP3    H281864   5.340   6.391  12.552  0.1008 -2.8721 -3.1073
20125TIP3   OH281865   6.601   3.524   3.153  0.2985  0.3631  0.5596
20125TIP3    H181866   6.528   3.507   3.093 -0.0296  1.8799  0.4846
20125TIP3    H281867   6.666   3.459   3.130 -0.6356 -0.3804 -0.0621
20126TIP3   OH281868   3.631   5.812   3.767 -0.0464 -0.5159 -0.0569
20126TIP3    H181869   3.645   5.855   3.852 -0.4092 -2.0664  0.8308
20126TIP3    H281870   3.669   5.725   3.778  0.8920 -0.3749 -1.8881
20127TIP3   OH281871   1.457   3.166  16.604  0.5855  0.5665  0.4571
20127TIP3    H181872   1.375   3.216  16.611  0.1897 -0.2808  3.0252
20127TIP3    H281873   1.428   3.075  16.590  0.7545 -0.2702  4.2626
20128TIP3   OH281874   1.375   5.008  13.404  0.1669  0.2742  0.4878
20128TIP3    H181875   1.435   5.082  13.414 -1.2618  1.6218 -0.3909
20128TIP3    H281876   1.388   4.980  13.313  1.4114 -1.2799  1.0792
20129TIP3   OH281877   3.841   4.706  14.253 -0.0241 -0.2358  0.2084
20129TIP3    H181878   3.814   4.769  14.187  1.7131 -0.3271 -0.6544
20129TIP3    H281879   3.761   4.660  14.278 -0.9243  0.7354 -0.8368
20130TIP3   OH281880   1.647   1.545  15.724 -0.2657 -0.5916 -0.2577
20130TIP3    H181881   1.646   1.628  15.772  1.2109 -1.8332  2.1007
20130TIP3    H281882   1.616   1.568  15.636 -0.7119  2.2740  0.5455
20131TIP3   OH281883   4.347   4.023   4.203 -0.2407 -0.4633 -0.5332
20131TIP3    H181884   4.369   4.055   4.290 -0.9369  0.8188 -0.7988
20131TIP3    H281885   4.325   3.931   4.215  0.2730 -0.4555  0.5354
20132TIP3   OH281886   3.957   3.053  12.842  0.4314  0.6138 -0.0552
20132TIP3    H181887   3.900   3.045  12.918  0.3537  1.0562 -0.0618
20132TIP3    H281888   3.917   3.123  12.790 -2.2808 -2.7016 -2.9121
20133TIP3   OH281889   0.531   2.105   5.834 -0.4045  0.0883 -0.0745
20133TIP3    H181890   0.605   2.104   5.893 -0.9504 -1.9193  0.6701
20133TIP3    H281891   0.556   2.166   5.764  1.2802  0.5878  0.9180
20134TIP3   OH281892   6.607   4.042   0.374 -0.3109 -0.5077  0.3217
20134TIP3    H181893   6.604   4.040   0.278  1.4139 -0.3812  0.2369
20134TIP3    H281894   6.594   3.950   0.400 -0.4064 -0.6006 -0.0489
20135TIP3   OH281895   2.503   3.641  12.448  0.0510 -0.1380 -0.5404
20135TIP3    H181896   2.583   3.625  12.497 -0.1287 -0.8347 -0.4588
20135TIP3    H281897   2.444   3.683  12.510 -0.3755 -1.5217  0.0342
20136TIP3   OH281898   2.801   4.966   1.725  0.2599 -0.5741  0.1371
20136TIP3    H181899   2.771   5.024   1.655  1.4603 -0.4526 -0.2979
20136TIP3    H281900   2.733   4.898   1.729 -1.3042  0.9636  0.8470
20137TIP3   OH281901   3.287   0.830   3.247 -0.3496  0.3543  0.0119
20137TIP3    H181902   3.359   0.874   3.292  0.9398 -2.3938  0.8965
20137TIP3    H281903   3.258   0.892   3.181  2.8038  1.6731 -0.3358
20138TIP3   OH281904   2.801   0.724  14.394 -0.7287  0.7446 -0.0324
20138TIP3    H181905   2.761   0.796  14.345 -0.3767 -0.4317 -2.1775
20138TIP3    H281906   2.734   0.655  14.395  0.2098 -0.2503 -1.3290
20139TIP3   OH281907   5.879   3.128   5.713  0.2930  0.0088  0.4457
20139TIP3    H181908   5.939   3.202   5.707  1.9337 -0.8406  3.8601
20139TIP3    H281909   5.831   3.143   5.795 -0.3497 -1.9835  0.4750
20140TIP3   OH281910   4.776   2.691  11.966  0.4025 -0.0827 -0.6393
20140TIP3    H181911   4.862   2.704  11.927  0.9647  1.1352  0.9341
20140TIP3    H281912   4.741   2.779  11.977 -0.4978 -0.5013 -0.0440
20141TIP3   OH281913   4.443   2.563  15.252  0.5130 -0.1889 -0.0187
20141TIP3    H181914   4.491   2.490  15.290  0.0511 -1.2940 -1.4729
20141TIP3    H281915   4.411   2.612  15.328 -0.2169 -2.1813  1.0432
20142TIP3   OH281916   0.752   6.056   5.079 -0.2141 -0.0829  0.1921
20142TIP3    H181917   0.754   6.031   4.987 -0.4853  0.6932 -0.0331
20142TIP3    H281918   0.675   6.010   5.114  0.5407 -1.2869  0.3171
20143TIP3   OH281919   6.411   1.950   0.322 -0.3836  0.1686  0.5094
20143TIP3    H181920   6.505   1.936   0.330 -0.2057  1.2942  0.5255
20143TIP3    H281921   6.402   2.032   0.273 -1.3399  0.4054  1.0441
20144TIP3   OH281922   2.858   2.227   2.716  0.3031  0.5693 -0.2587
20144TIP3    H181923   2.837   2.154   2.658 -1.4352  0.5880  0.3020
20144TIP3    H281924   2.774   2.271   2.731  0.3936 -0.2308  3.3196
20145TIP3   OH281925   2.952   5.694   5.655 -0.6974  0.1555  0.3280
20145TIP3    H181926   2.975   5.783   5.683  2.2359  0.0521 -1.3088
20145TIP3    H281927   2.916   5.653   5.733  0.8672  1.8442  2.0401
20146TIP3   OH281928   0.117   2.106  16.078 -0.1343  0.2794  0.1003
20146TIP3    H181929   0.129   2.026  16.129 -0.6810 -1.1687 -1.9040
20146TIP3    H281930   0.197   2.156  16.092  0.2889 -0.6767  1.2847
20147TIP3   OH281931   3.071   6.183   0.097  0.0454 -0.9229 -0.3939
20147TIP3    H181932   3.128   6.208   0.024 -0.2101 -1.5243 -0.8124
20147TIP3    H281933   3.039   6.266   0.132  1.3830 -0.5621  0.0297
20148TIP3   OH281934   1.573   3.804   0.148  0.0385 -0.5685  0.1617
20148TIP3    H181935   1.581   3.883   0.202 -0.1891  0.2186 -0.9110
20148TIP3    H281936   1.662   3.770   0.143  0.5053  0.7179 -0.9194
20149TIP3   OH281937   6.173   1.276   1.092  0.3185  0.8484 -0.2295
20149TIP3    H181938   6.080   1.294   1.085  0.1027 -0.6072 -1.6690
20149TIP3    H281939   6.185   1.240   1.180 -0.4540  1.1368 -0.0036
20150TIP3   OH281940   3.788   4.332  15.755  0.7182 -0.0665  0.1458
20150TIP3    H181941   3.692   4.336  15.764  0.7045 -1.7589  1.3456
20150TIP3    H281942   3.810   4.243  15.782  2.7319  0.5931  0.8428
20151TIP3   OH281943   6.515   5.868  11.352  0.4047 -0.3723  0.0485
20151TIP3    H181944   6.552   5.956  11.354  0.5593 -0.4037 -0.9111
20151TIP3    H281945   6.512   5.845  11.259  0.1332 -1.2841  0.2681
20152TIP3   OH281946   6.051   4.303  12.630  0.5082  0.1255 -0.6138
20152TIP3    H181947   6.112   4.359  12.582 -2.6032  2.9190 -1.6698
20152TIP3    H281948   5.996   4.263  12.562 -1.7036  1.3377  0.3518
20153TIP3   OH281949   6.088   5.882   4.618  0.2922  0.2101  0.6053
20153TIP3    H181950   6.171   5.858   4.576  0.1203  1.1171 -0.2747
20153TIP3    H281951   6.109   5.957   4.672 -0.0061  0.6223  0.1564
20154TIP3   OH281952   2.960   4.344   6.534 -0.0680 -0.7517  1.5242
20154TIP3    H181953   3.007   4.422   6.562  0.4947 -1.0646  1.4651
20154TIP3    H281954   2.869   4.373   6.526  0.6278  0.9089 -2.1720
20155TIP3   OH281955   3.081   3.667  15.367 -0.4814  0.3927 -0.5033
20155TIP3    H181956   3.016   3.733  15.344  0.1259  0.7947 -1.0922
20155TIP3    H281957   3.141   3.665  15.292  0.5500  0.4813  0.2941
20156TIP3   OH281958   5.734   5.842   3.733 -0.0329 -0.3565 -0.0268
20156TIP3    H181959   5.656   5.843   3.788 -0.2945  0.4152 -0.3847
20156TIP3    H281960   5.717   5.910   3.667  0.5030 -0.8822 -0.7268
20157TIP3   OH281961   4.899   3.173  13.479 -0.4591  0.1006  0.8169
20157TIP3    H181962   4.960   3.147  13.409 -0.8109 -0.5947  0.7524
20157TIP3    H281963   4.829   3.220  13.433 -0.3372  0.2628  0.7950
20158TIP3   OH281964   2.814   4.115  12.917  0.6696 -0.5384  0.5552
20158TIP3    H181965   2.852   4.186  12.865  1.3343 -1.3793 -0.1246
20158TIP3    H281966   2.783   4.051  12.853 -1.6473 -0.0496  1.0818
20159TIP3   OH281967   2.473   3.052   3.185 -0.0875  0.3214  0.1055
20159TIP3    H181968   2.394   3.024   3.230  0.0023 -1.7942 -0.9010
20159TIP3    H281969   2.471   3.004   3.102  2.1688  0.3159 -0.0024
20160TIP3   OH281970   0.677   5.433  16.203  0.2425  0.0628  0.5658
20160TIP3    H181971   0.694   5.489  16.128  0.6439  0.2629  0.8094
20160TIP3    H281972   0.763   5.405  16.233  0.1066  0.2918  1.1878
20161TIP3   OH281973   3.679   2.221  12.838 -0.4069 -0.0609  0.1403
20161TIP3    H181974   3.707   2.138  12.800  0.2617 -0.1196  0.7213
20161TIP3    H281975   3.638   2.196  12.921  1.6171  0.2828  1.3125
20162TIP3   OH281976   3.213   6.774  12.813  0.1635  0.0695 -0.1123
20162TIP3    H181977   3.297   6.759  12.856 -0.3265  1.9779  1.6826
20162TIP3    H281978   3.148   6.765  12.883 -1.1072 -0.8438 -1.3548
20163TIP3   OH281979   5.901   0.457  13.736  0.1636 -0.0326 -0.1060
20163TIP3    H181980   5.873   0.500  13.817  0.0773 -0.2752 -0.0069
20163TIP3    H281981   5.844   0.494  13.668 -0.1230 -0.2223  0.0292
20164TIP3   OH281982   2.934   2.298  12.774  0.1940 -0.5231  0.6779
20164TIP3    H181983   2.964   2.215  12.736  1.9403  0.6273 -0.6098
20164TIP3    H281984   2.965   2.295  12.865  1.1932 -0.8418  0.3373
20165TIP3   OH281985   2.448   5.633   3.326 -0.9063 -0.3619  0.5668
20165TIP3    H181986   2.533   5.655   3.364 -1.8104 -0.1990  2.5963
20165TIP3    H281987   2.410   5.717   3.303  0.3704 -0.5016 -2.6280
20166TIP3   OH281988   5.090   1.169   1.239  0.2836  0.8270 -0.3756
20166TIP3    H181989   5.029   1.207   1.302 -1.2243 -1.3973 -0.3712
20166TIP3    H281990   5.120   1.088   1.281 -3.3692 -2.6114 -3.5100
20167TIP3   OH281991   6.037   1.615   5.259 -0.2299  0.2007  0.2968
20167TIP3    H181992   5.961   1.636   5.313 -0.0847 -0.2384  0.6742
20167TIP3    H281993   6.108   1.598   5.321 -0.4642 -1.9369  0.0628
20168TIP3   OH281994   4.511   1.877  13.573  0.0266 -0.2857 -0.1255
20168TIP3    H181995   4.583   1.822  13.605  0.1971 -1.0195 -1.6611
20168TIP3    H281996   4.464   1.820  13.511 -1.2667  0.5192  0.0896
20169TIP3   OH281997   0.781   2.130  14.787 -0.4908  0.7407  0.6787
20169TIP3    H181998   0.779   2.042  14.825  0.3378  0.2020 -0.4599
20169TIP3    H281999   0.825   2.184  14.852 -0.0578  0.0783  0.9408
20170TIP3   OH282000   4.282   2.408  13.208  0.3304 -0.1305 -0.9470
20170TIP3    H182001   4.256   2.388  13.119 -0.9057 -0.1860 -0.5902
20170TIP3    H282002   4.299   2.323  13.248  1.2951 -0.0835 -1.2371
20171TIP3   OH282003   2.262   1.460   1.905  0.7108  0.7189 -0.0893
20171TIP3    H182004   2.193   1.525   1.894  0.2610  0.2707  0.0449
20171TIP3    H282005   2.303   1.482   1.988  0.8307  1.0787 -0.2425
20172TIP3   OH282006   2.383   3.834  14.184 -0.3179 -0.0656 -0.1232
20172TIP3    H182007   2.348   3.847  14.272  2.0521 -1.8597  1.2133
20172TIP3    H282008   2.404   3.923  14.153  1.8258  0.4939  2.5416
20173TIP3   OH282009   5.756   4.000   3.171 -0.1813  0.1746  0.3484
20173TIP3    H182010   5.812   4.041   3.105 -0.3813 -0.4291 -0.2101
20173TIP3    H282011   5.673   4.047   3.164  0.1577  0.8936  0.9940
20174TIP3   OH282012   0.386   3.243  14.736  0.3622 -1.2016  0.0446
20174TIP3    H182013   0.455   3.252  14.801  1.8397 -0.2646 -1.5526
20174TIP3    H282014   0.359   3.151  14.743  2.2610 -1.7988  0.2917
20175TIP3   OH282015   5.568   4.218  14.291  0.1953  0.2795  0.1258
20175TIP3    H182016   5.615   4.207  14.209  0.2519 -0.3294  0.2349
20175TIP3    H282017   5.602   4.149  14.348 -0.6408 -0.0012  0.2981
20176TIP3   OH282018   2.808   5.043   4.465 -0.0997  0.4219 -0.6956
20176TIP3    H182019   2.818   4.948   4.474 -1.3586  0.2613 -0.8143
20176TIP3    H282020   2.846   5.078   4.545 -1.2655 -0.3118  0.2124
20177TIP3   OH282021   6.377   6.460  12.109 -0.3489 -0.1062 -0.2817
20177TIP3    H182022   6.425   6.382  12.080 -0.5408 -0.6525  0.8122
20177TIP3    H282023   6.292   6.426  12.137  0.0133  0.2678  1.4272
20178TIP3   OH282024   0.137   1.046   5.920  0.1614 -0.2500  0.2406
20178TIP3    H182025   0.138   1.013   6.010 -1.3273 -0.9163  0.0358
20178TIP3    H282026   0.070   0.994   5.876 -0.0112  0.9145 -0.9277
20179TIP3   OH282027   6.779   5.364   2.279 -0.3556  0.0726  0.7417
20179TIP3    H182028   6.715   5.387   2.211  0.7731 -0.0535 -0.4056
20179TIP3    H282029   6.839   5.304   2.235  0.3323 -0.1059  1.9053
20180TIP3   OH282030   2.517   5.186   4.277  0.1919 -0.0020 -0.6261
20180TIP3    H182031   2.442   5.214   4.223 -1.2744 -1.6253  0.4516
20180TIP3    H282032   2.477   5.154   4.358  2.0236 -1.4784 -0.2530
20181TIP3   OH282033   5.354   0.450   6.260 -0.1882 -0.1472  0.3363
20181TIP3    H182034   5.320   0.361   6.265  0.8628 -0.5479  0.6960
20181TIP3    H282035   5.393   0.465   6.346  1.3990 -0.0874 -0.3603
20182TIP3   OH282036   4.935   1.576   6.148  0.3818 -0.2947 -0.4082
20182TIP3    H182037   4.947   1.668   6.122  0.0070 -0.8952 -2.9473
20182TIP3    H282038   5.022   1.537   6.138  0.7040 -0.1131  1.3625
20183TIP3   OH282039   6.663   3.708   3.381  0.1170 -0.3645 -0.0654
20183TIP3    H182040   6.654   3.765   3.304  2.1095 -0.0212 -0.1125
20183TIP3    H282041   6.677   3.768   3.454 -2.4744 -0.6527  0.7762
20184TIP3   OH282042   5.340   5.518  16.112 -0.5464  0.4559 -0.5271
20184TIP3    H182043   5.341   5.608  16.146  0.7368 -0.0351  0.8589
20184TIP3    H282044   5.389   5.523  16.030  1.2496  0.7429  0.4957
20185TIP3   OH282045   6.523   1.878   4.298  0.1698 -0.2559  0.4237
20185TIP3    H182046   6.464   1.847   4.368  0.7741  0.4797  1.2800
20185TIP3    H282047   6.476   1.952   4.259 -0.1688 -0.6676  0.0353
20186TIP3   OH282048   1.863   3.478   3.067 -0.1694 -0.6905 -0.3041
20186TIP3    H182049   1.935   3.459   3.126  0.6791 -2.4643 -1.8033
20186TIP3    H282050   1.799   3.525   3.120  2.1246  1.0983  1.0346
20187TIP3   OH282051   1.794   1.845  10.992 -0.4701 -0.5998 -0.5275
20187TIP3    H182052   1.725   1.788  11.027 -1.6504  0.9548 -0.2307
20187TIP3    H282053   1.855   1.856  11.064 -1.2010 -0.0249  0.0136
20188TIP3   OH282054   2.186   3.446  15.322  0.5896 -0.0677 -0.2057
20188TIP3    H182055   2.172   3.503  15.246 -0.1271  0.0161 -0.0220
20188TIP3    H282056   2.172   3.504  15.397 -0.0864 -0.4616 -0.0193
20189TIP3   OH282057   0.230   0.727  11.746 -0.3389 -0.0853 -0.2267
20189TIP3    H182058   0.197   0.755  11.831  1.3863  1.1984  0.0797
20189TIP3    H282059   0.180   0.648  11.725 -1.4573  0.1167  1.5230
20190TIP3   OH282060   4.056   2.656   4.216 -0.2737  0.2466  0.2776
20190TIP3    H182061   4.003   2.735   4.228 -1.0460 -0.1203 -0.6114
20190TIP3    H282062   4.099   2.644   4.301  0.1232  1.7985  0.3332
20191TIP3   OH282063   3.352   6.819   3.366 -0.1351  0.0758  0.1277
20191TIP3    H182064   3.359   6.750   3.301  1.3499  0.4221 -0.1012
20191TIP3    H282065   3.359   6.901   3.317 -0.9974  0.4009  0.5038
20192TIP3   OH282066   6.136   1.375   4.995  0.2901 -0.0319  0.3529
20192TIP3    H182067   6.228   1.399   4.990  0.4625 -0.9902 -2.5547
20192TIP3    H282068   6.136   1.281   5.012 -0.2116  0.1286  1.3559
20193TIP3   OH282069   6.256   3.977  16.307 -0.0727  0.0226  0.3121
20193TIP3    H182070   6.168   3.993  16.341 -0.4559  0.0484 -0.6515
20193TIP3    H282071   6.263   3.882  16.302 -0.3903  0.0297 -0.4400
20194TIP3   OH282072   6.783   3.925   2.058 -0.0155 -0.1114 -0.4015
20194TIP3    H182073   6.728   3.959   1.987  2.2356  2.0799 -1.2550
20194TIP3    H282074   6.828   3.850   2.020 -2.0052 -1.7126  0.1998
20195TIP3   OH282075   5.684   4.658  16.971  0.3326 -0.5028 -0.3259
20195TIP3    H182076   5.659   4.749  16.958 -0.2673 -0.8434 -1.7284
20195TIP3    H282077   5.603   4.613  16.992  0.8240 -0.5197  1.7230
20196TIP3   OH282078   1.129   6.471  11.589 -0.2258  0.3948 -0.7087
20196TIP3    H182079   1.192   6.400  11.607 -1.1891 -0.3402 -0.1782
20196TIP3    H282080   1.183   6.541  11.551  0.7802 -0.5444 -1.0840
20197TIP3   OH282081   4.826   4.640  15.603 -0.1975  0.1310  0.5922
20197TIP3    H182082   4.752   4.602  15.649  0.7868 -2.6442  0.0595
20197TIP3    H282083   4.903   4.603  15.645  0.7787 -0.3017 -1.4137
20198TIP3   OH282084   4.520   0.402   4.610 -0.3716 -0.5711  0.2251
20198TIP3    H182085   4.432   0.415   4.575 -0.1363  0.8237  0.0980
20198TIP3    H282086   4.527   0.465   4.682 -0.1210 -1.9692  1.4843
20199TIP3   OH282087   0.869   0.356  14.075 -0.3567  0.0605  0.5221
20199TIP3    H182088   0.798   0.329  14.134 -0.7156 -0.2681 -0.0513
20199TIP3    H282089   0.932   0.284  14.079 -0.7262 -0.2992 -0.0515
20200TIP3   OH282090   2.301   3.992   4.132 -0.0334 -0.1573  0.3461
20200TIP3    H182091   2.250   3.911   4.131  0.2022 -0.3238 -1.4430
20200TIP3    H282092   2.236   4.061   4.139 -0.1924 -0.4862  2.6780
20201TIP3   OH282093   3.380   3.362   5.736 -0.3075  0.2115 -0.2282
20201TIP3    H182094   3.366   3.444   5.784  0.2246  0.6150 -0.7524
20201TIP3    H282095   3.461   3.376   5.688  1.1977 -1.5468  1.6214
20202TIP3   OH282096   0.469   5.413  14.687  0.2904 -0.1728 -0.1507
20202TIP3    H182097   0.538   5.464  14.729 -0.7871  0.7424  0.5622
20202TIP3    H282098   0.419   5.477  14.637 -0.3217 -0.7534 -0.2931
20203TIP3   OH282099   5.618   1.270  16.348 -0.2564  0.0345 -0.1907
20203TIP3    H182100   5.611   1.294  16.255 -0.9860 -0.1550 -0.1935
20203TIP3    H282101   5.675   1.336  16.386  0.0668  0.1009 -0.7848
20204TIP3   OH282102   4.084   2.673   5.020 -0.1740 -0.4510  0.1854
20204TIP3    H182103   4.052   2.649   5.108  1.5027  1.6218  1.4515
20204TIP3    H282104   4.010   2.719   4.980 -0.2852  0.4456  1.3677
20205TIP3   OH282105   4.603   6.322  13.193 -0.0163 -0.4289 -0.4447
20205TIP3    H182106   4.671   6.329  13.260  1.0686 -0.3734 -1.5238
20205TIP3    H282107   4.625   6.390  13.129 -1.2332 -0.2525 -0.6895
20206TIP3   OH282108   2.218   5.414   3.050  0.3644  0.9456  0.1987
20206TIP3    H182109   2.126   5.398   3.072 -0.3829 -0.8053 -3.3807
20206TIP3    H282110   2.260   5.329   3.061  0.5241  0.6655 -2.0507
20207TIP3   OH282111   3.756   5.942   2.186 -0.2739  0.1927 -0.0259
20207TIP3    H182112   3.797   5.856   2.189 -0.5992 -0.1306 -2.6449
20207TIP3    H282113   3.810   5.996   2.243  1.7331 -1.0499 -0.6449
20208TIP3   OH282114   2.369   6.383   0.909  0.3609 -0.4534 -0.5648
20208TIP3    H182115   2.427   6.400   0.835  2.3328  1.7854  1.3124
20208TIP3    H282116   2.413   6.314   0.959  1.3859  1.0084  0.6763
20209TIP3   OH282117   1.910   5.016   2.533 -0.3985  0.2485  0.4089
20209TIP3    H182118   1.893   5.088   2.472  0.1576 -1.1394 -1.4785
20209TIP3    H282119   1.997   5.036   2.569 -0.1370  0.4083 -0.2906
20210TIP3   OH282120   5.289   5.802   1.314 -0.0983 -0.3664  0.0687
20210TIP3    H182121   5.346   5.821   1.388 -0.7095  1.7600  0.0603
20210TIP3    H282122   5.204   5.782   1.354 -0.2569  0.1172 -0.0162
20211TIP3   OH282123   6.194   6.121   1.649  0.7356 -0.2198  0.3055
20211TIP3    H182124   6.272   6.116   1.704  0.8506 -1.4920  0.0475
20211TIP3    H282125   6.224   6.164   1.569  0.6414  1.3474  1.0561
20212TIP3   OH282126   6.356   5.356  11.487 -0.3133  0.1028  0.0528
20212TIP3    H182127   6.273   5.317  11.514  0.5292 -1.2864  0.7314
20212TIP3    H282128   6.338   5.394  11.401 -1.8761  0.6465  0.5973
20213TIP3   OH282129   2.428   4.611  11.581  0.6262 -0.0689  0.1516
20213TIP3    H182130   2.477   4.671  11.637  1.3390 -0.1226 -0.4044
20213TIP3    H282131   2.412   4.660  11.501  0.2315 -0.2392  0.1239
20214TIP3   OH282132   5.654   4.787  12.238  0.0145  0.3990 -0.6198
20214TIP3    H182133   5.642   4.879  12.261  0.4886  0.8083 -1.9455
20214TIP3    H282134   5.643   4.784  12.143 -1.2977 -1.1328 -0.4620
20215TIP3   OH282135   3.811   5.286   5.450  0.3061 -0.6564  0.2171
20215TIP3    H182136   3.833   5.298   5.542  2.4848 -2.0058 -0.0666
20215TIP3    H282137   3.844   5.365   5.408  0.4630 -0.6095  0.4252
20216TIP3   OH282138   0.206   6.074  11.875  0.0030  0.4097  0.1548
20216TIP3    H182139   0.155   6.054  11.954  0.9550 -0.0456  0.6751
20216TIP3    H282140   0.170   6.018  11.807 -1.7404  1.7758 -0.1202
20217TIP3   OH282141   1.716   3.753  15.955  0.3250 -0.5935 -0.3418
20217TIP3    H182142   1.778   3.792  15.894  0.8341  0.3475  0.7597
20217TIP3    H282143   1.658   3.825  15.980 -0.9165 -1.3434 -0.9700
20218TIP3   OH282144   1.451   1.257   4.313  0.3208  0.0442  0.0885
20218TIP3    H182145   1.362   1.223   4.323  0.5940 -0.6869  0.0537
20218TIP3    H282146   1.497   1.191   4.262  1.0612  0.1160  0.6485
20219TIP3   OH282147   4.767   2.587   1.855 -0.2090 -0.1561  0.4767
20219TIP3    H182148   4.698   2.653   1.865  0.5920  0.5487  1.4247
20219TIP3    H282149   4.845   2.637   1.831 -0.4051 -1.1164 -2.6858
20220TIP3   OH282150   4.127   3.749   1.546 -0.4795 -0.3305  0.3751
20220TIP3    H182151   4.172   3.721   1.466 -0.5177 -0.2598  0.3288
20220TIP3    H282152   4.046   3.790   1.514  0.8516  2.4234  0.2823
20221TIP3   OH282153   2.880   4.176  11.522  0.0000 -0.2911  0.3169
20221TIP3    H182154   2.822   4.252  11.526 -0.1245 -0.4146  1.0262
20221TIP3    H282155   2.827   4.106  11.484  0.3892  0.2063 -1.2278
20222TIP3   OH282156   4.410   6.624  15.316  0.0717 -0.3185  0.0331
20222TIP3    H182157   4.493   6.620  15.267  1.0078 -0.7573  1.5986
20222TIP3    H282158   4.416   6.705  15.366 -1.1261  0.4120 -0.9456
20223TIP3   OH282159   0.070   3.347  11.265 -0.8949  0.1197 -0.1784
20223TIP3    H182160   0.156   3.306  11.273 -1.3045 -0.6110  0.6695
20223TIP3    H282161   0.025   3.294  11.198 -1.3521 -0.7285  0.7708
20224TIP3   OH282162   3.475   4.699  13.060  0.4269 -0.1830  0.2476
20224TIP3    H182163   3.563   4.661  13.059  0.2358 -0.6410  0.3804
20224TIP3    H282164   3.423   4.636  13.111  0.1467  0.3628  0.6450
20225TIP3   OH282165   0.153   6.674  14.385  0.0980 -0.3444 -0.3479
20225TIP3    H182166   0.228   6.615  14.393  0.2583 -0.8458 -3.9677
20225TIP3    H282167   0.191   6.762  14.398  0.6054 -0.7605  1.1681
20226TIP3   OH282168   5.262   3.534  17.109 -0.1838 -0.3457  0.0689
20226TIP3    H182169   5.212   3.533  17.028 -1.7592 -2.1654  0.9858
20226TIP3    H282170   5.345   3.492  17.086 -0.5450 -0.7012 -0.6195
20227TIP3   OH282171   0.965   5.959  11.372 -0.0755 -0.1410  0.1487
20227TIP3    H182172   0.882   5.929  11.408 -0.0926  0.3978  0.5673
20227TIP3    H282173   0.947   6.045  11.336  0.8385  1.1643  2.5715
20228TIP3   OH282174   4.671   3.142  17.084  0.2371  0.3817 -0.0700
20228TIP3    H182175   4.578   3.165  17.082  0.4166  1.0930 -0.5263
20228TIP3    H282176   4.681   3.091  17.164 -0.6964 -0.3519 -0.4017
20229TIP3   OH282177   0.227   1.623  14.985  0.0350 -0.4182  0.1762
20229TIP3    H182178   0.318   1.642  15.010  0.4221 -1.4601 -0.3636
20229TIP3    H282179   0.203   1.548  15.039 -0.6342  0.0676  0.5624
20230TIP3   OH282180   4.799   1.922   4.516  0.2259  0.4898  0.2757
20230TIP3    H182181   4.707   1.943   4.499  0.5026  0.9395 -0.7500
20230TIP3    H282182   4.812   1.837   4.472  0.5799  0.9677 -0.5604
20231TIP3   OH282183   4.984   5.178   2.718 -0.1645 -0.2023 -0.0503
20231TIP3    H182184   4.999   5.117   2.790 -0.0295  0.0614  0.1481
20231TIP3    H282185   4.946   5.255   2.760 -1.3306 -0.5529 -0.4359
20232CLA    CLA82186   2.245   0.552   1.425 -0.2966 -0.0624 -0.0842
20233LIG     O182187   3.437   3.681  16.947 -0.0341  0.3871 -0.7489
20233LIG     O282188   3.292   3.690  16.765  0.1937  0.0576 -0.0716
20233LIG     O382189   3.445   3.984  16.830  0.0195  0.6049 -0.1944
20233LIG     O482190   3.009   3.762  16.300 -0.0745  0.1144 -0.8512
20233LIG      N82191   3.057   3.527  17.044  0.2534 -0.3217  0.2742
20233LIG     C182192   3.173   3.438  17.074 -0.5612 -0.2454  0.5959
20233LIG     C282193   3.097   3.657  17.119 -0.3235  0.0149  0.3726
20233LIG     C382194   3.196   3.448  17.225 -0.0299  0.1614  0.2826
20233LIG     C482195   3.148   3.590  17.249  0.3993 -0.4482 -0.0065
20233LIG     C582196   3.301   3.486  17.008 -0.1293 -0.1091  0.4521
20233LIG     C682197   3.210   3.730  17.046  0.4784 -0.0298 -0.8096
20233LIG     C782198   3.336   3.636  17.034 -0.3128  0.3892  0.1350
20233LIG     C882199   3.041   3.542  16.892  0.5496 -0.2789 -0.2897
20233LIG     C982200   2.928   3.475  17.099  0.0118  0.1956 -0.7408
20233LIG    C1082201   2.912   3.613  16.845 -0.4190 -0.1029 -0.0228
20233LIG    C1182202   2.941   3.660  16.708  0.1143 -0.1705  0.1081
20233LIG    C1282203   3.402   3.711  16.819  0.3059  0.5535 -0.5676
20233LIG    C1382204   2.983   3.790  16.675  0.1325 -0.7177  0.7975
20233LIG    C1482205   2.921   3.571  16.601  0.4807  0.2064  0.1932
20233LIG    C1582206   3.528   3.777  16.760 -0.2579  0.2704  0.3916
20233LIG    C1682207   3.006   3.826  16.540  0.2828 -0.4437 -0.2748
20233LIG    C1782208   2.927   3.609  16.466  0.4469  0.0900 -0.0654
20233LIG    C1882209   3.504   3.925  16.721  0.1651  0.6458 -0.3560
20233LIG    C1982210   3.568   3.703  16.638  0.5912 -0.2097 -0.5187
20233LIG    C2082211   2.979   3.735  16.434  0.7082  0.7066  0.5111
20233LIG    C2182212   3.486   3.700  16.518 -1.1199 -0.6811 -0.1097
20233LIG    C2282213   3.690   3.644  16.632  0.3698 -0.2650  0.6100
20233LIG    C2382214   3.535   3.634  16.398  0.4170 -0.5578  0.0974
20233LIG    C2482215   3.740   3.593  16.512 -0.3231  0.4564 -0.1076
20233LIG    C2582216   3.119   3.852  16.276 -0.2557 -0.2499 -0.1861
20233LIG    C2682217   3.669   3.590  16.395  0.5604 -0.2339 -0.2130
20233LIG    C2782218   3.179   3.823  16.138 -0.1746 -0.2474  0.1747
20233LIG    C2882219   3.085   3.860  16.021 -0.1011 -0.5389  0.0289
20233LIG    C2982220   3.134   3.821  15.881  0.0405 -0.2064 -0.4830
20233LIG     H182221   3.147   3.336  17.038  1.0654 -0.9956  1.4227
20233LIG     H282222   3.007   3.718  17.142  0.0453  1.2689 -1.3002
20233LIG     H382223   3.304   3.434  17.239  0.0195  0.9707  0.7406
20233LIG     H482224   3.138   3.363  17.264 -1.3523  0.2065 -1.4262
20233LIG     H582225   3.076   3.584  17.332 -0.0174  1.6056 -0.1754
20233LIG     H682226   3.223   3.652  17.301 -0.1660 -0.4893  0.8765
20233LIG     H782227   3.299   3.459  16.900 -1.7433 -1.0064  0.6830
20233LIG     H882228   3.387   3.427  17.047  2.0970  1.9868 -1.0306
20233LIG     H982229   3.230   3.826  17.098 -1.5958  0.7843 -1.4091
20233LIG    H1082230   3.173   3.765  16.947  2.5274  2.5246 -0.7879
20233LIG    H1182231   3.389   3.641  17.131  1.1014  1.4463 -0.6559
20233LIG    H1282232   3.036   3.439  16.860 -0.8061 -0.9632  1.8613
20233LIG    H1382233   3.129   3.591  16.853 -0.2691  1.2528 -0.3009
20233LIG    H1482234   2.854   3.541  17.057  0.8126  2.7489  1.5467
20233LIG    H1582235   2.927   3.484  17.206 -1.1921  3.9436 -0.9092
20233LIG    H1682236   2.912   3.371  17.076  0.5262  0.0727 -0.5579
20233LIG    H1782237   2.894   3.701  16.911  0.5383 -1.0291  1.5582
20233LIG    H1882238   2.828   3.540  16.845  1.7777 -2.7806 -0.5344
20233LIG    H1982239   2.994   3.857  16.759 -1.2355 -0.6473  0.9343
20233LIG    H2082240   2.873   3.476  16.623  0.1505  0.1095 -0.8429
20233LIG    H2182241   3.611   3.770  16.834  0.2335 -2.5251 -0.2996
20233LIG    H2282242   3.040   3.926  16.518  0.1516 -0.2231  0.5091
20233LIG    H2382243   2.895   3.545  16.385 -0.6284 -1.1190  1.2608
20233LIG    H2482244   3.598   3.972  16.684 -1.2832  1.5902 -3.1024
20233LIG    H2582245   3.429   3.928  16.639  0.5695 -0.2392 -0.7749
20233LIG    H2682246   3.392   3.753  16.521  0.1700  1.7946 -0.9729
20233LIG    H2782247   3.754   3.651  16.719  1.3579  1.1135 -0.1781
20233LIG    H2882248   3.504   4.028  16.893 -0.0800  2.0888 -1.0965
20233LIG    H2982249   3.465   3.632  16.316  0.9730 -2.2087 -0.3850
20233LIG    H3082250   3.836   3.544  16.515 -1.7218 -2.5211 -0.8243
20233LIG    H3182251   3.199   3.840  16.353  0.6037  0.5193 -0.9269
20233LIG    H3282252   3.082   3.956  16.281 -1.2043 -0.4396 -2.2077
20233LIG    H3382253   3.709   3.547  16.304 -0.7745 -2.4806  0.1733
20233LIG    H3482254   3.213   3.719  16.120 -2.6945 -1.6756  2.8121
20233LIG    H3582255   3.272   3.879  16.115 -0.6850  1.6160  2.2041
20233LIG    H3682256   3.060   3.967  16.032  1.4710 -0.1198 -0.2576
20233LIG    H3782257   2.984   3.815  16.038  0.2337 -1.0818  0.6244
20233LIG    H3882258   3.168   3.716  15.892  0.0489 -0.1727 -0.2031
20233LIG    H3982259   3.226   3.878  15.855  0.1542  0.0295  0.4110
20233LIG    H4082260   3.058   3.833  15.801  1.5779 -0.5695 -2.0770
   6.85139   6.85139  17.13963
